<?xml version="1.0" encoding="UTF-8"?>

<!-- generated on 2025-05-13 17:15:44 by Eclipse SUMO sumo Version 1.20.0
<configuration xmlns:xsi="http://www.w3.org/2001/XMLSchema-instance" xsi:noNamespaceSchemaLocation="http://sumo.dlr.de/xsd/sumoConfiguration.xsd">

    <input>
        <net-file value="osm.net.xml"/>
        <route-files value="xml/routes_1.rou.xml"/>
    </input>

    <output>
        <tripinfo-output value="xml/tripinfo_1.xml"/>
    </output>

    <time>
        <step-length value="1"/>
    </time>

    <report>
        <no-warnings value="true"/>
        <no-step-log value="true"/>
    </report>

    <traci_server>
        <remote-port value="36163"/>
    </traci_server>

</configuration>
-->

<tripinfos xmlns:xsi="http://www.w3.org/2001/XMLSchema-instance" xsi:noNamespaceSchemaLocation="http://sumo.dlr.de/xsd/tripinfo_file.xsd">
    <tripinfo id="route_107.2" depart="61.00" departLane="1254519229#0_0" departPos="57.85" departSpeed="0.00" departDelay="0.35" arrival="72.00" arrivalLane="1342963997_0" arrivalPos="3.25" arrivalSpeed="8.08" duration="11.00" routeLength="45.99" waitingTime="0.00" waitingCount="0" stopTime="0.00" timeLoss="8.13" rerouteNo="0" devices="tripinfo_route_107.2" vType="car" speedFactor="1.13" vaporized=""/>
    <tripinfo id="route_5.0" depart="60.00" departLane="291974733#0_0" departPos="79.77" departSpeed="0.00" departDelay="0.00" arrival="73.00" arrivalLane="1342054204_0" arrivalPos="3.80" arrivalSpeed="10.53" duration="13.00" routeLength="62.29" waitingTime="0.00" waitingCount="0" stopTime="0.00" timeLoss="7.11" rerouteNo="0" devices="tripinfo_route_5.0" vType="car" speedFactor="0.83" vaporized=""/>
    <tripinfo id="route_60.2" depart="61.00" departLane="186407684#0_0" departPos="75.95" departSpeed="0.00" departDelay="0.58" arrival="73.00" arrivalLane="791826085_1" arrivalPos="26.91" arrivalSpeed="9.59" duration="12.00" routeLength="59.88" waitingTime="0.00" waitingCount="0" stopTime="0.00" timeLoss="8.03" rerouteNo="0" devices="tripinfo_route_60.2" vType="car" speedFactor="0.95" vaporized=""/>
    <tripinfo id="route_53.1" depart="61.00" departLane="138002006#0_0" departPos="83.71" departSpeed="0.00" departDelay="0.61" arrival="74.00" arrivalLane="1369578052#0_0" arrivalPos="38.57" arrivalSpeed="9.53" duration="13.00" routeLength="62.78" waitingTime="0.00" waitingCount="0" stopTime="0.00" timeLoss="8.77" rerouteNo="0" devices="tripinfo_route_53.1" vType="car" speedFactor="1.09" vaporized=""/>
    <tripinfo id="route_2.0" depart="60.00" departLane="1318793173#0_0" departPos="98.25" departSpeed="0.00" departDelay="0.00" arrival="75.00" arrivalLane="189835257_0" arrivalPos="2.39" arrivalSpeed="11.48" duration="15.00" routeLength="84.08" waitingTime="0.00" waitingCount="0" stopTime="0.00" timeLoss="8.82" rerouteNo="0" devices="tripinfo_route_2.0" vType="car" speedFactor="1.01" vaporized=""/>
    <tripinfo id="route_62.3" depart="62.00" departLane="409155823_0" departPos="75.63" departSpeed="0.00" departDelay="0.48" arrival="75.00" arrivalLane="1091883842_1" arrivalPos="33.48" arrivalSpeed="9.34" duration="13.00" routeLength="63.26" waitingTime="0.00" waitingCount="0" stopTime="0.00" timeLoss="9.13" rerouteNo="0" devices="tripinfo_route_62.3" vType="car" speedFactor="1.11" vaporized=""/>
    <tripinfo id="route_74.0" depart="60.00" departLane="380593307#0_0" departPos="158.96" departSpeed="0.00" departDelay="0.00" arrival="76.00" arrivalLane="138002016#0_0" arrivalPos="65.95" arrivalSpeed="11.38" duration="16.00" routeLength="89.68" waitingTime="0.00" waitingCount="0" stopTime="0.00" timeLoss="9.22" rerouteNo="0" devices="tripinfo_route_74.0" vType="car" speedFactor="0.96" vaporized=""/>
    <tripinfo id="route_107.0" depart="60.00" departLane="1254519229#0_0" departPos="70.64" departSpeed="0.00" departDelay="0.00" arrival="76.00" arrivalLane="1342963997_0" arrivalPos="61.57" arrivalSpeed="11.98" duration="16.00" routeLength="91.51" waitingTime="0.00" waitingCount="0" stopTime="0.00" timeLoss="9.93" rerouteNo="0" devices="tripinfo_route_107.0" vType="car" speedFactor="1.03" vaporized=""/>
    <tripinfo id="route_18.4" depart="62.00" departLane="133126040#0_0" departPos="76.13" departSpeed="0.00" departDelay="1.00" arrival="76.00" arrivalLane="1318893695#0_0" arrivalPos="12.07" arrivalSpeed="8.85" duration="14.00" routeLength="66.80" waitingTime="0.00" waitingCount="0" stopTime="0.00" timeLoss="9.74" rerouteNo="0" devices="tripinfo_route_18.4" vType="car" speedFactor="0.97" vaporized=""/>
    <tripinfo id="route_82.1" depart="61.00" departLane="423956929_0" departPos="145.91" departSpeed="0.00" departDelay="0.79" arrival="76.00" arrivalLane="186407684#0_1" arrivalPos="14.30" arrivalSpeed="8.63" duration="15.00" routeLength="71.47" waitingTime="0.00" waitingCount="0" stopTime="0.00" timeLoss="9.49" rerouteNo="0" devices="tripinfo_route_82.1" vType="car" speedFactor="0.87" vaporized=""/>
    <tripinfo id="route_123.4" depart="63.00" departLane="189240000#0-AddedOnRampEdge_0" departPos="89.81" departSpeed="0.00" departDelay="2.12" arrival="76.00" arrivalLane="1254519229#0_0" arrivalPos="12.70" arrivalSpeed="10.20" duration="13.00" routeLength="65.21" waitingTime="0.00" waitingCount="0" stopTime="0.00" timeLoss="7.79" rerouteNo="0" devices="tripinfo_route_123.4" vType="car" speedFactor="0.89" vaporized=""/>
    <tripinfo id="route_82.0" depart="60.00" departLane="423956929_0" departPos="153.66" departSpeed="0.00" departDelay="0.00" arrival="77.00" arrivalLane="186407684#0_2" arrivalPos="59.81" arrivalSpeed="13.41" duration="17.00" routeLength="109.23" waitingTime="0.00" waitingCount="0" stopTime="0.00" timeLoss="9.66" rerouteNo="0" devices="tripinfo_route_82.0" vType="car" speedFactor="1.02" vaporized=""/>
    <tripinfo id="route_62.2" depart="62.00" departLane="409155823_0" departPos="59.50" departSpeed="0.00" departDelay="0.98" arrival="77.00" arrivalLane="1091883842_1" arrivalPos="32.13" arrivalSpeed="10.16" duration="15.00" routeLength="78.04" waitingTime="0.00" waitingCount="0" stopTime="0.00" timeLoss="9.23" rerouteNo="0" devices="tripinfo_route_62.2" vType="car" speedFactor="0.85" vaporized=""/>
    <tripinfo id="route_16.0" depart="60.00" departLane="137406408#0_0" departPos="14.15" departSpeed="0.00" departDelay="0.00" arrival="78.00" arrivalLane="133126040#0_1" arrivalPos="6.52" arrivalSpeed="12.69" duration="18.00" routeLength="113.55" waitingTime="0.00" waitingCount="0" stopTime="0.00" timeLoss="10.03" rerouteNo="0" devices="tripinfo_route_16.0" vType="car" speedFactor="0.88" vaporized=""/>
    <tripinfo id="route_60.0" depart="60.00" departLane="186407684#0_0" departPos="53.28" departSpeed="0.00" departDelay="0.00" arrival="78.00" arrivalLane="791826085_1" arrivalPos="59.80" arrivalSpeed="13.07" duration="18.00" routeLength="115.45" waitingTime="0.00" waitingCount="0" stopTime="0.00" timeLoss="10.34" rerouteNo="0" devices="tripinfo_route_60.0" vType="car" speedFactor="1.08" vaporized=""/>
    <tripinfo id="route_62.0" depart="60.00" departLane="409155823_0" departPos="86.47" departSpeed="0.00" departDelay="0.00" arrival="78.00" arrivalLane="1091883842_0" arrivalPos="28.20" arrivalSpeed="8.17" duration="18.00" routeLength="47.14" waitingTime="5.00" waitingCount="1" stopTime="0.00" timeLoss="15.04" rerouteNo="0" devices="tripinfo_route_62.0" vType="car" speedFactor="1.02" vaporized=""/>
    <tripinfo id="route_123.0" depart="60.00" departLane="189240000#0-AddedOnRampEdge_0" departPos="73.11" departSpeed="0.00" departDelay="0.00" arrival="78.00" arrivalLane="1254519229#0_1" arrivalPos="53.74" arrivalSpeed="13.80" duration="18.00" routeLength="126.47" waitingTime="0.00" waitingCount="0" stopTime="0.00" timeLoss="9.65" rerouteNo="0" devices="tripinfo_route_123.0" vType="car" speedFactor="1.02" vaporized=""/>
    <tripinfo id="route_2.1" depart="61.00" departLane="1318793173#0_0" departPos="80.11" departSpeed="0.00" departDelay="0.80" arrival="78.00" arrivalLane="189835257_0" arrivalPos="0.41" arrivalSpeed="11.95" duration="17.00" routeLength="100.25" waitingTime="0.00" waitingCount="0" stopTime="0.00" timeLoss="10.15" rerouteNo="0" devices="tripinfo_route_2.1" vType="car" speedFactor="1.08" vaporized=""/>
    <tripinfo id="route_122.0" depart="60.00" departLane="799091563#0_0" departPos="348.94" departSpeed="0.00" departDelay="0.00" arrival="79.00" arrivalLane="688883939#0_2" arrivalPos="41.19" arrivalSpeed="13.93" duration="19.00" routeLength="130.88" waitingTime="0.00" waitingCount="0" stopTime="0.00" timeLoss="10.39" rerouteNo="0" devices="tripinfo_route_122.0" vType="car" speedFactor="1.03" vaporized=""/>
    <tripinfo id="route_5.1" depart="61.00" departLane="291974733#0_0" departPos="47.51" departSpeed="0.00" departDelay="0.75" arrival="79.00" arrivalLane="1342054204_0" arrivalPos="4.96" arrivalSpeed="9.79" duration="18.00" routeLength="95.70" waitingTime="0.00" waitingCount="0" stopTime="0.00" timeLoss="11.61" rerouteNo="0" devices="tripinfo_route_5.1" vType="car" speedFactor="1.08" vaporized=""/>
    <tripinfo id="route_18.1" depart="61.00" departLane="133126040#0_0" departPos="104.05" departSpeed="0.00" departDelay="0.75" arrival="79.00" arrivalLane="1318893695#0_0" arrivalPos="84.67" arrivalSpeed="11.93" duration="18.00" routeLength="111.48" waitingTime="0.00" waitingCount="0" stopTime="0.00" timeLoss="10.20" rerouteNo="0" devices="tripinfo_route_18.1" vType="car" speedFactor="0.92" vaporized=""/>
    <tripinfo id="route_3.0" depart="60.00" departLane="1318793173#0_0" departPos="44.51" departSpeed="0.00" departDelay="0.00" arrival="80.00" arrivalLane="291974733#0_1" arrivalPos="46.05" arrivalSpeed="15.20" duration="20.00" routeLength="138.50" waitingTime="0.00" waitingCount="0" stopTime="0.00" timeLoss="10.79" rerouteNo="0" devices="tripinfo_route_3.0" vType="car" speedFactor="1.08" vaporized=""/>
    <tripinfo id="route_137.0" depart="60.00" departLane="1310781056_0" departPos="57.41" departSpeed="0.00" departDelay="0.00" arrival="80.00" arrivalLane="714011134#0_1" arrivalPos="10.84" arrivalSpeed="15.54" duration="20.00" routeLength="147.23" waitingTime="0.00" waitingCount="0" stopTime="0.00" timeLoss="10.49" rerouteNo="0" devices="tripinfo_route_137.0" vType="car" speedFactor="1.02" vaporized=""/>
    <tripinfo id="route_25.3" depart="61.00" departLane="1254771874#0_0" departPos="190.24" departSpeed="0.00" departDelay="0.22" arrival="80.00" arrivalLane="1341093415#0_1" arrivalPos="47.82" arrivalSpeed="13.74" duration="19.00" routeLength="135.37" waitingTime="0.00" waitingCount="0" stopTime="0.00" timeLoss="10.48" rerouteNo="0" devices="tripinfo_route_25.3" vType="car" speedFactor="0.84" vaporized=""/>
    <tripinfo id="route_16.1" depart="62.00" departLane="137406408#0_0" departPos="63.34" departSpeed="0.00" departDelay="0.38" arrival="80.00" arrivalLane="133126040#0_0" arrivalPos="45.37" arrivalSpeed="10.06" duration="18.00" routeLength="103.22" waitingTime="1.00" waitingCount="1" stopTime="0.00" timeLoss="10.02" rerouteNo="0" devices="tripinfo_route_16.1" vType="car" speedFactor="0.80" vaporized=""/>
    <tripinfo id="route_27.0" depart="61.00" departLane="1254771874#0_0" departPos="175.65" departSpeed="0.00" departDelay="1.00" arrival="81.00" arrivalLane="138002006#0_1" arrivalPos="35.20" arrivalSpeed="10.93" duration="20.00" routeLength="131.45" waitingTime="0.00" waitingCount="0" stopTime="0.00" timeLoss="10.93" rerouteNo="0" devices="tripinfo_route_27.0" vType="car" speedFactor="0.95" vaporized=""/>
    <tripinfo id="route_123.2" depart="62.00" departLane="189240000#0-AddedOnRampEdge_0" departPos="57.49" departSpeed="0.00" departDelay="1.56" arrival="81.00" arrivalLane="1254519229#0_1" arrivalPos="52.87" arrivalSpeed="11.88" duration="19.00" routeLength="141.21" waitingTime="0.00" waitingCount="0" stopTime="0.00" timeLoss="9.13" rerouteNo="0" devices="tripinfo_route_123.2" vType="car" speedFactor="0.93" vaporized=""/>
    <tripinfo id="route_134.1" depart="62.00" departLane="688883939#0_0" departPos="58.87" departSpeed="0.00" departDelay="1.58" arrival="81.00" arrivalLane="809719540#0_1" arrivalPos="29.27" arrivalSpeed="12.18" duration="19.00" routeLength="110.05" waitingTime="0.00" waitingCount="0" stopTime="0.00" timeLoss="11.80" rerouteNo="0" devices="tripinfo_route_134.1" vType="car" speedFactor="1.02" vaporized=""/>
    <tripinfo id="route_62.5" depart="63.00" departLane="409155823_0" departPos="23.22" departSpeed="0.00" departDelay="0.46" arrival="81.00" arrivalLane="1091883842_1" arrivalPos="39.92" arrivalSpeed="13.87" duration="18.00" routeLength="122.11" waitingTime="0.00" waitingCount="0" stopTime="0.00" timeLoss="10.46" rerouteNo="0" devices="tripinfo_route_62.5" vType="car" speedFactor="1.00" vaporized=""/>
    <tripinfo id="route_8.0" depart="60.00" departLane="133000078#0_0" departPos="205.81" departSpeed="0.00" departDelay="0.00" arrival="82.00" arrivalLane="1235147073.116_2" arrivalPos="8.35" arrivalSpeed="6.98" duration="22.00" routeLength="162.72" waitingTime="0.00" waitingCount="0" stopTime="0.00" timeLoss="10.32" rerouteNo="0" devices="tripinfo_route_8.0" vType="car" speedFactor="0.94" vaporized=""/>
    <tripinfo id="route_94.1" depart="61.00" departLane="1341093416#0_0" departPos="239.68" departSpeed="0.00" departDelay="0.58" arrival="82.00" arrivalLane="799091563#0_1" arrivalPos="103.55" arrivalSpeed="15.74" duration="21.00" routeLength="170.21" waitingTime="0.00" waitingCount="0" stopTime="0.00" timeLoss="10.40" rerouteNo="0" devices="tripinfo_route_94.1" vType="car" speedFactor="0.98" vaporized=""/>
    <tripinfo id="route_138.1" depart="61.00" departLane="1310781056_0" departPos="111.64" departSpeed="0.00" departDelay="0.71" arrival="82.00" arrivalLane="186410975#0_0" arrivalPos="3.17" arrivalSpeed="10.30" duration="21.00" routeLength="144.35" waitingTime="0.00" waitingCount="0" stopTime="0.00" timeLoss="10.80" rerouteNo="0" devices="tripinfo_route_138.1" vType="car" speedFactor="0.96" vaporized=""/>
    <tripinfo id="route_18.0" depart="60.00" departLane="133126040#0_0" departPos="34.98" departSpeed="0.00" departDelay="0.00" arrival="83.00" arrivalLane="1318893695#0_0" arrivalPos="64.47" arrivalSpeed="13.02" duration="23.00" routeLength="160.35" waitingTime="0.00" waitingCount="0" stopTime="0.00" timeLoss="12.12" rerouteNo="0" devices="tripinfo_route_18.0" vType="car" speedFactor="0.94" vaporized=""/>
    <tripinfo id="route_43.0" depart="60.00" departLane="1328664744#0_0" departPos="126.14" departSpeed="0.00" departDelay="0.00" arrival="83.00" arrivalLane="134193294#0_3" arrivalPos="38.28" arrivalSpeed="11.99" duration="23.00" routeLength="152.20" waitingTime="0.00" waitingCount="0" stopTime="0.00" timeLoss="12.35" rerouteNo="0" devices="tripinfo_route_43.0" vType="car" speedFactor="1.04" vaporized=""/>
    <tripinfo id="route_75.0" depart="61.00" departLane="380593307#0_0" departPos="80.44" departSpeed="0.00" departDelay="1.00" arrival="83.00" arrivalLane="-138002002#2_1" arrivalPos="33.28" arrivalSpeed="13.04" duration="22.00" routeLength="156.60" waitingTime="0.00" waitingCount="0" stopTime="0.00" timeLoss="11.26" rerouteNo="0" devices="tripinfo_route_75.0" vType="car" speedFactor="0.98" vaporized=""/>
    <tripinfo id="route_2.2" depart="62.00" departLane="1318793173#0_0" departPos="70.03" departSpeed="0.00" departDelay="1.60" arrival="83.00" arrivalLane="189835257_0" arrivalPos="52.07" arrivalSpeed="14.69" duration="21.00" routeLength="161.98" waitingTime="0.00" waitingCount="0" stopTime="0.00" timeLoss="9.62" rerouteNo="0" devices="tripinfo_route_2.2" vType="car" speedFactor="0.91" vaporized=""/>
    <tripinfo id="route_5.2" depart="62.00" departLane="291974733#0_0" departPos="4.25" departSpeed="0.00" departDelay="1.50" arrival="83.00" arrivalLane="1342054204_0" arrivalPos="5.50" arrivalSpeed="12.10" duration="21.00" routeLength="139.51" waitingTime="0.00" waitingCount="0" stopTime="0.00" timeLoss="11.46" rerouteNo="0" devices="tripinfo_route_5.2" vType="car" speedFactor="0.99" vaporized=""/>
    <tripinfo id="route_17.1" depart="61.00" departLane="137406408#0_0" departPos="33.14" departSpeed="0.00" departDelay="0.68" arrival="83.00" arrivalLane="1254771874#0_1" arrivalPos="21.01" arrivalSpeed="13.23" duration="22.00" routeLength="131.07" waitingTime="0.00" waitingCount="0" stopTime="0.00" timeLoss="13.27" rerouteNo="0" devices="tripinfo_route_17.1" vType="car" speedFactor="1.03" vaporized=""/>
    <tripinfo id="route_61.3" depart="69.00" departLane="186407684#0_0" departPos="74.19" departSpeed="0.00" departDelay="8.22" arrival="83.00" arrivalLane="1341093416#0_1" arrivalPos="35.13" arrivalSpeed="11.13" duration="14.00" routeLength="75.12" waitingTime="0.00" waitingCount="0" stopTime="0.00" timeLoss="8.31" rerouteNo="0" devices="tripinfo_route_61.3" vType="car" speedFactor="1.01" vaporized=""/>
    <tripinfo id="route_82.4" depart="62.00" departLane="423956929_0" departPos="137.28" departSpeed="0.00" departDelay="1.16" arrival="83.00" arrivalLane="186407684#0_1" arrivalPos="27.18" arrivalSpeed="7.50" duration="21.00" routeLength="92.99" waitingTime="0.00" waitingCount="0" stopTime="0.00" timeLoss="15.12" rerouteNo="0" devices="tripinfo_route_82.4" vType="car" speedFactor="0.97" vaporized=""/>
    <tripinfo id="route_82.7" depart="70.00" departLane="423956929_0" departPos="151.36" departSpeed="0.00" departDelay="8.52" arrival="83.00" arrivalLane="186407684#0_1" arrivalPos="9.16" arrivalSpeed="7.77" duration="13.00" routeLength="60.89" waitingTime="0.00" waitingCount="0" stopTime="0.00" timeLoss="8.95" rerouteNo="0" devices="tripinfo_route_82.7" vType="car" speedFactor="0.95" vaporized=""/>
    <tripinfo id="route_123.12" depart="66.00" departLane="189240000#0-AddedOnRampEdge_0" departPos="88.39" departSpeed="0.00" departDelay="3.36" arrival="83.00" arrivalLane="1254519229#0_1" arrivalPos="22.85" arrivalSpeed="5.61" duration="17.00" routeLength="76.79" waitingTime="0.00" waitingCount="0" stopTime="0.00" timeLoss="12.03" rerouteNo="0" devices="tripinfo_route_123.12" vType="car" speedFactor="1.08" vaporized=""/>
    <tripinfo id="route_30.0" depart="60.00" departLane="1235147073.116_0" departPos="3.49" departSpeed="0.00" departDelay="0.00" arrival="84.00" arrivalLane="133126030#0_1" arrivalPos="6.01" arrivalSpeed="15.78" duration="24.00" routeLength="177.04" waitingTime="0.00" waitingCount="0" stopTime="0.00" timeLoss="12.66" rerouteNo="0" devices="tripinfo_route_30.0" vType="car" speedFactor="1.18" vaporized=""/>
    <tripinfo id="route_76.0" depart="60.00" departLane="133342692#0_0" departPos="32.23" departSpeed="0.00" departDelay="0.00" arrival="84.00" arrivalLane="133000063_2" arrivalPos="8.07" arrivalSpeed="13.11" duration="24.00" routeLength="182.76" waitingTime="0.00" waitingCount="0" stopTime="0.00" timeLoss="12.82" rerouteNo="0" devices="tripinfo_route_76.0" vType="car" speedFactor="1.03" vaporized=""/>
    <tripinfo id="route_82.2" depart="61.00" departLane="423956929_0" departPos="175.86" departSpeed="0.00" departDelay="0.58" arrival="84.00" arrivalLane="186407684#0_0" arrivalPos="39.14" arrivalSpeed="7.52" duration="23.00" routeLength="66.36" waitingTime="1.00" waitingCount="1" stopTime="0.00" timeLoss="18.73" rerouteNo="0" devices="tripinfo_route_82.2" vType="car" speedFactor="1.21" vaporized=""/>
    <tripinfo id="route_107.4" depart="67.00" departLane="1254519229#0_0" departPos="8.24" departSpeed="0.00" departDelay="5.70" arrival="84.00" arrivalLane="1342963997_1" arrivalPos="6.52" arrivalSpeed="11.55" duration="17.00" routeLength="98.85" waitingTime="0.00" waitingCount="0" stopTime="0.00" timeLoss="10.50" rerouteNo="0" devices="tripinfo_route_107.4" vType="car" speedFactor="1.01" vaporized=""/>
    <tripinfo id="route_2.3" depart="63.00" departLane="1318793173#0_0" departPos="50.72" departSpeed="0.00" departDelay="2.39" arrival="85.00" arrivalLane="189835257_0" arrivalPos="45.04" arrivalSpeed="16.12" duration="22.00" routeLength="174.26" waitingTime="0.00" waitingCount="0" stopTime="0.00" timeLoss="10.48" rerouteNo="0" devices="tripinfo_route_2.3" vType="car" speedFactor="1.14" vaporized=""/>
    <tripinfo id="route_8.3" depart="64.00" departLane="133000078#0_0" departPos="205.80" departSpeed="0.00" departDelay="3.23" arrival="85.00" arrivalLane="1235147073.116_0" arrivalPos="11.66" arrivalSpeed="15.43" duration="21.00" routeLength="166.04" waitingTime="0.00" waitingCount="0" stopTime="0.00" timeLoss="10.27" rerouteNo="0" devices="tripinfo_route_8.3" vType="car" speedFactor="1.09" vaporized=""/>
    <tripinfo id="route_66.1" depart="61.00" departLane="-138002002#2_0" departPos="23.79" departSpeed="0.00" departDelay="0.11" arrival="85.00" arrivalLane="-138002006#3_1" arrivalPos="25.24" arrivalSpeed="10.64" duration="24.00" routeLength="204.85" waitingTime="0.00" waitingCount="0" stopTime="0.00" timeLoss="11.41" rerouteNo="0" devices="tripinfo_route_66.1" vType="car" speedFactor="0.98" vaporized=""/>
    <tripinfo id="route_67.1" depart="61.00" departLane="-138002002#2_0" departPos="173.81" departSpeed="0.00" departDelay="0.79" arrival="85.00" arrivalLane="380351865#0_0" arrivalPos="3.25" arrivalSpeed="9.72" duration="24.00" routeLength="162.49" waitingTime="0.00" waitingCount="0" stopTime="0.00" timeLoss="6.31" rerouteNo="0" devices="tripinfo_route_67.1" vType="car" speedFactor="0.88" vaporized=""/>
    <tripinfo id="route_82.3" depart="62.00" departLane="423956929_0" departPos="80.99" departSpeed="0.00" departDelay="1.37" arrival="85.00" arrivalLane="186407684#0_2" arrivalPos="51.83" arrivalSpeed="14.61" duration="23.00" routeLength="173.92" waitingTime="0.00" waitingCount="0" stopTime="0.00" timeLoss="12.22" rerouteNo="0" devices="tripinfo_route_82.3" vType="car" speedFactor="0.99" vaporized=""/>
    <tripinfo id="route_66.2" depart="70.00" departLane="-138002002#2_0" departPos="131.79" departSpeed="0.00" departDelay="8.21" arrival="85.00" arrivalLane="-138002006#3_0" arrivalPos="9.29" arrivalSpeed="10.96" duration="15.00" routeLength="80.89" waitingTime="0.00" waitingCount="0" stopTime="0.00" timeLoss="9.58" rerouteNo="0" devices="tripinfo_route_66.2" vType="car" speedFactor="1.02" vaporized=""/>
    <tripinfo id="route_53.7" depart="71.00" departLane="138002006#0_0" departPos="69.29" departSpeed="0.00" departDelay="8.28" arrival="85.00" arrivalLane="1369578052#0_1" arrivalPos="34.39" arrivalSpeed="10.33" duration="14.00" routeLength="73.02" waitingTime="0.00" waitingCount="0" stopTime="0.00" timeLoss="9.05" rerouteNo="0" devices="tripinfo_route_53.7" vType="car" speedFactor="0.95" vaporized=""/>
    <tripinfo id="route_31.0" depart="61.00" departLane="1235147073.116_0" departPos="13.16" departSpeed="0.00" departDelay="1.00" arrival="86.00" arrivalLane="-430406005#1_0" arrivalPos="53.89" arrivalSpeed="13.30" duration="25.00" routeLength="203.69" waitingTime="0.00" waitingCount="0" stopTime="0.00" timeLoss="11.74" rerouteNo="0" devices="tripinfo_route_31.0" vType="car" speedFactor="1.15" vaporized=""/>
    <tripinfo id="route_53.0" depart="60.00" departLane="138002006#0_0" departPos="40.45" departSpeed="0.00" departDelay="0.00" arrival="86.00" arrivalLane="1369578052#0_1" arrivalPos="172.36" arrivalSpeed="4.54" duration="26.00" routeLength="239.83" waitingTime="0.00" waitingCount="0" stopTime="0.00" timeLoss="11.38" rerouteNo="0" devices="tripinfo_route_53.0" vType="car" speedFactor="1.10" vaporized=""/>
    <tripinfo id="route_134.0" depart="60.00" departLane="688883939#0_0" departPos="97.61" departSpeed="0.00" departDelay="0.00" arrival="86.00" arrivalLane="809719540#0_1" arrivalPos="182.88" arrivalSpeed="14.49" duration="26.00" routeLength="224.92" waitingTime="0.00" waitingCount="0" stopTime="0.00" timeLoss="11.72" rerouteNo="0" devices="tripinfo_route_134.0" vType="car" speedFactor="1.23" vaporized=""/>
    <tripinfo id="route_25.1" depart="61.00" departLane="1254771874#0_0" departPos="134.15" departSpeed="0.00" departDelay="0.74" arrival="86.00" arrivalLane="1341093415#0_1" arrivalPos="63.97" arrivalSpeed="14.73" duration="25.00" routeLength="207.59" waitingTime="0.00" waitingCount="0" stopTime="0.00" timeLoss="11.68" rerouteNo="0" devices="tripinfo_route_25.1" vType="car" speedFactor="1.07" vaporized=""/>
    <tripinfo id="route_107.3" depart="64.00" departLane="1254519229#0_0" departPos="50.84" departSpeed="0.00" departDelay="3.03" arrival="86.00" arrivalLane="1342963997_0" arrivalPos="110.95" arrivalSpeed="15.62" duration="22.00" routeLength="160.69" waitingTime="0.00" waitingCount="0" stopTime="0.00" timeLoss="11.78" rerouteNo="0" devices="tripinfo_route_107.3" vType="car" speedFactor="1.16" vaporized=""/>
    <tripinfo id="route_121.2" depart="61.00" departLane="799091563#0_0" departPos="274.03" departSpeed="0.00" departDelay="0.21" arrival="86.00" arrivalLane="134194079#0_0" arrivalPos="46.12" arrivalSpeed="9.38" duration="25.00" routeLength="161.25" waitingTime="0.00" waitingCount="0" stopTime="0.00" timeLoss="14.69" rerouteNo="0" devices="tripinfo_route_121.2" vType="car" speedFactor="1.02" vaporized=""/>
    <tripinfo id="route_73.5" depart="62.00" departLane="380593307#0_0" departPos="147.75" departSpeed="0.00" departDelay="0.99" arrival="86.00" arrivalLane="380585337#0_0" arrivalPos="7.97" arrivalSpeed="7.58" duration="24.00" routeLength="196.90" waitingTime="0.00" waitingCount="0" stopTime="0.00" timeLoss="10.58" rerouteNo="0" devices="tripinfo_route_73.5" vType="car" speedFactor="0.91" vaporized=""/>
    <tripinfo id="route_20.0" depart="60.00" departLane="1318893695#0_0" departPos="89.03" departSpeed="0.00" departDelay="0.00" arrival="87.00" arrivalLane="133131666#1_1" arrivalPos="1.03" arrivalSpeed="16.13" duration="27.00" routeLength="228.77" waitingTime="0.00" waitingCount="0" stopTime="0.00" timeLoss="12.82" rerouteNo="0" devices="tripinfo_route_20.0" vType="car" speedFactor="1.02" vaporized=""/>
    <tripinfo id="route_17.2" depart="61.00" departLane="137406408#0_0" departPos="5.01" departSpeed="0.00" departDelay="0.35" arrival="87.00" arrivalLane="1254771874#0_1" arrivalPos="51.82" arrivalSpeed="15.09" duration="26.00" routeLength="190.02" waitingTime="0.00" waitingCount="0" stopTime="0.00" timeLoss="13.74" rerouteNo="0" devices="tripinfo_route_17.2" vType="car" speedFactor="1.08" vaporized=""/>
    <tripinfo id="route_77.2" depart="68.00" departLane="133342692#0_0" departPos="107.71" departSpeed="0.00" departDelay="7.27" arrival="87.00" arrivalLane="423956929_0" arrivalPos="15.26" arrivalSpeed="9.13" duration="19.00" routeLength="90.08" waitingTime="0.00" waitingCount="0" stopTime="0.00" timeLoss="12.99" rerouteNo="0" devices="tripinfo_route_77.2" vType="car" speedFactor="1.26" vaporized=""/>
    <tripinfo id="route_7.4" depart="65.00" departLane="133000078#0_0" departPos="170.69" departSpeed="0.00" departDelay="3.41" arrival="87.00" arrivalLane="137406408#0_1" arrivalPos="19.87" arrivalSpeed="13.97" duration="22.00" routeLength="153.98" waitingTime="0.00" waitingCount="0" stopTime="0.00" timeLoss="12.36" rerouteNo="0" devices="tripinfo_route_7.4" vType="car" speedFactor="1.19" vaporized=""/>
    <tripinfo id="route_18.5" depart="63.00" departLane="133126040#0_0" departPos="97.17" departSpeed="0.00" departDelay="1.75" arrival="87.00" arrivalLane="1318893695#0_0" arrivalPos="155.36" arrivalSpeed="4.84" duration="24.00" routeLength="189.06" waitingTime="0.00" waitingCount="0" stopTime="0.00" timeLoss="12.49" rerouteNo="0" devices="tripinfo_route_18.5" vType="car" speedFactor="1.11" vaporized=""/>
    <tripinfo id="route_76.3" depart="68.00" departLane="133342692#0_0" departPos="169.05" departSpeed="0.00" departDelay="6.85" arrival="87.00" arrivalLane="133000063_1" arrivalPos="82.76" arrivalSpeed="12.21" duration="19.00" routeLength="120.63" waitingTime="0.00" waitingCount="0" stopTime="0.00" timeLoss="10.46" rerouteNo="0" devices="tripinfo_route_76.3" vType="car" speedFactor="0.86" vaporized=""/>
    <tripinfo id="route_82.6" depart="68.00" departLane="423956929_0" departPos="125.22" departSpeed="0.00" departDelay="6.73" arrival="87.00" arrivalLane="186407684#0_1" arrivalPos="16.06" arrivalSpeed="6.11" duration="19.00" routeLength="93.92" waitingTime="0.00" waitingCount="0" stopTime="0.00" timeLoss="12.36" rerouteNo="0" devices="tripinfo_route_82.6" vType="car" speedFactor="0.86" vaporized=""/>
    <tripinfo id="route_127.5" depart="65.00" departLane="-138000461_0" departPos="198.03" departSpeed="0.00" departDelay="3.21" arrival="87.00" arrivalLane="189240000#0-AddedOnRampEdge_0" arrivalPos="40.53" arrivalSpeed="7.14" duration="22.00" routeLength="101.61" waitingTime="0.00" waitingCount="0" stopTime="0.00" timeLoss="15.13" rerouteNo="0" devices="tripinfo_route_127.5" vType="car" speedFactor="1.01" vaporized=""/>
    <tripinfo id="route_20.2" depart="64.00" departLane="1318893695#0_0" departPos="151.49" departSpeed="0.00" departDelay="0.76" arrival="87.00" arrivalLane="133131666#1_1" arrivalPos="20.02" arrivalSpeed="16.51" duration="23.00" routeLength="185.30" waitingTime="0.00" waitingCount="0" stopTime="0.00" timeLoss="10.90" rerouteNo="0" devices="tripinfo_route_20.2" vType="car" speedFactor="1.17" vaporized=""/>
    <tripinfo id="route_106.0" depart="60.00" departLane="1254519229#0_0" departPos="27.16" departSpeed="0.00" departDelay="0.00" arrival="88.00" arrivalLane="430416184_1" arrivalPos="118.88" arrivalSpeed="15.18" duration="28.00" routeLength="192.40" waitingTime="0.00" waitingCount="0" stopTime="0.00" timeLoss="14.98" rerouteNo="0" devices="tripinfo_route_106.0" vType="car" speedFactor="1.01" vaporized=""/>
    <tripinfo id="route_143.0" depart="60.00" departLane="1253222187#0_0" departPos="120.26" departSpeed="0.00" departDelay="0.00" arrival="88.00" arrivalLane="1310781056_0" arrivalPos="1.66" arrivalSpeed="16.31" duration="28.00" routeLength="249.89" waitingTime="0.00" waitingCount="0" stopTime="0.00" timeLoss="12.43" rerouteNo="0" devices="tripinfo_route_143.0" vType="car" speedFactor="1.13" vaporized=""/>