<?xml version="1.0" encoding="UTF-8"?>

<!-- generated on 2025-05-06 21:08:54 by Eclipse SUMO sumo Version 1.20.0
<configuration xmlns:xsi="http://www.w3.org/2001/XMLSchema-instance" xsi:noNamespaceSchemaLocation="http://sumo.dlr.de/xsd/sumoConfiguration.xsd">

    <input>
        <net-file value="osm.net.xml"/>
        <route-files value="xml/route_rl_cluster_11644940323_11644940324_3828703845_7.rou.xml"/>
    </input>

    <output>
        <tripinfo-output value="xml/tripinfo_rl_cluster_11644940323_11644940324_3828703845_7.xml"/>
    </output>

    <traci_server>
        <remote-port value="51875"/>
    </traci_server>

</configuration>
-->

<tripinfos xmlns:xsi="http://www.w3.org/2001/XMLSchema-instance" xsi:noNamespaceSchemaLocation="http://sumo.dlr.de/xsd/tripinfo_file.xsd">
    <tripinfo id="flow_route_3_duration_20250327_1910.0" depart="0.00" departLane="1318793173#0_0" departPos="80.53" departSpeed="0.00" departDelay="0.00" arrival="19.00" arrivalLane="291974733#0_1" arrivalPos="66.76" arrivalSpeed="13.99" duration="19.00" routeLength="123.20" waitingTime="0.00" waitingCount="0" stopTime="0.00" timeLoss="10.27" rerouteNo="0" devices="tripinfo_flow_route_3_duration_20250327_1910.0" vType="car" speedFactor="0.94" vaporized=""/>
    <tripinfo id="flow_route_16_duration_20250327_1910.0" depart="0.00" departLane="137406408#0_0" departPos="52.27" departSpeed="0.00" departDelay="0.00" arrival="20.00" arrivalLane="133126040#0_0" arrivalPos="80.39" arrivalSpeed="14.51" duration="20.00" routeLength="149.31" waitingTime="0.00" waitingCount="0" stopTime="0.00" timeLoss="10.89" rerouteNo="0" devices="tripinfo_flow_route_16_duration_20250327_1910.0" vType="car" speedFactor="1.05" vaporized=""/>
    <tripinfo id="flow_route_17_duration_20250327_1910.0" depart="0.00" departLane="137406408#0_0" departPos="24.41" departSpeed="0.00" departDelay="0.00" arrival="22.00" arrivalLane="1254771874#0_0" arrivalPos="63.27" arrivalSpeed="15.69" duration="22.00" routeLength="182.06" waitingTime="0.00" waitingCount="0" stopTime="0.00" timeLoss="9.94" rerouteNo="0" devices="tripinfo_flow_route_17_duration_20250327_1910.0" vType="car" speedFactor="0.89" vaporized=""/>
    <tripinfo id="flow_route_2_duration_20250327_1910.2" depart="4.00" departLane="1318793173#0_0" departPos="95.93" departSpeed="0.00" departDelay="2.74" arrival="22.00" arrivalLane="189835257_0" arrivalPos="36.00" arrivalSpeed="13.80" duration="18.00" routeLength="120.01" waitingTime="0.00" waitingCount="0" stopTime="0.00" timeLoss="8.07" rerouteNo="0" devices="tripinfo_flow_route_2_duration_20250327_1910.2" vType="car" speedFactor="0.86" vaporized=""/>
    <tripinfo id="flow_route_2_duration_20250327_1910.1" depart="1.00" departLane="1318793173#0_0" departPos="34.79" departSpeed="0.00" departDelay="0.37" arrival="23.00" arrivalLane="189835257_0" arrivalPos="3.17" arrivalSpeed="12.55" duration="22.00" routeLength="148.32" waitingTime="0.00" waitingCount="0" stopTime="0.00" timeLoss="11.18" rerouteNo="0" devices="tripinfo_flow_route_2_duration_20250327_1910.1" vType="car" speedFactor="0.94" vaporized=""/>
    <tripinfo id="flow_route_2_duration_20250327_1910.0" depart="0.00" departLane="1318793173#0_0" departPos="58.93" departSpeed="0.00" departDelay="0.00" arrival="24.00" arrivalLane="189835257_0" arrivalPos="46.92" arrivalSpeed="13.94" duration="24.00" routeLength="167.93" waitingTime="0.00" waitingCount="0" stopTime="0.00" timeLoss="13.06" rerouteNo="0" devices="tripinfo_flow_route_2_duration_20250327_1910.0" vType="car" speedFactor="1.06" vaporized=""/>
    <tripinfo id="flow_route_16_duration_20250327_1910.1" depart="8.00" departLane="137406408#0_0" departPos="24.37" departSpeed="0.00" departDelay="0.50" arrival="26.00" arrivalLane="133126040#0_1" arrivalPos="13.56" arrivalSpeed="12.05" duration="18.00" routeLength="110.38" waitingTime="0.00" waitingCount="0" stopTime="0.00" timeLoss="11.03" rerouteNo="0" devices="tripinfo_flow_route_16_duration_20250327_1910.1" vType="car" speedFactor="1.02" vaporized=""/>
    <tripinfo id="flow_route_16_duration_20250327_1910.2" depart="15.00" departLane="137406408#0_0" departPos="85.66" departSpeed="0.00" departDelay="0.00" arrival="26.00" arrivalLane="133126040#0_0" arrivalPos="16.42" arrivalSpeed="8.59" duration="11.00" routeLength="51.95" waitingTime="0.00" waitingCount="0" stopTime="0.00" timeLoss="7.69" rerouteNo="0" devices="tripinfo_flow_route_16_duration_20250327_1910.2" vType="car" speedFactor="1.17" vaporized=""/>
    <tripinfo id="flow_route_2_duration_20250327_1910.9" depart="16.00" departLane="1318793173#0_0" departPos="107.23" departSpeed="0.00" departDelay="10.32" arrival="30.00" arrivalLane="189835257_0" arrivalPos="8.38" arrivalSpeed="11.32" duration="14.00" routeLength="81.08" waitingTime="0.00" waitingCount="0" stopTime="0.00" timeLoss="7.58" rerouteNo="0" devices="tripinfo_flow_route_2_duration_20250327_1910.9" vType="car" speedFactor="0.88" vaporized=""/>
    <tripinfo id="flow_route_2_duration_20250327_1910.3" depart="5.00" departLane="1318793173#0_0" departPos="25.58" departSpeed="0.00" departDelay="3.11" arrival="34.00" arrivalLane="189835257_0" arrivalPos="2.43" arrivalSpeed="11.90" duration="29.00" routeLength="156.79" waitingTime="0.00" waitingCount="0" stopTime="0.00" timeLoss="18.37" rerouteNo="0" devices="tripinfo_flow_route_2_duration_20250327_1910.3" vType="car" speedFactor="1.09" vaporized=""/>
    <tripinfo id="flow_route_2_duration_20250327_1910.5" depart="8.00" departLane="1318793173#0_0" departPos="44.45" departSpeed="0.00" departDelay="4.85" arrival="36.00" arrivalLane="189835257_0" arrivalPos="49.45" arrivalSpeed="13.92" duration="28.00" routeLength="184.94" waitingTime="0.00" waitingCount="0" stopTime="0.00" timeLoss="15.65" rerouteNo="0" devices="tripinfo_flow_route_2_duration_20250327_1910.5" vType="car" speedFactor="1.05" vaporized=""/>
    <tripinfo id="flow_route_2_duration_20250327_1910.4" depart="5.00" departLane="1318793173#0_0" departPos="3.50" departSpeed="0.00" departDelay="2.48" arrival="37.00" arrivalLane="189835257_0" arrivalPos="16.17" arrivalSpeed="13.18" duration="32.00" routeLength="192.61" waitingTime="0.00" waitingCount="0" stopTime="0.00" timeLoss="19.18" rerouteNo="0" devices="tripinfo_flow_route_2_duration_20250327_1910.4" vType="car" speedFactor="1.03" vaporized=""/>
    <tripinfo id="flow_route_9_duration_20250327_1910.0" depart="0.00" departLane="1318793173#0_0" departPos="0.65" departSpeed="0.00" departDelay="0.00" arrival="38.00" arrivalLane="1254771874#0_1" arrivalPos="11.63" arrivalSpeed="9.35" duration="38.00" routeLength="169.44" waitingTime="7.00" waitingCount="1" stopTime="0.00" timeLoss="26.21" rerouteNo="0" devices="tripinfo_flow_route_9_duration_20250327_1910.0" vType="car" speedFactor="1.01" vaporized=""/>
    <tripinfo id="flow_route_2_duration_20250327_1910.8" depart="15.00" departLane="1318793173#0_0" departPos="30.13" departSpeed="0.00" departDelay="9.95" arrival="40.00" arrivalLane="189835257_0" arrivalPos="40.26" arrivalSpeed="14.95" duration="25.00" routeLength="190.06" waitingTime="0.00" waitingCount="0" stopTime="0.00" timeLoss="11.35" rerouteNo="0" devices="tripinfo_flow_route_2_duration_20250327_1910.8" vType="car" speedFactor="0.93" vaporized=""/>
    <tripinfo id="flow_route_2_duration_20250327_1910.6" depart="14.00" departLane="1318793173#0_0" departPos="18.20" departSpeed="0.00" departDelay="10.21" arrival="42.00" arrivalLane="189835257_0" arrivalPos="43.41" arrivalSpeed="15.43" duration="28.00" routeLength="205.15" waitingTime="0.00" waitingCount="0" stopTime="0.00" timeLoss="14.32" rerouteNo="0" devices="tripinfo_flow_route_2_duration_20250327_1910.6" vType="car" speedFactor="1.12" vaporized=""/>
    <tripinfo id="flow_route_2_duration_20250327_1910.7" depart="15.00" departLane="1318793173#0_0" departPos="3.01" departSpeed="0.00" departDelay="10.58" arrival="43.00" arrivalLane="189835257_0" arrivalPos="28.66" arrivalSpeed="14.66" duration="28.00" routeLength="205.60" waitingTime="0.00" waitingCount="0" stopTime="0.00" timeLoss="14.10" rerouteNo="0" devices="tripinfo_flow_route_2_duration_20250327_1910.7" vType="car" speedFactor="0.99" vaporized=""/>
    <tripinfo id="flow_route_2_duration_20250327_1910.10" depart="28.00" departLane="1318793173#0_0" departPos="32.02" departSpeed="0.00" departDelay="21.69" arrival="50.00" arrivalLane="189835257_0" arrivalPos="1.57" arrivalSpeed="13.45" duration="22.00" routeLength="149.49" waitingTime="0.00" waitingCount="0" stopTime="0.00" timeLoss="11.02" rerouteNo="0" devices="tripinfo_flow_route_2_duration_20250327_1910.10" vType="car" speedFactor="0.94" vaporized=""/>
    <tripinfo id="flow_route_2_duration_20250327_1910.11" depart="28.00" departLane="1318793173#0_0" departPos="44.43" departSpeed="0.00" departDelay="21.06" arrival="50.00" arrivalLane="189835257_0" arrivalPos="36.08" arrivalSpeed="14.51" duration="22.00" routeLength="171.59" waitingTime="0.00" waitingCount="0" stopTime="0.00" timeLoss="9.73" rerouteNo="0" devices="tripinfo_flow_route_2_duration_20250327_1910.11" vType="car" speedFactor="0.94" vaporized=""/>
    <tripinfo id="flow_route_2_duration_20250327_1910.12" depart="29.00" departLane="1318793173#0_0" departPos="10.97" departSpeed="0.00" departDelay="21.43" arrival="52.00" arrivalLane="189835257_0" arrivalPos="6.81" arrivalSpeed="13.72" duration="23.00" routeLength="175.78" waitingTime="0.00" waitingCount="0" stopTime="0.00" timeLoss="11.35" rerouteNo="0" devices="tripinfo_flow_route_2_duration_20250327_1910.12" vType="car" speedFactor="1.16" vaporized=""/>
    <tripinfo id="flow_route_2_duration_20250327_1910.17" depart="47.00" departLane="1318793173#0_0" departPos="78.15" departSpeed="0.00" departDelay="36.27" arrival="66.00" arrivalLane="189835257_0" arrivalPos="35.18" arrivalSpeed="13.91" duration="19.00" routeLength="136.97" waitingTime="0.00" waitingCount="0" stopTime="0.00" timeLoss="8.84" rerouteNo="0" devices="tripinfo_flow_route_2_duration_20250327_1910.17" vType="car" speedFactor="0.87" vaporized=""/>
    <tripinfo id="flow_route_2_duration_20250327_1910.15" depart="42.00" departLane="1318793173#0_0" departPos="52.57" departSpeed="0.00" departDelay="32.54" arrival="67.00" arrivalLane="189835257_0" arrivalPos="12.71" arrivalSpeed="13.00" duration="25.00" routeLength="140.09" waitingTime="0.00" waitingCount="0" stopTime="0.00" timeLoss="14.45" rerouteNo="0" devices="tripinfo_flow_route_2_duration_20250327_1910.15" vType="car" speedFactor="0.89" vaporized=""/>
    <tripinfo id="flow_route_2_duration_20250327_1910.13" depart="40.00" departLane="1318793173#0_0" departPos="37.37" departSpeed="0.00" departDelay="31.80" arrival="69.00" arrivalLane="189835257_0" arrivalPos="11.75" arrivalSpeed="13.76" duration="29.00" routeLength="154.32" waitingTime="0.00" waitingCount="0" stopTime="0.00" timeLoss="18.34" rerouteNo="0" devices="tripinfo_flow_route_2_duration_20250327_1910.13" vType="car" speedFactor="1.01" vaporized=""/>
    <tripinfo id="flow_route_2_duration_20250327_1910.16" depart="46.00" departLane="1318793173#0_0" departPos="22.43" departSpeed="0.00" departDelay="35.90" arrival="71.00" arrivalLane="189835257_0" arrivalPos="4.69" arrivalSpeed="13.02" duration="25.00" routeLength="162.20" waitingTime="0.00" waitingCount="0" stopTime="0.00" timeLoss="11.59" rerouteNo="0" devices="tripinfo_flow_route_2_duration_20250327_1910.16" vType="car" speedFactor="0.83" vaporized=""/>
    <tripinfo id="flow_route_2_duration_20250327_1910.14" depart="41.00" departLane="1318793173#0_0" departPos="0.09" departSpeed="0.00" departDelay="32.17" arrival="73.00" arrivalLane="189835257_0" arrivalPos="8.84" arrivalSpeed="13.04" duration="32.00" routeLength="188.69" waitingTime="0.00" waitingCount="0" stopTime="0.00" timeLoss="19.09" rerouteNo="0" devices="tripinfo_flow_route_2_duration_20250327_1910.14" vType="car" speedFactor="0.97" vaporized=""/>
    <tripinfo id="flow_route_2_duration_20250327_1910.18" depart="50.00" departLane="1318793173#0_0" departPos="10.56" departSpeed="0.00" departDelay="38.64" arrival="76.00" arrivalLane="189835257_0" arrivalPos="31.40" arrivalSpeed="14.05" duration="26.00" routeLength="200.78" waitingTime="0.00" waitingCount="0" stopTime="0.00" timeLoss="12.04" rerouteNo="0" devices="tripinfo_flow_route_2_duration_20250327_1910.18" vType="car" speedFactor="0.92" vaporized=""/>
    <tripinfo id="flow_route_15_duration_20250327_1910.0" depart="1.00" departLane="1252820503#0_0" departPos="129.63" departSpeed="0.00" departDelay="1.00" arrival="83.00" arrivalLane="133126040#0_1" arrivalPos="4.72" arrivalSpeed="7.16" duration="82.00" routeLength="54.27" waitingTime="64.00" waitingCount="1" stopTime="0.00" timeLoss="77.97" rerouteNo="0" devices="tripinfo_flow_route_15_duration_20250327_1910.0" vType="car" speedFactor="0.83" vaporized=""/>
    <tripinfo id="flow_route_13_duration_20250327_1910.0" depart="0.00" departLane="1252820503#0_0" departPos="99.64" departSpeed="0.00" departDelay="0.00" arrival="85.00" arrivalLane="291974733#0_0" arrivalPos="46.05" arrivalSpeed="8.69" duration="85.00" routeLength="103.57" waitingTime="61.00" waitingCount="1" stopTime="0.00" timeLoss="78.04" rerouteNo="0" devices="tripinfo_flow_route_13_duration_20250327_1910.0" vType="car" speedFactor="1.08" vaporized=""/>
    <tripinfo id="flow_route_2_duration_20250327_1910.24" depart="70.00" departLane="1318793173#0_0" departPos="98.95" departSpeed="0.00" departDelay="54.86" arrival="85.00" arrivalLane="189835257_0" arrivalPos="3.53" arrivalSpeed="10.96" duration="15.00" routeLength="84.51" waitingTime="0.00" waitingCount="0" stopTime="0.00" timeLoss="9.14" rerouteNo="0" devices="tripinfo_flow_route_2_duration_20250327_1910.24" vType="car" speedFactor="0.99" vaporized=""/>
    <tripinfo id="flow_route_13_duration_20250327_1910.1" depart="30.00" departLane="1252820503#0_0" departPos="130.58" departSpeed="0.00" departDelay="0.00" arrival="85.00" arrivalLane="291974733#0_0" arrivalPos="11.65" arrivalSpeed="7.13" duration="55.00" routeLength="38.23" waitingTime="43.00" waitingCount="1" stopTime="0.00" timeLoss="51.99" rerouteNo="0" devices="tripinfo_flow_route_13_duration_20250327_1910.1" vType="car" speedFactor="1.02" vaporized=""/>
    <tripinfo id="flow_route_2_duration_20250327_1910.21" depart="66.00" departLane="1318793173#0_0" departPos="57.10" departSpeed="0.00" departDelay="52.75" arrival="89.00" arrivalLane="189835257_0" arrivalPos="25.94" arrivalSpeed="12.60" duration="23.00" routeLength="148.78" waitingTime="0.00" waitingCount="0" stopTime="0.00" timeLoss="12.16" rerouteNo="0" devices="tripinfo_flow_route_2_duration_20250327_1910.21" vType="car" speedFactor="0.93" vaporized=""/>
    <tripinfo id="flow_route_2_duration_20250327_1910.19" depart="58.00" departLane="1318793173#0_0" departPos="12.91" departSpeed="0.00" departDelay="46.01" arrival="91.00" arrivalLane="189835257_0" arrivalPos="36.42" arrivalSpeed="13.41" duration="33.00" routeLength="203.45" waitingTime="0.00" waitingCount="0" stopTime="0.00" timeLoss="19.23" rerouteNo="0" devices="tripinfo_flow_route_2_duration_20250327_1910.19" vType="car" speedFactor="0.95" vaporized=""/>
    <tripinfo id="flow_route_2_duration_20250327_1910.23" depart="67.00" departLane="1318793173#0_0" departPos="24.89" departSpeed="0.00" departDelay="52.49" arrival="91.00" arrivalLane="189835257_0" arrivalPos="9.66" arrivalSpeed="12.31" duration="24.00" routeLength="164.70" waitingTime="0.00" waitingCount="0" stopTime="0.00" timeLoss="13.16" rerouteNo="0" devices="tripinfo_flow_route_2_duration_20250327_1910.23" vType="car" speedFactor="1.15" vaporized=""/>
    <tripinfo id="flow_route_14_duration_20250327_1910.1" depart="20.00" departLane="1252820503#0_0" departPos="100.48" departSpeed="0.00" departDelay="0.00" arrival="94.00" arrivalLane="1254771874#0_1" arrivalPos="74.14" arrivalSpeed="14.84" duration="74.00" routeLength="183.54" waitingTime="42.00" waitingCount="1" stopTime="0.00" timeLoss="62.49" rerouteNo="0" devices="tripinfo_flow_route_14_duration_20250327_1910.1" vType="car" speedFactor="1.09" vaporized=""/>
    <tripinfo id="flow_route_14_duration_20250327_1910.2" depart="40.00" departLane="1252820503#0_0" departPos="69.63" departSpeed="0.00" departDelay="0.00" arrival="94.00" arrivalLane="1254771874#0_1" arrivalPos="42.82" arrivalSpeed="13.91" duration="54.00" routeLength="183.07" waitingTime="21.00" waitingCount="1" stopTime="0.00" timeLoss="42.51" rerouteNo="0" devices="tripinfo_flow_route_14_duration_20250327_1910.2" vType="car" speedFactor="1.00" vaporized=""/>
    <tripinfo id="flow_route_2_duration_20250327_1910.20" depart="66.00" departLane="1318793173#0_0" departPos="11.85" departSpeed="0.00" departDelay="53.38" arrival="96.00" arrivalLane="189835257_0" arrivalPos="50.55" arrivalSpeed="15.26" duration="30.00" routeLength="218.64" waitingTime="0.00" waitingCount="0" stopTime="0.00" timeLoss="15.61" rerouteNo="0" devices="tripinfo_flow_route_2_duration_20250327_1910.20" vType="car" speedFactor="1.13" vaporized=""/>
    <tripinfo id="flow_route_2_duration_20250327_1910.22" depart="66.00" departLane="1318793173#0_0" departPos="1.26" departSpeed="0.00" departDelay="52.12" arrival="96.00" arrivalLane="189835257_0" arrivalPos="30.55" arrivalSpeed="14.64" duration="30.00" routeLength="209.23" waitingTime="0.00" waitingCount="0" stopTime="0.00" timeLoss="16.63" rerouteNo="0" devices="tripinfo_flow_route_2_duration_20250327_1910.22" vType="car" speedFactor="1.18" vaporized=""/>
    <tripinfo id="flow_route_14_duration_20250327_1910.0" depart="0.00" departLane="1252820503#0_0" departPos="69.02" departSpeed="0.00" departDelay="0.00" arrival="99.00" arrivalLane="1254771874#0_0" arrivalPos="150.80" arrivalSpeed="16.55" duration="99.00" routeLength="291.67" waitingTime="58.00" waitingCount="1" stopTime="0.00" timeLoss="80.69" rerouteNo="0" devices="tripinfo_flow_route_14_duration_20250327_1910.0" vType="car" speedFactor="1.03" vaporized=""/>
    <tripinfo id="flow_route_2_duration_20250327_1910.29" depart="88.00" departLane="1318793173#0_0" departPos="85.92" departSpeed="0.00" departDelay="69.70" arrival="104.00" arrivalLane="189835257_0" arrivalPos="2.47" arrivalSpeed="12.78" duration="16.00" routeLength="96.49" waitingTime="0.00" waitingCount="0" stopTime="0.00" timeLoss="8.00" rerouteNo="0" devices="tripinfo_flow_route_2_duration_20250327_1910.29" vType="car" speedFactor="0.90" vaporized=""/>
    <tripinfo id="flow_route_2_duration_20250327_1910.25" depart="80.00" departLane="1318793173#0_0" departPos="39.50" departSpeed="0.00" departDelay="64.23" arrival="106.00" arrivalLane="189835257_0" arrivalPos="9.42" arrivalSpeed="12.92" duration="26.00" routeLength="149.86" waitingTime="0.00" waitingCount="0" stopTime="0.00" timeLoss="16.02" rerouteNo="0" devices="tripinfo_flow_route_2_duration_20250327_1910.25" vType="car" speedFactor="1.02" vaporized=""/>
    <tripinfo id="flow_route_2_duration_20250327_1910.27" depart="80.00" departLane="1318793173#0_0" departPos="22.88" departSpeed="0.00" departDelay="62.96" arrival="109.00" arrivalLane="189835257_0" arrivalPos="29.87" arrivalSpeed="14.07" duration="29.00" routeLength="186.93" waitingTime="0.00" waitingCount="0" stopTime="0.00" timeLoss="17.09" rerouteNo="0" devices="tripinfo_flow_route_2_duration_20250327_1910.27" vType="car" speedFactor="1.18" vaporized=""/>
    <tripinfo id="flow_route_2_duration_20250327_1910.26" depart="80.00" departLane="1318793173#0_0" departPos="1.44" departSpeed="0.00" departDelay="63.59" arrival="110.00" arrivalLane="189835257_0" arrivalPos="17.85" arrivalSpeed="14.35" duration="30.00" routeLength="196.36" waitingTime="0.00" waitingCount="0" stopTime="0.00" timeLoss="17.10" rerouteNo="0" devices="tripinfo_flow_route_2_duration_20250327_1910.26" vType="car" speedFactor="0.97" vaporized=""/>
    <tripinfo id="flow_route_2_duration_20250327_1910.30" depart="94.00" departLane="1318793173#0_0" departPos="51.77" departSpeed="0.00" departDelay="75.07" arrival="120.00" arrivalLane="189835257_0" arrivalPos="4.21" arrivalSpeed="11.01" duration="26.00" routeLength="132.39" waitingTime="0.00" waitingCount="0" stopTime="0.00" timeLoss="17.39" rerouteNo="0" devices="tripinfo_flow_route_2_duration_20250327_1910.30" vType="car" speedFactor="1.03" vaporized=""/>
    <tripinfo id="flow_route_2_duration_20250327_1910.33" depart="102.00" departLane="1318793173#0_0" departPos="96.57" departSpeed="0.00" departDelay="81.18" arrival="121.00" arrivalLane="189835257_0" arrivalPos="32.39" arrivalSpeed="12.37" duration="19.00" routeLength="115.76" waitingTime="0.00" waitingCount="0" stopTime="0.00" timeLoss="11.06" rerouteNo="0" devices="tripinfo_flow_route_2_duration_20250327_1910.33" vType="car" speedFactor="1.04" vaporized=""/>
    <tripinfo id="flow_route_2_duration_20250327_1910.31" depart="94.00" departLane="1318793173#0_0" departPos="41.60" departSpeed="0.00" departDelay="74.44" arrival="123.00" arrivalLane="189835257_0" arrivalPos="18.53" arrivalSpeed="12.46" duration="29.00" routeLength="156.87" waitingTime="0.00" waitingCount="0" stopTime="0.00" timeLoss="18.12" rerouteNo="0" devices="tripinfo_flow_route_2_duration_20250327_1910.31" vType="car" speedFactor="0.96" vaporized=""/>
    <tripinfo id="flow_route_16_duration_20250327_1910.3" depart="23.00" departLane="137406408#0_0" departPos="2.20" departSpeed="0.00" departDelay="0.50" arrival="123.00" arrivalLane="133126040#0_1" arrivalPos="39.50" arrivalSpeed="10.21" duration="100.00" routeLength="158.49" waitingTime="71.00" waitingCount="1" stopTime="0.00" timeLoss="89.04" rerouteNo="0" devices="tripinfo_flow_route_16_duration_20250327_1910.3" vType="car" speedFactor="0.88" vaporized=""/>
    <tripinfo id="flow_route_2_duration_20250327_1910.28" depart="88.00" departLane="1318793173#0_0" departPos="4.27" departSpeed="0.00" departDelay="70.33" arrival="124.00" arrivalLane="189835257_0" arrivalPos="10.91" arrivalSpeed="12.22" duration="36.00" routeLength="186.58" waitingTime="0.00" waitingCount="0" stopTime="0.00" timeLoss="24.14" rerouteNo="0" devices="tripinfo_flow_route_2_duration_20250327_1910.28" vType="car" speedFactor="1.10" vaporized=""/>
    <tripinfo id="flow_route_3_duration_20250327_1910.1" depart="68.00" departLane="1318793173#0_0" departPos="101.81" departSpeed="0.00" departDelay="53.00" arrival="125.00" arrivalLane="291974733#0_1" arrivalPos="60.12" arrivalSpeed="12.13" duration="57.00" routeLength="95.27" waitingTime="37.00" waitingCount="1" stopTime="0.00" timeLoss="50.83" rerouteNo="0" devices="tripinfo_flow_route_3_duration_20250327_1910.1" vType="car" speedFactor="1.01" vaporized=""/>
    <tripinfo id="flow_route_16_duration_20250327_1910.7" depart="53.00" departLane="137406408#0_0" departPos="22.01" departSpeed="0.00" departDelay="0.50" arrival="126.00" arrivalLane="133126040#0_1" arrivalPos="50.38" arrivalSpeed="11.90" duration="73.00" routeLength="149.57" waitingTime="43.00" waitingCount="1" stopTime="0.00" timeLoss="62.57" rerouteNo="0" devices="tripinfo_flow_route_16_duration_20250327_1910.7" vType="car" speedFactor="0.89" vaporized=""/>
    <tripinfo id="flow_route_2_duration_20250327_1910.32" depart="97.00" departLane="1318793173#0_0" departPos="16.60" departSpeed="0.00" departDelay="76.81" arrival="127.00" arrivalLane="189835257_0" arrivalPos="22.29" arrivalSpeed="13.84" duration="30.00" routeLength="185.63" waitingTime="0.00" waitingCount="0" stopTime="0.00" timeLoss="17.73" rerouteNo="0" devices="tripinfo_flow_route_2_duration_20250327_1910.32" vType="car" speedFactor="1.04" vaporized=""/>
    <tripinfo id="flow_route_16_duration_20250327_1910.4" depart="31.00" departLane="137406408#0_0" departPos="62.33" departSpeed="0.00" departDelay="1.00" arrival="127.00" arrivalLane="133126040#0_0" arrivalPos="77.15" arrivalSpeed="13.23" duration="96.00" routeLength="136.00" waitingTime="69.00" waitingCount="1" stopTime="0.00" timeLoss="87.03" rerouteNo="0" devices="tripinfo_flow_route_16_duration_20250327_1910.4" vType="car" speedFactor="0.99" vaporized=""/>
    <tripinfo id="flow_route_16_duration_20250327_1910.5" depart="38.00" departLane="137406408#0_0" departPos="1.35" departSpeed="0.00" departDelay="0.50" arrival="129.00" arrivalLane="133126040#0_2" arrivalPos="102.19" arrivalSpeed="14.03" duration="91.00" routeLength="222.03" waitingTime="55.00" waitingCount="1" stopTime="0.00" timeLoss="76.75" rerouteNo="0" devices="tripinfo_flow_route_16_duration_20250327_1910.5" vType="car" speedFactor="0.98" vaporized=""/>
    <tripinfo id="flow_route_2_duration_20250327_1910.37" depart="110.00" departLane="1318793173#0_0" departPos="62.30" departSpeed="0.00" departDelay="86.65" arrival="130.00" arrivalLane="189835257_0" arrivalPos="15.94" arrivalSpeed="13.62" duration="20.00" routeLength="133.58" waitingTime="0.00" waitingCount="0" stopTime="0.00" timeLoss="8.90" rerouteNo="0" devices="tripinfo_flow_route_2_duration_20250327_1910.37" vType="car" speedFactor="0.85" vaporized=""/>
    <tripinfo id="flow_route_16_duration_20250327_1910.6" depart="45.00" departLane="137406408#0_0" departPos="77.87" departSpeed="0.00" departDelay="0.00" arrival="130.00" arrivalLane="133126040#0_0" arrivalPos="84.80" arrivalSpeed="13.65" duration="85.00" routeLength="128.12" waitingTime="61.00" waitingCount="1" stopTime="0.00" timeLoss="75.47" rerouteNo="0" devices="tripinfo_flow_route_16_duration_20250327_1910.6" vType="car" speedFactor="0.89" vaporized=""/>
    <tripinfo id="flow_route_2_duration_20250327_1910.35" depart="106.00" departLane="1318793173#0_0" departPos="38.58" departSpeed="0.00" departDelay="83.92" arrival="132.00" arrivalLane="189835257_0" arrivalPos="30.81" arrivalSpeed="13.80" duration="26.00" routeLength="172.16" waitingTime="0.00" waitingCount="0" stopTime="0.00" timeLoss="14.82" rerouteNo="0" devices="tripinfo_flow_route_2_duration_20250327_1910.35" vType="car" speedFactor="1.00" vaporized=""/>
    <tripinfo id="flow_route_2_duration_20250327_1910.34" depart="103.00" departLane="1318793173#0_0" departPos="5.24" departSpeed="0.00" departDelay="81.55" arrival="134.00" arrivalLane="189835257_0" arrivalPos="27.01" arrivalSpeed="14.90" duration="31.00" routeLength="201.70" waitingTime="0.00" waitingCount="0" stopTime="0.00" timeLoss="17.60" rerouteNo="0" devices="tripinfo_flow_route_2_duration_20250327_1910.34" vType="car" speedFactor="1.09" vaporized=""/>
    <tripinfo id="flow_route_2_duration_20250327_1910.41" depart="125.00" departLane="1318793173#0_0" departPos="98.08" departSpeed="0.00" departDelay="99.13" arrival="142.00" arrivalLane="189835257_0" arrivalPos="22.39" arrivalSpeed="13.21" duration="17.00" routeLength="104.25" waitingTime="0.00" waitingCount="0" stopTime="0.00" timeLoss="9.38" rerouteNo="0" devices="tripinfo_flow_route_2_duration_20250327_1910.41" vType="car" speedFactor="1.10" vaporized=""/>
    <tripinfo id="flow_route_2_duration_20250327_1910.40" depart="122.00" departLane="1318793173#0_0" departPos="74.92" departSpeed="0.00" departDelay="96.76" arrival="144.00" arrivalLane="189835257_0" arrivalPos="25.94" arrivalSpeed="13.51" duration="22.00" routeLength="130.96" waitingTime="0.00" waitingCount="0" stopTime="0.00" timeLoss="13.04" rerouteNo="0" devices="tripinfo_flow_route_2_duration_20250327_1910.40" vType="car" speedFactor="1.02" vaporized=""/>
    <tripinfo id="flow_route_2_duration_20250327_1910.38" depart="112.00" departLane="1318793173#0_0" departPos="19.85" departSpeed="0.00" departDelay="88.02" arrival="146.00" arrivalLane="189835257_0" arrivalPos="5.51" arrivalSpeed="12.20" duration="34.00" routeLength="165.60" waitingTime="0.00" waitingCount="0" stopTime="0.00" timeLoss="21.55" rerouteNo="0" devices="tripinfo_flow_route_2_duration_20250327_1910.38" vType="car" speedFactor="0.85" vaporized=""/>
    <tripinfo id="flow_route_2_duration_20250327_1910.39" depart="118.00" departLane="1318793173#0_0" departPos="54.72" departSpeed="0.00" departDelay="93.39" arrival="147.00" arrivalLane="189835257_0" arrivalPos="32.92" arrivalSpeed="13.92" duration="29.00" routeLength="158.15" waitingTime="0.00" waitingCount="0" stopTime="0.00" timeLoss="18.37" rerouteNo="0" devices="tripinfo_flow_route_2_duration_20250327_1910.39" vType="car" speedFactor="1.17" vaporized=""/>
    <tripinfo id="flow_route_2_duration_20250327_1910.36" depart="110.00" departLane="1318793173#0_0" departPos="2.88" departSpeed="0.00" departDelay="87.28" arrival="149.00" arrivalLane="189835257_0" arrivalPos="21.97" arrivalSpeed="13.58" duration="39.00" routeLength="199.03" waitingTime="0.00" waitingCount="0" stopTime="0.00" timeLoss="24.88" rerouteNo="0" devices="tripinfo_flow_route_2_duration_20250327_1910.36" vType="car" speedFactor="0.90" vaporized=""/>
    <tripinfo id="flow_route_2_duration_20250327_1910.43" depart="127.00" departLane="1318793173#0_0" departPos="46.23" departSpeed="0.00" departDelay="99.87" arrival="151.00" arrivalLane="189835257_0" arrivalPos="30.21" arrivalSpeed="14.10" duration="24.00" routeLength="163.92" waitingTime="0.00" waitingCount="0" stopTime="0.00" timeLoss="13.48" rerouteNo="0" devices="tripinfo_flow_route_2_duration_20250327_1910.43" vType="car" speedFactor="1.00" vaporized=""/>
    <tripinfo id="flow_route_2_duration_20250327_1910.42" depart="127.00" departLane="1318793173#0_0" departPos="1.77" departSpeed="0.00" departDelay="100.50" arrival="155.00" arrivalLane="189835257_0" arrivalPos="24.00" arrivalSpeed="14.39" duration="28.00" routeLength="202.17" waitingTime="0.00" waitingCount="0" stopTime="0.00" timeLoss="14.52" rerouteNo="0" devices="tripinfo_flow_route_2_duration_20250327_1910.42" vType="car" speedFactor="1.00" vaporized=""/>