<?xml version="1.0" encoding="UTF-8"?>

<!-- generated on 2025-05-06 21:09:13 by Eclipse SUMO sumo Version 1.20.0
<configuration xmlns:xsi="http://www.w3.org/2001/XMLSchema-instance" xsi:noNamespaceSchemaLocation="http://sumo.dlr.de/xsd/sumoConfiguration.xsd">

    <input>
        <net-file value="osm.net.xml"/>
        <route-files value="xml/route_rl_11644940310_9.rou.xml"/>
    </input>

    <output>
        <tripinfo-output value="xml/tripinfo_rl_11644940310_9.xml"/>
    </output>

    <traci_server>
        <remote-port value="57317"/>
    </traci_server>

</configuration>
-->

<tripinfos xmlns:xsi="http://www.w3.org/2001/XMLSchema-instance" xsi:noNamespaceSchemaLocation="http://sumo.dlr.de/xsd/tripinfo_file.xsd">
    <tripinfo id="flow_route_27_duration_20250327_2130.1" depart="5.00" departLane="1254771874#0_0" departPos="223.82" departSpeed="0.00" departDelay="0.39" arrival="17.00" arrivalLane="138002006#0_1" arrivalPos="5.35" arrivalSpeed="7.68" duration="12.00" routeLength="53.42" waitingTime="0.00" waitingCount="0" stopTime="0.00" timeLoss="7.23" rerouteNo="0" devices="tripinfo_flow_route_27_duration_20250327_2130.1" vType="car" speedFactor="0.89" vaporized=""/>
    <tripinfo id="flow_route_27_duration_20250327_2130.0" depart="0.00" departLane="1254771874#0_0" departPos="190.47" departSpeed="0.00" departDelay="0.00" arrival="22.00" arrivalLane="138002006#0_1" arrivalPos="4.04" arrivalSpeed="8.73" duration="22.00" routeLength="85.46" waitingTime="0.00" waitingCount="0" stopTime="0.00" timeLoss="15.54" rerouteNo="0" devices="tripinfo_flow_route_27_duration_20250327_2130.0" vType="car" speedFactor="1.01" vaporized=""/>
    <tripinfo id="flow_route_25_duration_20250327_2130.0" depart="0.00" departLane="1254771874#0_0" departPos="63.27" departSpeed="0.00" departDelay="0.00" arrival="34.00" arrivalLane="1341093415#0_0" arrivalPos="158.81" arrivalSpeed="16.47" duration="34.00" routeLength="373.33" waitingTime="0.00" waitingCount="0" stopTime="0.00" timeLoss="11.22" rerouteNo="0" devices="tripinfo_flow_route_25_duration_20250327_2130.0" vType="car" speedFactor="1.06" vaporized=""/>
    <tripinfo id="flow_route_26_duration_20250327_2130.0" depart="0.00" departLane="1254771874#0_0" departPos="139.38" departSpeed="0.00" departDelay="0.00" arrival="38.00" arrivalLane="-422986370#2_0" arrivalPos="213.43" arrivalSpeed="15.21" duration="38.00" routeLength="338.64" waitingTime="0.00" waitingCount="0" stopTime="0.00" timeLoss="15.17" rerouteNo="0" devices="tripinfo_flow_route_26_duration_20250327_2130.0" vType="car" speedFactor="0.94" vaporized=""/>
    <tripinfo id="flow_route_50_duration_20250327_2130.0" depart="0.00" departLane="-138002006#3_0" departPos="41.39" departSpeed="0.00" departDelay="0.00" arrival="47.00" arrivalLane="-422986370#2_0" arrivalPos="13.06" arrivalSpeed="7.33" duration="47.00" routeLength="82.72" waitingTime="25.00" waitingCount="1" stopTime="0.00" timeLoss="40.74" rerouteNo="0" devices="tripinfo_flow_route_50_duration_20250327_2130.0" vType="car" speedFactor="0.83" vaporized=""/>
    <tripinfo id="flow_route_41_duration_20250327_2130.0" depart="0.00" departLane="1369578054_0" departPos="201.66" departSpeed="0.00" departDelay="0.00" arrival="51.00" arrivalLane="138002006#0_0" arrivalPos="52.37" arrivalSpeed="11.13" duration="51.00" routeLength="172.64" waitingTime="20.00" waitingCount="1" stopTime="0.00" timeLoss="40.26" rerouteNo="0" devices="tripinfo_flow_route_41_duration_20250327_2130.0" vType="car" speedFactor="1.03" vaporized=""/>
    <tripinfo id="flow_route_41_duration_20250327_2130.1" depart="15.00" departLane="1369578054_0" departPos="281.37" departSpeed="0.00" departDelay="0.00" arrival="52.00" arrivalLane="138002006#0_0" arrivalPos="56.23" arrivalSpeed="10.91" duration="37.00" routeLength="96.79" waitingTime="13.00" waitingCount="1" stopTime="0.00" timeLoss="30.76" rerouteNo="0" devices="tripinfo_flow_route_41_duration_20250327_2130.1" vType="car" speedFactor="1.09" vaporized=""/>
    <tripinfo id="flow_route_50_duration_20250327_2130.1" depart="30.00" departLane="-138002006#3_0" departPos="60.82" departSpeed="0.00" departDelay="0.00" arrival="53.00" arrivalLane="-422986370#2_0" arrivalPos="47.66" arrivalSpeed="11.11" duration="23.00" routeLength="97.88" waitingTime="0.00" waitingCount="0" stopTime="0.00" timeLoss="16.18" rerouteNo="0" devices="tripinfo_flow_route_50_duration_20250327_2130.1" vType="car" speedFactor="0.93" vaporized=""/>
    <tripinfo id="flow_route_40_duration_20250327_2130.0" depart="0.00" departLane="1369578054_0" departPos="1.81" departSpeed="0.00" departDelay="0.00" arrival="55.00" arrivalLane="1341093415#0_0" arrivalPos="87.60" arrivalSpeed="12.72" duration="55.00" routeLength="396.71" waitingTime="8.00" waitingCount="1" stopTime="0.00" timeLoss="30.22" rerouteNo="0" devices="tripinfo_flow_route_40_duration_20250327_2130.0" vType="car" speedFactor="1.08" vaporized=""/>
    <tripinfo id="flow_route_41_duration_20250327_2130.2" depart="30.00" departLane="1369578054_0" departPos="8.94" departSpeed="0.00" departDelay="0.00" arrival="65.00" arrivalLane="138002006#0_1" arrivalPos="67.86" arrivalSpeed="16.04" duration="35.00" routeLength="380.86" waitingTime="0.00" waitingCount="0" stopTime="0.00" timeLoss="11.82" rerouteNo="0" devices="tripinfo_flow_route_41_duration_20250327_2130.2" vType="car" speedFactor="0.99" vaporized=""/>
    <tripinfo id="flow_route_51_duration_20250327_2130.0" depart="2.00" departLane="-138002006#3_0" departPos="23.48" departSpeed="0.00" departDelay="2.00" arrival="66.00" arrivalLane="1341093415#0_3" arrivalPos="132.48" arrivalSpeed="15.25" duration="64.00" routeLength="212.67" waitingTime="28.00" waitingCount="2" stopTime="0.00" timeLoss="49.68" rerouteNo="0" devices="tripinfo_flow_route_51_duration_20250327_2130.0" vType="car" speedFactor="1.05" vaporized=""/>
    <tripinfo id="flow_route_41_duration_20250327_2130.3" depart="45.00" departLane="1369578054_0" departPos="171.28" departSpeed="0.00" departDelay="0.00" arrival="67.00" arrivalLane="138002006#0_0" arrivalPos="14.91" arrivalSpeed="16.06" duration="22.00" routeLength="165.56" waitingTime="0.00" waitingCount="0" stopTime="0.00" timeLoss="11.09" rerouteNo="0" devices="tripinfo_flow_route_41_duration_20250327_2130.3" vType="car" speedFactor="1.02" vaporized=""/>
    <tripinfo id="flow_route_51_duration_20250327_2130.1" depart="30.00" departLane="-138002006#3_0" departPos="29.41" departSpeed="0.00" departDelay="0.00" arrival="70.00" arrivalLane="1341093415#0_3" arrivalPos="170.50" arrivalSpeed="16.11" duration="40.00" routeLength="244.77" waitingTime="3.00" waitingCount="1" stopTime="0.00" timeLoss="22.88" rerouteNo="0" devices="tripinfo_flow_route_51_duration_20250327_2130.1" vType="car" speedFactor="0.88" vaporized=""/>
    <tripinfo id="flow_route_27_duration_20250327_2130.3" depart="14.00" departLane="1254771874#0_0" departPos="78.49" departSpeed="0.00" departDelay="0.16" arrival="122.00" arrivalLane="138002006#0_1" arrivalPos="45.54" arrivalSpeed="9.62" duration="108.00" routeLength="238.93" waitingTime="71.00" waitingCount="1" stopTime="0.00" timeLoss="92.12" rerouteNo="0" devices="tripinfo_flow_route_27_duration_20250327_2130.3" vType="car" speedFactor="0.86" vaporized=""/>
    <tripinfo id="flow_route_27_duration_20250327_2130.2" depart="11.00" departLane="1254771874#0_0" departPos="11.81" departSpeed="0.00" departDelay="1.77" arrival="123.00" arrivalLane="138002006#0_1" arrivalPos="28.58" arrivalSpeed="8.79" duration="112.00" routeLength="288.66" waitingTime="70.00" waitingCount="1" stopTime="0.00" timeLoss="93.40" rerouteNo="0" devices="tripinfo_flow_route_27_duration_20250327_2130.2" vType="car" speedFactor="0.94" vaporized=""/>
    <tripinfo id="flow_route_27_duration_20250327_2130.8" depart="37.00" departLane="1254771874#0_0" departPos="246.56" departSpeed="0.00" departDelay="0.08" arrival="129.00" arrivalLane="138002006#0_1" arrivalPos="36.52" arrivalSpeed="9.63" duration="92.00" routeLength="61.85" waitingTime="74.00" waitingCount="2" stopTime="0.00" timeLoss="86.66" rerouteNo="0" devices="tripinfo_flow_route_27_duration_20250327_2130.8" vType="car" speedFactor="0.94" vaporized=""/>
    <tripinfo id="flow_route_27_duration_20250327_2130.6" depart="28.00" departLane="1254771874#0_0" departPos="77.14" departSpeed="0.00" departDelay="0.31" arrival="132.00" arrivalLane="138002006#0_1" arrivalPos="2.88" arrivalSpeed="7.75" duration="104.00" routeLength="197.63" waitingTime="64.00" waitingCount="1" stopTime="0.00" timeLoss="91.27" rerouteNo="0" devices="tripinfo_flow_route_27_duration_20250327_2130.6" vType="car" speedFactor="1.12" vaporized=""/>
    <tripinfo id="flow_route_27_duration_20250327_2130.4" depart="20.00" departLane="1254771874#0_0" departPos="101.37" departSpeed="0.00" departDelay="1.54" arrival="135.00" arrivalLane="138002006#0_1" arrivalPos="73.17" arrivalSpeed="12.07" duration="115.00" routeLength="243.69" waitingTime="70.00" waitingCount="2" stopTime="0.00" timeLoss="98.94" rerouteNo="0" devices="tripinfo_flow_route_27_duration_20250327_2130.4" vType="car" speedFactor="1.03" vaporized=""/>
    <tripinfo id="flow_route_27_duration_20250327_2130.5" depart="24.00" departLane="1254771874#0_0" departPos="60.51" departSpeed="0.00" departDelay="0.93" arrival="135.00" arrivalLane="138002006#0_1" arrivalPos="48.32" arrivalSpeed="11.24" duration="111.00" routeLength="259.70" waitingTime="66.00" waitingCount="1" stopTime="0.00" timeLoss="93.99" rerouteNo="0" devices="tripinfo_flow_route_27_duration_20250327_2130.5" vType="car" speedFactor="1.05" vaporized=""/>
    <tripinfo id="flow_route_27_duration_20250327_2130.10" depart="47.00" departLane="1254771874#0_0" departPos="207.49" departSpeed="0.00" departDelay="0.85" arrival="136.00" arrivalLane="138002006#0_1" arrivalPos="21.43" arrivalSpeed="9.32" duration="89.00" routeLength="85.83" waitingTime="62.00" waitingCount="1" stopTime="0.00" timeLoss="82.92" rerouteNo="0" devices="tripinfo_flow_route_27_duration_20250327_2130.10" vType="car" speedFactor="1.01" vaporized=""/>
    <tripinfo id="flow_route_27_duration_20250327_2130.7" depart="33.00" departLane="1254771874#0_0" departPos="32.05" departSpeed="0.00" departDelay="0.70" arrival="137.00" arrivalLane="138002006#0_1" arrivalPos="11.48" arrivalSpeed="9.37" duration="104.00" routeLength="251.32" waitingTime="60.00" waitingCount="1" stopTime="0.00" timeLoss="87.58" rerouteNo="0" devices="tripinfo_flow_route_27_duration_20250327_2130.7" vType="car" speedFactor="0.94" vaporized=""/>
    <tripinfo id="flow_route_27_duration_20250327_2130.11" depart="51.00" departLane="1254771874#0_0" departPos="170.79" departSpeed="0.00" departDelay="0.24" arrival="138.00" arrivalLane="138002006#0_1" arrivalPos="7.90" arrivalSpeed="9.29" duration="87.00" routeLength="109.01" waitingTime="55.00" waitingCount="1" stopTime="0.00" timeLoss="79.51" rerouteNo="0" devices="tripinfo_flow_route_27_duration_20250327_2130.11" vType="car" speedFactor="0.97" vaporized=""/>
    <tripinfo id="flow_route_27_duration_20250327_2130.9" depart="42.00" departLane="1254771874#0_0" departPos="57.04" departSpeed="0.00" departDelay="0.47" arrival="141.00" arrivalLane="138002006#0_1" arrivalPos="23.44" arrivalSpeed="11.27" duration="99.00" routeLength="238.29" waitingTime="54.00" waitingCount="1" stopTime="0.00" timeLoss="84.31" rerouteNo="0" devices="tripinfo_flow_route_27_duration_20250327_2130.9" vType="car" speedFactor="1.16" vaporized=""/>
    <tripinfo id="flow_route_27_duration_20250327_2130.12" depart="56.00" departLane="1254771874#0_0" departPos="152.41" departSpeed="0.00" departDelay="0.62" arrival="148.00" arrivalLane="138002006#0_1" arrivalPos="63.52" arrivalSpeed="12.99" duration="92.00" routeLength="183.00" waitingTime="53.00" waitingCount="1" stopTime="0.00" timeLoss="79.01" rerouteNo="0" devices="tripinfo_flow_route_27_duration_20250327_2130.12" vType="car" speedFactor="0.89" vaporized=""/>
</tripinfos>
