<?xml version="1.0" encoding="UTF-8"?>

<!-- generated on 2025-05-06 21:08:43 by Eclipse SUMO sumo Version 1.20.0
<configuration xmlns:xsi="http://www.w3.org/2001/XMLSchema-instance" xsi:noNamespaceSchemaLocation="http://sumo.dlr.de/xsd/sumoConfiguration.xsd">

    <input>
        <net-file value="osm.net.xml"/>
        <route-files value="xml/route_rl_cluster_356722183_3828703848_6.rou.xml"/>
    </input>

    <output>
        <tripinfo-output value="xml/tripinfo_rl_cluster_356722183_3828703848_6.xml"/>
    </output>

    <traci_server>
        <remote-port value="59061"/>
    </traci_server>

</configuration>
-->

<tripinfos xmlns:xsi="http://www.w3.org/2001/XMLSchema-instance" xsi:noNamespaceSchemaLocation="http://sumo.dlr.de/xsd/tripinfo_file.xsd">
    <tripinfo id="flow_route_18_duration_20250327_2220.0" depart="0.00" departLane="133126040#0_0" departPos="80.59" departSpeed="0.00" departDelay="0.00" arrival="13.00" arrivalLane="1318893695#0_0" arrivalPos="9.11" arrivalSpeed="10.19" duration="13.00" routeLength="59.37" waitingTime="0.00" waitingCount="0" stopTime="0.00" timeLoss="8.89" rerouteNo="0" devices="tripinfo_flow_route_18_duration_20250327_2220.0" vType="car" speedFactor="1.01" vaporized=""/>
    <tripinfo id="flow_route_0_duration_20250327_2220.1" depart="7.00" departLane="1318793176#1_0" departPos="0.35" departSpeed="0.00" departDelay="3.00" arrival="27.00" arrivalLane="133126031#0_0" arrivalPos="15.36" arrivalSpeed="11.79" duration="20.00" routeLength="135.44" waitingTime="0.00" waitingCount="0" stopTime="0.00" timeLoss="10.27" rerouteNo="0" devices="tripinfo_flow_route_0_duration_20250327_2220.1" vType="car" speedFactor="0.89" vaporized=""/>
    <tripinfo id="flow_route_1_duration_20250327_2220.0" depart="5.00" departLane="1318793176#1_0" departPos="6.77" departSpeed="0.00" departDelay="5.00" arrival="28.00" arrivalLane="1318793173#0_1" arrivalPos="77.00" arrivalSpeed="15.26" duration="23.00" routeLength="194.13" waitingTime="0.00" waitingCount="0" stopTime="0.00" timeLoss="10.43" rerouteNo="0" devices="tripinfo_flow_route_1_duration_20250327_2220.0" vType="car" speedFactor="0.94" vaporized=""/>
    <tripinfo id="flow_route_0_duration_20250327_2220.0" depart="0.00" departLane="1318793176#1_0" departPos="2.64" departSpeed="0.00" departDelay="0.00" arrival="36.00" arrivalLane="133126031#0_0" arrivalPos="296.30" arrivalSpeed="16.38" duration="36.00" routeLength="414.08" waitingTime="0.00" waitingCount="0" stopTime="0.00" timeLoss="10.43" rerouteNo="0" devices="tripinfo_flow_route_0_duration_20250327_2220.0" vType="car" speedFactor="1.06" vaporized=""/>
    <tripinfo id="flow_route_19_duration_20250327_2220.1" depart="8.00" departLane="133126040#0_0" departPos="74.10" departSpeed="0.00" departDelay="0.50" arrival="36.00" arrivalLane="133126031#0_1" arrivalPos="52.91" arrivalSpeed="9.96" duration="28.00" routeLength="107.68" waitingTime="5.00" waitingCount="1" stopTime="0.00" timeLoss="20.07" rerouteNo="0" devices="tripinfo_flow_route_19_duration_20250327_2220.1" vType="car" speedFactor="1.09" vaporized=""/>
    <tripinfo id="flow_route_0_duration_20250327_2220.3" depart="17.00" departLane="1318793176#1_0" departPos="1.80" departSpeed="0.00" departDelay="5.00" arrival="38.00" arrivalLane="133126031#0_0" arrivalPos="55.85" arrivalSpeed="15.06" duration="21.00" routeLength="174.47" waitingTime="0.00" waitingCount="0" stopTime="0.00" timeLoss="10.19" rerouteNo="0" devices="tripinfo_flow_route_0_duration_20250327_2220.3" vType="car" speedFactor="1.05" vaporized=""/>
    <tripinfo id="flow_route_19_duration_20250327_2220.3" depart="23.00" departLane="133126040#0_0" departPos="38.06" departSpeed="0.00" departDelay="0.50" arrival="47.00" arrivalLane="133126031#0_1" arrivalPos="60.08" arrivalSpeed="12.24" duration="24.00" routeLength="150.89" waitingTime="0.00" waitingCount="0" stopTime="0.00" timeLoss="13.27" rerouteNo="0" devices="tripinfo_flow_route_19_duration_20250327_2220.3" vType="car" speedFactor="1.02" vaporized=""/>
    <tripinfo id="flow_route_0_duration_20250327_2220.2" depart="12.00" departLane="1318793176#1_0" departPos="2.58" departSpeed="0.00" departDelay="4.00" arrival="48.00" arrivalLane="133126031#0_0" arrivalPos="254.24" arrivalSpeed="16.36" duration="36.00" routeLength="372.08" waitingTime="0.00" waitingCount="0" stopTime="0.00" timeLoss="11.49" rerouteNo="0" devices="tripinfo_flow_route_0_duration_20250327_2220.2" vType="car" speedFactor="0.86" vaporized=""/>
    <tripinfo id="flow_route_0_duration_20250327_2220.4" depart="22.00" departLane="1318793176#1_0" departPos="0.92" departSpeed="0.00" departDelay="6.00" arrival="48.00" arrivalLane="133126031#0_0" arrivalPos="102.35" arrivalSpeed="16.34" duration="26.00" routeLength="221.86" waitingTime="0.00" waitingCount="0" stopTime="0.00" timeLoss="11.35" rerouteNo="0" devices="tripinfo_flow_route_0_duration_20250327_2220.4" vType="car" speedFactor="0.99" vaporized=""/>
    <tripinfo id="flow_route_19_duration_20250327_2220.0" depart="0.00" departLane="133126040#0_0" departPos="0.65" departSpeed="0.00" departDelay="0.00" arrival="49.00" arrivalLane="133126031#0_1" arrivalPos="163.43" arrivalSpeed="16.18" duration="49.00" routeLength="291.65" waitingTime="0.00" waitingCount="0" stopTime="0.00" timeLoss="30.17" rerouteNo="0" devices="tripinfo_flow_route_19_duration_20250327_2220.0" vType="car" speedFactor="1.08" vaporized=""/>
    <tripinfo id="flow_route_19_duration_20250327_2220.2" depart="15.00" departLane="133126040#0_0" departPos="103.83" departSpeed="0.00" departDelay="0.00" arrival="51.00" arrivalLane="133126031#0_1" arrivalPos="229.99" arrivalSpeed="16.29" duration="36.00" routeLength="255.04" waitingTime="8.00" waitingCount="1" stopTime="0.00" timeLoss="19.21" rerouteNo="0" devices="tripinfo_flow_route_19_duration_20250327_2220.2" vType="car" speedFactor="1.12" vaporized=""/>
    <tripinfo id="flow_route_0_duration_20250327_2220.5" depart="29.00" departLane="1318793176#1_0" departPos="1.12" departSpeed="0.00" departDelay="9.00" arrival="56.00" arrivalLane="133126031#0_0" arrivalPos="92.73" arrivalSpeed="15.35" duration="27.00" routeLength="212.03" waitingTime="0.00" waitingCount="0" stopTime="0.00" timeLoss="12.28" rerouteNo="0" devices="tripinfo_flow_route_0_duration_20250327_2220.5" vType="car" speedFactor="0.88" vaporized=""/>
    <tripinfo id="flow_route_0_duration_20250327_2220.6" depart="35.00" departLane="1318793176#1_0" departPos="1.08" departSpeed="0.00" departDelay="11.00" arrival="59.00" arrivalLane="133126031#0_0" arrivalPos="96.45" arrivalSpeed="16.12" duration="24.00" routeLength="215.79" waitingTime="0.00" waitingCount="0" stopTime="0.00" timeLoss="9.74" rerouteNo="0" devices="tripinfo_flow_route_0_duration_20250327_2220.6" vType="car" speedFactor="1.01" vaporized=""/>
    <tripinfo id="flow_route_19_duration_20250327_2220.4" depart="30.00" departLane="133126040#0_0" departPos="49.30" departSpeed="0.00" departDelay="0.00" arrival="60.00" arrivalLane="133126031#0_1" arrivalPos="163.84" arrivalSpeed="16.54" duration="30.00" routeLength="243.41" waitingTime="0.00" waitingCount="0" stopTime="0.00" timeLoss="12.41" rerouteNo="0" devices="tripinfo_flow_route_19_duration_20250327_2220.4" vType="car" speedFactor="0.83" vaporized=""/>
    <tripinfo id="flow_route_19_duration_20250327_2220.6" depart="45.00" departLane="133126040#0_0" departPos="102.19" departSpeed="0.00" departDelay="0.00" arrival="61.00" arrivalLane="133126031#0_1" arrivalPos="34.21" arrivalSpeed="9.45" duration="16.00" routeLength="60.89" waitingTime="2.00" waitingCount="1" stopTime="0.00" timeLoss="11.01" rerouteNo="0" devices="tripinfo_flow_route_19_duration_20250327_2220.6" vType="car" speedFactor="1.02" vaporized=""/>
    <tripinfo id="flow_route_19_duration_20250327_2220.7" depart="53.00" departLane="133126040#0_0" departPos="98.33" departSpeed="0.00" departDelay="0.50" arrival="62.00" arrivalLane="133126031#0_1" arrivalPos="3.88" arrivalSpeed="6.39" duration="9.00" routeLength="34.42" waitingTime="0.00" waitingCount="0" stopTime="0.00" timeLoss="5.44" rerouteNo="0" devices="tripinfo_flow_route_19_duration_20250327_2220.7" vType="car" speedFactor="0.90" vaporized=""/>
    <tripinfo id="flow_route_0_duration_20250327_2220.7" depart="40.00" departLane="1318793176#1_0" departPos="7.21" departSpeed="0.00" departDelay="12.00" arrival="67.00" arrivalLane="133126031#0_0" arrivalPos="138.73" arrivalSpeed="16.49" duration="27.00" routeLength="251.94" waitingTime="0.00" waitingCount="0" stopTime="0.00" timeLoss="11.05" rerouteNo="0" devices="tripinfo_flow_route_0_duration_20250327_2220.7" vType="car" speedFactor="0.97" vaporized=""/>
    <tripinfo id="flow_route_19_duration_20250327_2220.5" depart="38.00" departLane="133126040#0_0" departPos="77.15" departSpeed="0.00" departDelay="0.50" arrival="69.00" arrivalLane="133126031#0_1" arrivalPos="236.85" arrivalSpeed="16.24" duration="31.00" routeLength="288.57" waitingTime="0.00" waitingCount="0" stopTime="0.00" timeLoss="12.77" rerouteNo="0" devices="tripinfo_flow_route_19_duration_20250327_2220.5" vType="car" speedFactor="1.13" vaporized=""/>
    <tripinfo id="flow_route_0_duration_20250327_2220.8" depart="45.00" departLane="1318793176#1_0" departPos="9.15" departSpeed="0.00" departDelay="13.00" arrival="78.00" arrivalLane="133126031#0_0" arrivalPos="190.77" arrivalSpeed="16.26" duration="33.00" routeLength="302.04" waitingTime="1.00" waitingCount="1" stopTime="0.00" timeLoss="12.70" rerouteNo="0" devices="tripinfo_flow_route_0_duration_20250327_2220.8" vType="car" speedFactor="0.87" vaporized=""/>
    <tripinfo id="flow_route_0_duration_20250327_2220.9" depart="50.00" departLane="1318793176#1_0" departPos="3.69" departSpeed="0.00" departDelay="14.00" arrival="82.00" arrivalLane="133126031#0_0" arrivalPos="220.09" arrivalSpeed="16.18" duration="32.00" routeLength="336.81" waitingTime="0.00" waitingCount="0" stopTime="0.00" timeLoss="10.30" rerouteNo="0" devices="tripinfo_flow_route_0_duration_20250327_2220.9" vType="car" speedFactor="0.95" vaporized=""/>
    <tripinfo id="flow_route_0_duration_20250327_2220.10" depart="54.00" departLane="1318793176#1_0" departPos="4.40" departSpeed="0.00" departDelay="14.00" arrival="82.00" arrivalLane="133126031#0_0" arrivalPos="159.63" arrivalSpeed="16.50" duration="28.00" routeLength="275.65" waitingTime="1.00" waitingCount="1" stopTime="0.00" timeLoss="11.13" rerouteNo="0" devices="tripinfo_flow_route_0_duration_20250327_2220.10" vType="car" speedFactor="1.18" vaporized=""/>
    <tripinfo id="flow_route_48_duration_20250327_2220.0" depart="2.00" departLane="380351865#0_0" departPos="1.03" departSpeed="0.00" departDelay="2.00" arrival="84.00" arrivalLane="133126031#0_0" arrivalPos="14.50" arrivalSpeed="8.00" duration="82.00" routeLength="180.64" waitingTime="49.00" waitingCount="1" stopTime="0.00" timeLoss="64.30" rerouteNo="0" devices="tripinfo_flow_route_48_duration_20250327_2220.0" vType="car" speedFactor="0.83" vaporized=""/>
    <tripinfo id="flow_route_47_duration_20250327_2220.0" depart="0.00" departLane="380351865#0_0" departPos="11.49" departSpeed="0.00" departDelay="0.00" arrival="89.00" arrivalLane="1318793173#0_1" arrivalPos="63.76" arrivalSpeed="11.62" duration="89.00" routeLength="213.71" waitingTime="54.00" waitingCount="1" stopTime="0.00" timeLoss="72.16" rerouteNo="0" devices="tripinfo_flow_route_47_duration_20250327_2220.0" vType="car" speedFactor="1.03" vaporized=""/>
    <tripinfo id="flow_route_49_duration_20250327_2220.0" depart="7.00" departLane="380351865#0_0" departPos="4.04" departSpeed="0.00" departDelay="7.00" arrival="95.00" arrivalLane="1318893695#0_0" arrivalPos="148.83" arrivalSpeed="15.20" duration="88.00" routeLength="288.67" waitingTime="47.00" waitingCount="1" stopTime="0.00" timeLoss="66.28" rerouteNo="0" devices="tripinfo_flow_route_49_duration_20250327_2220.0" vType="car" speedFactor="1.05" vaporized=""/>
    <tripinfo id="flow_route_0_duration_20250327_2220.11" depart="64.00" departLane="1318793176#1_0" departPos="4.75" departSpeed="0.00" departDelay="20.00" arrival="96.00" arrivalLane="133126031#0_0" arrivalPos="92.21" arrivalSpeed="13.61" duration="32.00" routeLength="207.88" waitingTime="0.00" waitingCount="0" stopTime="0.00" timeLoss="18.53" rerouteNo="0" devices="tripinfo_flow_route_0_duration_20250327_2220.11" vType="car" speedFactor="1.17" vaporized=""/>
    <tripinfo id="flow_route_47_duration_20250327_2220.1" depart="23.00" departLane="380351865#0_0" departPos="1.37" departSpeed="0.00" departDelay="3.00" arrival="97.00" arrivalLane="1318793173#0_1" arrivalPos="100.30" arrivalSpeed="14.43" duration="74.00" routeLength="260.37" waitingTime="34.00" waitingCount="1" stopTime="0.00" timeLoss="52.33" rerouteNo="0" devices="tripinfo_flow_route_47_duration_20250327_2220.1" vType="car" speedFactor="0.94" vaporized=""/>
    <tripinfo id="flow_route_47_duration_20250327_2220.2" depart="44.00" departLane="380351865#0_0" departPos="10.12" departSpeed="0.00" departDelay="4.00" arrival="97.00" arrivalLane="1318793173#0_1" arrivalPos="42.22" arrivalSpeed="12.40" duration="53.00" routeLength="193.54" waitingTime="16.00" waitingCount="1" stopTime="0.00" timeLoss="36.77" rerouteNo="0" devices="tripinfo_flow_route_47_duration_20250327_2220.2" vType="car" speedFactor="1.01" vaporized=""/>
    <tripinfo id="flow_route_48_duration_20250327_2220.7" depart="39.00" departLane="380351865#0_0" departPos="6.34" departSpeed="0.00" departDelay="0.82" arrival="99.00" arrivalLane="133126031#0_0" arrivalPos="46.94" arrivalSpeed="11.53" duration="60.00" routeLength="207.77" waitingTime="22.00" waitingCount="1" stopTime="0.00" timeLoss="42.55" rerouteNo="0" devices="tripinfo_flow_route_48_duration_20250327_2220.7" vType="car" speedFactor="0.93" vaporized=""/>
    <tripinfo id="flow_route_48_duration_20250327_2220.4" depart="28.00" departLane="380351865#0_0" departPos="0.41" departSpeed="0.00" departDelay="6.18" arrival="100.00" arrivalLane="133126031#0_1" arrivalPos="112.74" arrivalSpeed="16.20" duration="72.00" routeLength="279.50" waitingTime="32.00" waitingCount="1" stopTime="0.00" timeLoss="52.48" rerouteNo="0" devices="tripinfo_flow_route_48_duration_20250327_2220.4" vType="car" speedFactor="1.16" vaporized=""/>
    <tripinfo id="flow_route_48_duration_20250327_2220.9" depart="51.00" departLane="380351865#0_0" departPos="0.01" departSpeed="0.00" departDelay="1.91" arrival="100.00" arrivalLane="133126031#0_1" arrivalPos="55.70" arrivalSpeed="13.66" duration="49.00" routeLength="222.86" waitingTime="12.00" waitingCount="1" stopTime="0.00" timeLoss="32.93" rerouteNo="0" devices="tripinfo_flow_route_48_duration_20250327_2220.9" vType="car" speedFactor="1.18" vaporized=""/>
    <tripinfo id="flow_route_48_duration_20250327_2220.3" depart="18.00" departLane="380351865#0_0" departPos="2.59" departSpeed="0.00" departDelay="1.64" arrival="101.00" arrivalLane="133126031#0_1" arrivalPos="192.90" arrivalSpeed="16.27" duration="83.00" routeLength="357.48" waitingTime="36.00" waitingCount="1" stopTime="0.00" timeLoss="56.09" rerouteNo="0" devices="tripinfo_flow_route_48_duration_20250327_2220.3" vType="car" speedFactor="0.93" vaporized=""/>
    <tripinfo id="flow_route_48_duration_20250327_2220.5" depart="30.00" departLane="380351865#0_0" departPos="12.13" departSpeed="0.00" departDelay="2.73" arrival="101.00" arrivalLane="133126031#0_0" arrivalPos="121.44" arrivalSpeed="15.00" duration="71.00" routeLength="276.48" waitingTime="28.00" waitingCount="1" stopTime="0.00" timeLoss="48.95" rerouteNo="0" devices="tripinfo_flow_route_48_duration_20250327_2220.5" vType="car" speedFactor="0.89" vaporized=""/>
    <tripinfo id="flow_route_48_duration_20250327_2220.6" depart="33.00" departLane="380351865#0_0" departPos="5.85" departSpeed="0.00" departDelay="0.28" arrival="101.00" arrivalLane="133126031#0_0" arrivalPos="98.54" arrivalSpeed="14.16" duration="68.00" routeLength="259.86" waitingTime="27.00" waitingCount="1" stopTime="0.00" timeLoss="47.24" rerouteNo="0" devices="tripinfo_flow_route_48_duration_20250327_2220.6" vType="car" speedFactor="0.92" vaporized=""/>
    <tripinfo id="flow_route_48_duration_20250327_2220.2" depart="13.00" departLane="380351865#0_0" departPos="11.40" departSpeed="0.00" departDelay="2.09" arrival="107.00" arrivalLane="133126031#0_0" arrivalPos="320.76" arrivalSpeed="16.26" duration="94.00" routeLength="476.52" waitingTime="41.00" waitingCount="1" stopTime="0.00" timeLoss="61.52" rerouteNo="0" devices="tripinfo_flow_route_48_duration_20250327_2220.2" vType="car" speedFactor="1.03" vaporized=""/>
    <tripinfo id="flow_route_48_duration_20250327_2220.8" depart="46.00" departLane="380351865#0_0" departPos="0.25" departSpeed="0.00" departDelay="2.37" arrival="107.00" arrivalLane="133126031#0_0" arrivalPos="126.19" arrivalSpeed="16.31" duration="61.00" routeLength="293.11" waitingTime="16.00" waitingCount="1" stopTime="0.00" timeLoss="38.49" rerouteNo="0" devices="tripinfo_flow_route_48_duration_20250327_2220.8" vType="car" speedFactor="0.99" vaporized=""/>
    <tripinfo id="flow_route_48_duration_20250327_2220.1" depart="13.00" departLane="380351865#0_0" departPos="1.52" departSpeed="0.00" departDelay="7.55" arrival="110.00" arrivalLane="133126031#0_0" arrivalPos="295.18" arrivalSpeed="16.42" duration="97.00" routeLength="460.83" waitingTime="41.00" waitingCount="1" stopTime="0.00" timeLoss="64.30" rerouteNo="0" devices="tripinfo_flow_route_48_duration_20250327_2220.1" vType="car" speedFactor="0.94" vaporized=""/>
    <tripinfo id="flow_route_48_duration_20250327_2220.10" depart="57.00" departLane="380351865#0_0" departPos="7.90" departSpeed="0.00" departDelay="2.46" arrival="116.00" arrivalLane="133126031#0_1" arrivalPos="283.10" arrivalSpeed="16.60" duration="59.00" routeLength="442.37" waitingTime="8.00" waitingCount="1" stopTime="0.00" timeLoss="28.41" rerouteNo="0" devices="tripinfo_flow_route_48_duration_20250327_2220.10" vType="car" speedFactor="1.03" vaporized=""/>
    <tripinfo id="flow_route_1_duration_20250327_2220.2" depart="59.00" departLane="1318793176#1_0" departPos="3.55" departSpeed="0.00" departDelay="19.00" arrival="120.00" arrivalLane="1318793173#0_2" arrivalPos="4.60" arrivalSpeed="6.39" duration="61.00" routeLength="124.95" waitingTime="35.00" waitingCount="1" stopTime="0.00" timeLoss="53.34" rerouteNo="0" devices="tripinfo_flow_route_1_duration_20250327_2220.2" vType="car" speedFactor="1.15" vaporized=""/>
    <tripinfo id="flow_route_0_duration_20250327_2220.13" depart="73.00" departLane="1318793176#1_0" departPos="2.09" departSpeed="0.00" departDelay="21.00" arrival="123.00" arrivalLane="133126031#0_0" arrivalPos="219.03" arrivalSpeed="16.19" duration="50.00" routeLength="337.36" waitingTime="6.00" waitingCount="1" stopTime="0.00" timeLoss="28.63" rerouteNo="0" devices="tripinfo_flow_route_0_duration_20250327_2220.13" vType="car" speedFactor="1.10" vaporized=""/>
    <tripinfo id="flow_route_1_duration_20250327_2220.1" depart="29.00" departLane="1318793176#1_0" departPos="9.35" departSpeed="0.00" departDelay="9.00" arrival="125.00" arrivalLane="1318793173#0_1" arrivalPos="59.09" arrivalSpeed="11.57" duration="96.00" routeLength="173.64" waitingTime="66.00" waitingCount="1" stopTime="0.00" timeLoss="84.64" rerouteNo="0" devices="tripinfo_flow_route_1_duration_20250327_2220.1" vType="car" speedFactor="0.94" vaporized=""/>
    <tripinfo id="flow_route_0_duration_20250327_2220.12" depart="68.00" departLane="1318793176#1_0" departPos="1.38" departSpeed="0.00" departDelay="20.00" arrival="126.00" arrivalLane="133126031#0_0" arrivalPos="295.04" arrivalSpeed="16.44" duration="58.00" routeLength="414.08" waitingTime="9.00" waitingCount="1" stopTime="0.00" timeLoss="31.79" rerouteNo="0" devices="tripinfo_flow_route_0_duration_20250327_2220.12" vType="car" speedFactor="0.97" vaporized=""/>
    <tripinfo id="flow_route_0_duration_20250327_2220.14" depart="78.00" departLane="1318793176#1_0" departPos="2.03" departSpeed="0.00" departDelay="22.00" arrival="131.00" arrivalLane="133126031#0_0" arrivalPos="331.47" arrivalSpeed="16.56" duration="53.00" routeLength="449.85" waitingTime="3.00" waitingCount="1" stopTime="0.00" timeLoss="25.18" rerouteNo="0" devices="tripinfo_flow_route_0_duration_20250327_2220.14" vType="car" speedFactor="0.96" vaporized=""/>
</tripinfos>
