<?xml version="1.0" encoding="UTF-8"?>

<!-- generated on 2025-05-06 21:08:55 by Eclipse SUMO sumo Version 1.20.0
<configuration xmlns:xsi="http://www.w3.org/2001/XMLSchema-instance" xsi:noNamespaceSchemaLocation="http://sumo.dlr.de/xsd/sumoConfiguration.xsd">

    <input>
        <net-file value="osm.net.xml"/>
        <route-files value="xml/route_rl_GS_cluster_1342409365_3839031467_7.rou.xml"/>
    </input>

    <output>
        <tripinfo-output value="xml/tripinfo_rl_GS_cluster_1342409365_3839031467_7.xml"/>
    </output>

    <traci_server>
        <remote-port value="44503"/>
    </traci_server>

</configuration>
-->

<tripinfos xmlns:xsi="http://www.w3.org/2001/XMLSchema-instance" xsi:noNamespaceSchemaLocation="http://sumo.dlr.de/xsd/tripinfo_file.xsd">
    <tripinfo id="flow_route_128_duration_20250327_2220.0" depart="0.00" departLane="134133272_0" departPos="226.49" departSpeed="0.00" departDelay="0.00" arrival="31.00" arrivalLane="380585338#0_0" arrivalPos="7.57" arrivalSpeed="5.61" duration="31.00" routeLength="279.28" waitingTime="0.00" waitingCount="0" stopTime="0.00" timeLoss="10.62" rerouteNo="0" devices="tripinfo_flow_route_128_duration_20250327_2220.0" vType="car" speedFactor="0.83" vaporized=""/>
    <tripinfo id="flow_route_92_duration_20250327_2220.2" depart="10.00" departLane="133000063_0" departPos="141.98" departSpeed="0.00" departDelay="0.00" arrival="43.00" arrivalLane="186409193_0" arrivalPos="54.86" arrivalSpeed="16.51" duration="33.00" routeLength="304.74" waitingTime="0.00" waitingCount="0" stopTime="0.00" timeLoss="13.64" rerouteNo="0" devices="tripinfo_flow_route_92_duration_20250327_2220.2" vType="car" speedFactor="1.03" vaporized=""/>
    <tripinfo id="flow_route_92_duration_20250327_2220.1" depart="6.00" departLane="133000063_0" departPos="88.35" departSpeed="0.00" departDelay="1.00" arrival="47.00" arrivalLane="186409193_0" arrivalPos="39.94" arrivalSpeed="14.14" duration="41.00" routeLength="343.44" waitingTime="0.00" waitingCount="0" stopTime="0.00" timeLoss="16.22" rerouteNo="0" devices="tripinfo_flow_route_92_duration_20250327_2220.1" vType="car" speedFactor="0.86" vaporized=""/>
    <tripinfo id="flow_route_91_duration_20250327_2220.0" depart="0.00" departLane="133000063_0" departPos="128.34" departSpeed="0.00" departDelay="0.00" arrival="48.00" arrivalLane="683079387#1_0" arrivalPos="9.10" arrivalSpeed="16.56" duration="48.00" routeLength="599.49" waitingTime="0.00" waitingCount="0" stopTime="0.00" timeLoss="11.02" rerouteNo="0" devices="tripinfo_flow_route_91_duration_20250327_2220.0" vType="car" speedFactor="1.06" vaporized=""/>
    <tripinfo id="flow_route_92_duration_20250327_2220.0" depart="0.00" departLane="133000063_0" departPos="1.04" departSpeed="0.00" departDelay="0.00" arrival="49.00" arrivalLane="186409193_0" arrivalPos="41.62" arrivalSpeed="14.97" duration="49.00" routeLength="432.44" waitingTime="0.00" waitingCount="0" stopTime="0.00" timeLoss="20.44" rerouteNo="0" devices="tripinfo_flow_route_92_duration_20250327_2220.0" vType="car" speedFactor="0.94" vaporized=""/>
    <tripinfo id="flow_route_103_duration_20250327_2220.0" depart="1.00" departLane="1342963997_0" departPos="57.81" departSpeed="0.00" departDelay="1.00" arrival="61.00" arrivalLane="683079387#1_0" arrivalPos="6.02" arrivalSpeed="16.32" duration="60.00" routeLength="524.42" waitingTime="4.00" waitingCount="1" stopTime="0.00" timeLoss="27.14" rerouteNo="0" devices="tripinfo_flow_route_103_duration_20250327_2220.0" vType="car" speedFactor="1.03" vaporized=""/>
    <tripinfo id="flow_route_93_duration_20250327_2220.0" depart="0.00" departLane="133000063_0" departPos="115.92" departSpeed="0.00" departDelay="0.00" arrival="64.00" arrivalLane="380585336_1" arrivalPos="19.16" arrivalSpeed="16.45" duration="64.00" routeLength="758.54" waitingTime="0.00" waitingCount="0" stopTime="0.00" timeLoss="17.78" rerouteNo="0" devices="tripinfo_flow_route_93_duration_20250327_2220.0" vType="car" speedFactor="1.01" vaporized=""/>
    <tripinfo id="flow_route_145_duration_20250327_2220.0" depart="0.00" departLane="683079388#0_0" departPos="22.61" departSpeed="0.00" departDelay="0.00" arrival="68.00" arrivalLane="380585336_0" arrivalPos="229.76" arrivalSpeed="15.56" duration="68.00" routeLength="831.39" waitingTime="0.00" waitingCount="0" stopTime="0.00" timeLoss="15.13" rerouteNo="0" devices="tripinfo_flow_route_145_duration_20250327_2220.0" vType="car" speedFactor="0.94" vaporized=""/>
    <tripinfo id="flow_route_102_duration_20250327_2220.0" depart="0.00" departLane="1342963997_0" departPos="83.70" departSpeed="0.00" departDelay="0.00" arrival="69.00" arrivalLane="380585336_1" arrivalPos="207.08" arrivalSpeed="16.40" duration="69.00" routeLength="834.32" waitingTime="0.00" waitingCount="0" stopTime="0.00" timeLoss="17.79" rerouteNo="0" devices="tripinfo_flow_route_102_duration_20250327_2220.0" vType="car" speedFactor="1.08" vaporized=""/>
    <tripinfo id="flow_route_93_duration_20250327_2220.1" depart="7.00" departLane="133000063_0" departPos="109.11" departSpeed="0.00" departDelay="0.33" arrival="80.00" arrivalLane="380585336_1" arrivalPos="129.38" arrivalSpeed="16.48" duration="73.00" routeLength="875.56" waitingTime="0.00" waitingCount="0" stopTime="0.00" timeLoss="19.59" rerouteNo="0" devices="tripinfo_flow_route_93_duration_20250327_2220.1" vType="car" speedFactor="1.09" vaporized=""/>
    <tripinfo id="flow_route_129_duration_20250327_2220.0" depart="0.00" departLane="134133272_0" departPos="105.80" departSpeed="0.00" departDelay="0.00" arrival="83.00" arrivalLane="683079387#1_0" arrivalPos="7.59" arrivalSpeed="16.58" duration="83.00" routeLength="945.90" waitingTime="1.00" waitingCount="1" stopTime="0.00" timeLoss="25.17" rerouteNo="0" devices="tripinfo_flow_route_129_duration_20250327_2220.0" vType="car" speedFactor="1.05" vaporized=""/>
    <tripinfo id="flow_route_129_duration_20250327_2220.1" depart="30.00" departLane="134133272_0" departPos="324.66" departSpeed="0.00" departDelay="0.00" arrival="84.00" arrivalLane="683079387#1_0" arrivalPos="1.71" arrivalSpeed="16.23" duration="54.00" routeLength="721.17" waitingTime="0.00" waitingCount="0" stopTime="0.00" timeLoss="10.13" rerouteNo="0" devices="tripinfo_flow_route_129_duration_20250327_2220.1" vType="car" speedFactor="1.01" vaporized=""/>
    <tripinfo id="flow_route_102_duration_20250327_2220.1" depart="20.00" departLane="1342963997_0" departPos="59.49" departSpeed="0.00" departDelay="0.00" arrival="86.00" arrivalLane="380585336_1" arrivalPos="67.04" arrivalSpeed="14.61" duration="66.00" routeLength="718.50" waitingTime="0.00" waitingCount="0" stopTime="0.00" timeLoss="18.03" rerouteNo="0" devices="tripinfo_flow_route_102_duration_20250327_2220.1" vType="car" speedFactor="0.88" vaporized=""/>
    <tripinfo id="flow_route_144_duration_20250327_2220.0" depart="0.00" departLane="683079388#0_0" departPos="1.56" departSpeed="0.00" departDelay="0.00" arrival="89.00" arrivalLane="380585338#0_0" arrivalPos="42.98" arrivalSpeed="9.68" duration="89.00" routeLength="621.16" waitingTime="25.00" waitingCount="1" stopTime="0.00" timeLoss="46.53" rerouteNo="0" devices="tripinfo_flow_route_144_duration_20250327_2220.0" vType="car" speedFactor="0.89" vaporized=""/>
    <tripinfo id="flow_route_144_duration_20250327_2220.2" depart="40.00" departLane="683079388#0_0" departPos="23.96" departSpeed="0.00" departDelay="0.00" arrival="89.00" arrivalLane="380585338#0_0" arrivalPos="26.37" arrivalSpeed="9.16" duration="49.00" routeLength="582.14" waitingTime="0.00" waitingCount="0" stopTime="0.00" timeLoss="13.69" rerouteNo="0" devices="tripinfo_flow_route_144_duration_20250327_2220.2" vType="car" speedFactor="1.13" vaporized=""/>
    <tripinfo id="flow_route_144_duration_20250327_2220.1" depart="20.00" departLane="683079388#0_0" departPos="3.34" departSpeed="0.00" departDelay="0.00" arrival="97.00" arrivalLane="380585338#0_0" arrivalPos="166.11" arrivalSpeed="15.64" duration="77.00" routeLength="742.51" waitingTime="6.00" waitingCount="1" stopTime="0.00" timeLoss="28.92" rerouteNo="0" devices="tripinfo_flow_route_144_duration_20250327_2220.1" vType="car" speedFactor="0.94" vaporized=""/>
    <tripinfo id="flow_route_92_duration_20250327_2220.6" depart="31.00" departLane="133000063_0" departPos="115.08" departSpeed="0.00" departDelay="1.00" arrival="102.00" arrivalLane="186409193_0" arrivalPos="13.04" arrivalSpeed="14.47" duration="71.00" routeLength="289.82" waitingTime="27.00" waitingCount="2" stopTime="0.00" timeLoss="52.89" rerouteNo="0" devices="tripinfo_flow_route_92_duration_20250327_2220.6" vType="car" speedFactor="1.02" vaporized=""/>
    <tripinfo id="flow_route_93_duration_20250327_2220.2" depart="15.00" departLane="133000063_0" departPos="40.77" departSpeed="0.00" departDelay="1.67" arrival="105.00" arrivalLane="380585336_2" arrivalPos="374.01" arrivalSpeed="16.17" duration="90.00" routeLength="1188.53" waitingTime="0.00" waitingCount="0" stopTime="0.00" timeLoss="17.74" rerouteNo="0" devices="tripinfo_flow_route_93_duration_20250327_2220.2" vType="car" speedFactor="1.05" vaporized=""/>
    <tripinfo id="flow_route_93_duration_20250327_2220.3" depart="20.00" departLane="133000063_0" departPos="118.00" departSpeed="0.00" departDelay="0.00" arrival="106.00" arrivalLane="380585336_0" arrivalPos="322.13" arrivalSpeed="15.11" duration="86.00" routeLength="1059.42" waitingTime="0.00" waitingCount="0" stopTime="0.00" timeLoss="17.15" rerouteNo="0" devices="tripinfo_flow_route_93_duration_20250327_2220.3" vType="car" speedFactor="0.93" vaporized=""/>
    <tripinfo id="flow_route_92_duration_20250327_2220.4" depart="20.00" departLane="133000063_0" departPos="5.14" departSpeed="0.00" departDelay="0.00" arrival="109.00" arrivalLane="186409193_0" arrivalPos="17.63" arrivalSpeed="13.12" duration="89.00" routeLength="404.35" waitingTime="7.00" waitingCount="2" stopTime="0.00" timeLoss="63.52" rerouteNo="0" devices="tripinfo_flow_route_92_duration_20250327_2220.4" vType="car" speedFactor="0.99" vaporized=""/>
    <tripinfo id="flow_route_145_duration_20250327_2220.1" depart="30.00" departLane="683079388#0_0" departPos="2.30" departSpeed="0.00" departDelay="0.00" arrival="110.00" arrivalLane="380585336_0" arrivalPos="240.85" arrivalSpeed="15.98" duration="80.00" routeLength="862.79" waitingTime="4.00" waitingCount="1" stopTime="0.00" timeLoss="27.25" rerouteNo="0" devices="tripinfo_flow_route_145_duration_20250327_2220.1" vType="car" speedFactor="0.97" vaporized=""/>
    <tripinfo id="flow_route_92_duration_20250327_2220.5" depart="25.00" departLane="133000063_0" departPos="70.85" departSpeed="0.00" departDelay="0.00" arrival="111.00" arrivalLane="186409193_0" arrivalPos="7.32" arrivalSpeed="12.77" duration="86.00" routeLength="328.33" waitingTime="25.00" waitingCount="2" stopTime="0.00" timeLoss="63.96" rerouteNo="0" devices="tripinfo_flow_route_92_duration_20250327_2220.5" vType="car" speedFactor="0.94" vaporized=""/>
    <tripinfo id="flow_route_92_duration_20250327_2220.9" depart="45.00" departLane="133000063_0" departPos="30.83" departSpeed="0.00" departDelay="0.00" arrival="113.00" arrivalLane="186409193_0" arrivalPos="3.91" arrivalSpeed="13.42" duration="68.00" routeLength="364.95" waitingTime="11.00" waitingCount="2" stopTime="0.00" timeLoss="43.01" rerouteNo="0" devices="tripinfo_flow_route_92_duration_20250327_2220.9" vType="car" speedFactor="0.93" vaporized=""/>
    <tripinfo id="flow_route_92_duration_20250327_2220.3" depart="15.00" departLane="133000063_0" departPos="5.58" departSpeed="0.00" departDelay="0.00" arrival="119.00" arrivalLane="186409193_0" arrivalPos="31.80" arrivalSpeed="15.79" duration="104.00" routeLength="418.08" waitingTime="24.00" waitingCount="3" stopTime="0.00" timeLoss="78.07" rerouteNo="0" devices="tripinfo_flow_route_92_duration_20250327_2220.3" vType="car" speedFactor="1.12" vaporized=""/>
    <tripinfo id="flow_route_92_duration_20250327_2220.8" depart="40.00" departLane="133000063_0" departPos="4.79" departSpeed="0.00" departDelay="0.00" arrival="124.00" arrivalLane="186409193_0" arrivalPos="55.79" arrivalSpeed="14.21" duration="84.00" routeLength="442.85" waitingTime="6.00" waitingCount="1" stopTime="0.00" timeLoss="52.81" rerouteNo="0" devices="tripinfo_flow_route_92_duration_20250327_2220.8" vType="car" speedFactor="0.87" vaporized=""/>
    <tripinfo id="flow_route_102_duration_20250327_2220.2" depart="40.00" departLane="1342963997_0" departPos="98.18" departSpeed="0.00" departDelay="0.00" arrival="127.00" arrivalLane="380585336_0" arrivalPos="270.36" arrivalSpeed="15.63" duration="87.00" routeLength="883.13" waitingTime="4.00" waitingCount="1" stopTime="0.00" timeLoss="31.03" rerouteNo="0" devices="tripinfo_flow_route_102_duration_20250327_2220.2" vType="car" speedFactor="0.95" vaporized=""/>
    <tripinfo id="flow_route_92_duration_20250327_2220.7" depart="39.00" departLane="133000063_0" departPos="29.01" departSpeed="0.00" departDelay="4.00" arrival="128.00" arrivalLane="186409193_0" arrivalPos="40.40" arrivalSpeed="13.71" duration="89.00" routeLength="403.26" waitingTime="7.00" waitingCount="1" stopTime="0.00" timeLoss="59.11" rerouteNo="0" devices="tripinfo_flow_route_92_duration_20250327_2220.7" vType="car" speedFactor="0.83" vaporized=""/>
    <tripinfo id="flow_route_92_duration_20250327_2220.11" depart="55.00" departLane="133000063_0" departPos="60.60" departSpeed="0.00" departDelay="0.00" arrival="130.00" arrivalLane="186409193_0" arrivalPos="42.17" arrivalSpeed="14.96" duration="75.00" routeLength="373.43" waitingTime="6.00" waitingCount="1" stopTime="0.00" timeLoss="51.79" rerouteNo="0" devices="tripinfo_flow_route_92_duration_20250327_2220.11" vType="car" speedFactor="1.17" vaporized=""/>
    <tripinfo id="flow_route_92_duration_20250327_2220.10" depart="51.00" departLane="133000063_0" departPos="31.12" departSpeed="0.00" departDelay="1.00" arrival="131.00" arrivalLane="186409193_0" arrivalPos="33.13" arrivalSpeed="14.49" duration="80.00" routeLength="393.88" waitingTime="5.00" waitingCount="1" stopTime="0.00" timeLoss="55.56" rerouteNo="0" devices="tripinfo_flow_route_92_duration_20250327_2220.10" vType="car" speedFactor="1.15" vaporized=""/>
    <tripinfo id="flow_route_93_duration_20250327_2220.6" depart="40.00" departLane="133000063_0" departPos="48.03" departSpeed="0.00" departDelay="0.00" arrival="154.00" arrivalLane="380585336_1" arrivalPos="77.26" arrivalSpeed="15.23" duration="114.00" routeLength="884.52" waitingTime="7.00" waitingCount="1" stopTime="0.00" timeLoss="56.58" rerouteNo="0" devices="tripinfo_flow_route_93_duration_20250327_2220.6" vType="car" speedFactor="0.92" vaporized=""/>
    <tripinfo id="flow_route_93_duration_20250327_2220.8" depart="54.00" departLane="133000063_0" departPos="13.78" departSpeed="0.00" departDelay="0.67" arrival="155.00" arrivalLane="380585336_1" arrivalPos="19.74" arrivalSpeed="16.42" duration="101.00" routeLength="861.25" waitingTime="2.00" waitingCount="1" stopTime="0.00" timeLoss="48.94" rerouteNo="0" devices="tripinfo_flow_route_93_duration_20250327_2220.8" vType="car" speedFactor="1.01" vaporized=""/>
    <tripinfo id="flow_route_93_duration_20250327_2220.7" depart="49.00" departLane="133000063_0" departPos="14.82" departSpeed="0.00" departDelay="2.34" arrival="163.00" arrivalLane="380585336_0" arrivalPos="418.10" arrivalSpeed="16.50" duration="114.00" routeLength="1258.58" waitingTime="5.00" waitingCount="1" stopTime="0.00" timeLoss="37.94" rerouteNo="0" devices="tripinfo_flow_route_93_duration_20250327_2220.7" vType="car" speedFactor="1.18" vaporized=""/>
    <tripinfo id="flow_route_93_duration_20250327_2220.4" depart="27.00" departLane="133000063_0" departPos="45.48" departSpeed="0.00" departDelay="0.34" arrival="164.00" arrivalLane="380585336_0" arrivalPos="406.42" arrivalSpeed="16.39" duration="137.00" routeLength="1216.23" waitingTime="16.00" waitingCount="2" stopTime="0.00" timeLoss="63.36" rerouteNo="0" devices="tripinfo_flow_route_93_duration_20250327_2220.4" vType="car" speedFactor="1.16" vaporized=""/>
    <tripinfo id="flow_route_93_duration_20250327_2220.5" depart="35.00" departLane="133000063_0" departPos="161.05" departSpeed="0.00" departDelay="1.67" arrival="164.00" arrivalLane="380585336_0" arrivalPos="301.51" arrivalSpeed="14.61" duration="129.00" routeLength="995.74" waitingTime="34.00" waitingCount="1" stopTime="0.00" timeLoss="61.52" rerouteNo="0" devices="tripinfo_flow_route_93_duration_20250327_2220.5" vType="car" speedFactor="0.89" vaporized=""/>
</tripinfos>
