<?xml version="1.0" encoding="UTF-8"?>

<!-- generated on 2025-05-06 21:07:45 by Eclipse SUMO sumo Version 1.20.0
<configuration xmlns:xsi="http://www.w3.org/2001/XMLSchema-instance" xsi:noNamespaceSchemaLocation="http://sumo.dlr.de/xsd/sumoConfiguration.xsd">

    <input>
        <net-file value="osm.net.xml"/>
        <route-files value="xml/route_static_cluster3828547534_cluster_1507433914_2954854770_2954854771_2954854772_#9more_0.rou.xml"/>
    </input>

    <output>
        <tripinfo-output value="xml/tripinfo_static_cluster3828547534_cluster_1507433914_2954854770_2954854771_2954854772_#9more_0.xml"/>
    </output>

    <traci_server>
        <remote-port value="55405"/>
    </traci_server>

</configuration>
-->

<tripinfos xmlns:xsi="http://www.w3.org/2001/XMLSchema-instance" xsi:noNamespaceSchemaLocation="http://sumo.dlr.de/xsd/tripinfo_file.xsd">
    <tripinfo id="flow_route_6_duration_20250327_1910.0" depart="0.00" departLane="1252820505#0_0" departPos="39.30" departSpeed="0.00" departDelay="0.00" arrival="18.00" arrivalLane="379698350#0_0" arrivalPos="9.38" arrivalSpeed="13.80" duration="18.00" routeLength="129.45" waitingTime="0.00" waitingCount="0" stopTime="0.00" timeLoss="10.06" rerouteNo="0" devices="tripinfo_flow_route_6_duration_20250327_1910.0" vType="car" speedFactor="1.01" vaporized=""/>
    <tripinfo id="flow_route_22_duration_20250327_1910.0" depart="0.00" departLane="137415945#0_0" departPos="8.70" departSpeed="0.00" departDelay="0.00" arrival="24.00" arrivalLane="1342054204_0" arrivalPos="47.56" arrivalSpeed="15.23" duration="24.00" routeLength="232.19" waitingTime="0.00" waitingCount="0" stopTime="0.00" timeLoss="8.92" rerouteNo="0" devices="tripinfo_flow_route_22_duration_20250327_1910.0" vType="car" speedFactor="0.94" vaporized=""/>
    <tripinfo id="flow_route_24_duration_20250327_1910.0" depart="4.00" departLane="137415945#0_0" departPos="5.05" departSpeed="0.00" departDelay="4.00" arrival="25.00" arrivalLane="137406408#0_0" arrivalPos="0.56" arrivalSpeed="15.07" duration="21.00" routeLength="164.51" waitingTime="0.00" waitingCount="0" stopTime="0.00" timeLoss="10.96" rerouteNo="0" devices="tripinfo_flow_route_24_duration_20250327_1910.0" vType="car" speedFactor="1.09" vaporized=""/>
    <tripinfo id="flow_route_10_duration_20250327_1910.0" depart="0.00" departLane="1252820505#0_0" departPos="5.24" departSpeed="0.00" departDelay="0.00" arrival="28.00" arrivalLane="1235147073.116_0" arrivalPos="0.67" arrivalSpeed="13.39" duration="28.00" routeLength="263.17" waitingTime="0.00" waitingCount="0" stopTime="0.00" timeLoss="8.13" rerouteNo="0" devices="tripinfo_flow_route_10_duration_20250327_1910.0" vType="car" speedFactor="0.83" vaporized=""/>
    <tripinfo id="flow_route_22_duration_20250327_1910.1" depart="8.00" departLane="137415945#0_0" departPos="3.07" departSpeed="0.00" departDelay="6.42" arrival="35.00" arrivalLane="1342054204_0" arrivalPos="55.26" arrivalSpeed="16.25" duration="27.00" routeLength="245.52" waitingTime="0.00" waitingCount="0" stopTime="0.00" timeLoss="11.29" rerouteNo="0" devices="tripinfo_flow_route_22_duration_20250327_1910.1" vType="car" speedFactor="1.03" vaporized=""/>
    <tripinfo id="flow_route_8_duration_20250327_1910.2" depart="9.00" departLane="133000078#0_0" departPos="123.11" departSpeed="0.00" departDelay="0.43" arrival="36.00" arrivalLane="1235147073.116_0" arrivalPos="1.36" arrivalSpeed="16.34" duration="27.00" routeLength="238.43" waitingTime="0.00" waitingCount="0" stopTime="0.00" timeLoss="11.35" rerouteNo="0" devices="tripinfo_flow_route_8_duration_20250327_1910.2" vType="car" speedFactor="1.01" vaporized=""/>
    <tripinfo id="flow_route_10_duration_20250327_1910.1" depart="15.00" departLane="1252820505#0_0" departPos="50.85" departSpeed="0.00" departDelay="0.00" arrival="40.00" arrivalLane="1235147073.116_0" arrivalPos="10.39" arrivalSpeed="16.35" duration="25.00" routeLength="227.28" waitingTime="0.00" waitingCount="0" stopTime="0.00" timeLoss="11.25" rerouteNo="0" devices="tripinfo_flow_route_10_duration_20250327_1910.1" vType="car" speedFactor="0.99" vaporized=""/>
    <tripinfo id="flow_route_11_duration_20250327_1910.1" depart="7.00" departLane="1252820505#0_0" departPos="14.60" departSpeed="0.00" departDelay="2.39" arrival="43.00" arrivalLane="137406408#0_2" arrivalPos="2.99" arrivalSpeed="8.26" duration="36.00" routeLength="149.97" waitingTime="4.00" waitingCount="1" stopTime="0.00" timeLoss="26.65" rerouteNo="0" devices="tripinfo_flow_route_11_duration_20250327_1910.1" vType="car" speedFactor="0.99" vaporized=""/>
    <tripinfo id="flow_route_6_duration_20250327_1910.2" depart="22.00" departLane="1252820505#0_0" departPos="41.72" departSpeed="0.00" departDelay="2.00" arrival="45.00" arrivalLane="379698350#0_0" arrivalPos="84.78" arrivalSpeed="16.33" duration="23.00" routeLength="202.43" waitingTime="0.00" waitingCount="0" stopTime="0.00" timeLoss="10.31" rerouteNo="0" devices="tripinfo_flow_route_6_duration_20250327_1910.2" vType="car" speedFactor="1.09" vaporized=""/>
    <tripinfo id="flow_route_11_duration_20250327_1910.0" depart="0.00" departLane="1252820505#0_0" departPos="76.11" departSpeed="0.00" departDelay="0.00" arrival="47.00" arrivalLane="137406408#0_2" arrivalPos="68.60" arrivalSpeed="12.64" duration="47.00" routeLength="154.08" waitingTime="17.00" waitingCount="1" stopTime="0.00" timeLoss="37.23" rerouteNo="0" devices="tripinfo_flow_route_11_duration_20250327_1910.0" vType="car" speedFactor="1.05" vaporized=""/>
    <tripinfo id="flow_route_11_duration_20250327_1910.2" depart="14.00" departLane="1252820505#0_0" departPos="62.75" departSpeed="0.00" departDelay="4.77" arrival="48.00" arrivalLane="137406408#0_2" arrivalPos="28.41" arrivalSpeed="11.38" duration="34.00" routeLength="127.24" waitingTime="1.00" waitingCount="1" stopTime="0.00" timeLoss="24.41" rerouteNo="0" devices="tripinfo_flow_route_11_duration_20250327_1910.2" vType="car" speedFactor="0.87" vaporized=""/>
    <tripinfo id="flow_route_6_duration_20250327_1910.1" depart="10.00" departLane="1252820505#0_0" departPos="15.94" departSpeed="0.00" departDelay="0.00" arrival="49.00" arrivalLane="379698350#0_0" arrivalPos="197.98" arrivalSpeed="13.72" duration="39.00" routeLength="341.41" waitingTime="0.00" waitingCount="0" stopTime="0.00" timeLoss="14.01" rerouteNo="0" devices="tripinfo_flow_route_6_duration_20250327_1910.1" vType="car" speedFactor="0.83" vaporized=""/>
    <tripinfo id="flow_route_11_duration_20250327_1910.3" depart="15.00" departLane="1252820505#0_0" departPos="71.76" departSpeed="0.00" departDelay="1.16" arrival="49.00" arrivalLane="137406408#0_2" arrivalPos="4.32" arrivalSpeed="10.19" duration="34.00" routeLength="94.15" waitingTime="4.00" waitingCount="3" stopTime="0.00" timeLoss="28.32" rerouteNo="0" devices="tripinfo_flow_route_11_duration_20250327_1910.3" vType="car" speedFactor="1.17" vaporized=""/>
    <tripinfo id="flow_route_8_duration_20250327_1910.0" depart="0.00" departLane="133000078#0_0" departPos="54.62" departSpeed="0.00" departDelay="0.00" arrival="50.00" arrivalLane="1235147073.116_0" arrivalPos="9.03" arrivalSpeed="16.44" duration="50.00" routeLength="314.60" waitingTime="2.00" waitingCount="1" stopTime="0.00" timeLoss="29.35" rerouteNo="0" devices="tripinfo_flow_route_8_duration_20250327_1910.0" vType="car" speedFactor="1.03" vaporized=""/>
    <tripinfo id="flow_route_8_duration_20250327_1910.6" depart="28.00" departLane="133000078#0_0" departPos="183.19" departSpeed="0.00" departDelay="2.29" arrival="51.00" arrivalLane="1235147073.116_0" arrivalPos="9.07" arrivalSpeed="14.84" duration="23.00" routeLength="186.06" waitingTime="0.00" waitingCount="0" stopTime="0.00" timeLoss="9.35" rerouteNo="0" devices="tripinfo_flow_route_8_duration_20250327_1910.6" vType="car" speedFactor="0.90" vaporized=""/>
    <tripinfo id="flow_route_8_duration_20250327_1910.4" depart="18.00" departLane="133000078#0_0" departPos="101.73" departSpeed="0.00" departDelay="0.86" arrival="52.00" arrivalLane="1235147073.116_0" arrivalPos="0.37" arrivalSpeed="16.02" duration="34.00" routeLength="258.82" waitingTime="0.00" waitingCount="0" stopTime="0.00" timeLoss="17.46" rerouteNo="0" devices="tripinfo_flow_route_8_duration_20250327_1910.4" vType="car" speedFactor="1.10" vaporized=""/>
    <tripinfo id="flow_route_11_duration_20250327_1910.4" depart="19.00" departLane="1252820505#0_0" departPos="84.44" departSpeed="0.00" departDelay="0.54" arrival="53.00" arrivalLane="137406408#0_2" arrivalPos="65.60" arrivalSpeed="13.33" duration="34.00" routeLength="142.74" waitingTime="6.00" waitingCount="1" stopTime="0.00" timeLoss="24.93" rerouteNo="0" devices="tripinfo_flow_route_11_duration_20250327_1910.4" vType="car" speedFactor="1.09" vaporized=""/>
    <tripinfo id="flow_route_8_duration_20250327_1910.3" depart="14.00" departLane="133000078#0_0" departPos="72.65" departSpeed="0.00" departDelay="1.15" arrival="54.00" arrivalLane="1235147073.116_0" arrivalPos="4.81" arrivalSpeed="16.42" duration="40.00" routeLength="292.34" waitingTime="0.00" waitingCount="0" stopTime="0.00" timeLoss="21.54" rerouteNo="0" devices="tripinfo_flow_route_8_duration_20250327_1910.3" vType="car" speedFactor="1.18" vaporized=""/>
    <tripinfo id="flow_route_5_duration_20250327_1910.2" depart="20.00" departLane="291974733#0_0" departPos="62.01" departSpeed="0.00" departDelay="0.00" arrival="56.00" arrivalLane="1342054204_0" arrivalPos="25.85" arrivalSpeed="11.18" duration="36.00" routeLength="102.09" waitingTime="13.00" waitingCount="1" stopTime="0.00" timeLoss="29.22" rerouteNo="0" devices="tripinfo_flow_route_5_duration_20250327_1910.2" vType="car" speedFactor="1.04" vaporized=""/>
    <tripinfo id="flow_route_5_duration_20250327_1910.0" depart="0.00" departLane="291974733#0_0" departPos="43.68" departSpeed="0.00" departDelay="0.00" arrival="57.00" arrivalLane="1342054204_0" arrivalPos="62.15" arrivalSpeed="12.81" duration="57.00" routeLength="156.72" waitingTime="27.00" waitingCount="1" stopTime="0.00" timeLoss="45.52" rerouteNo="0" devices="tripinfo_flow_route_5_duration_20250327_1910.0" vType="car" speedFactor="0.94" vaporized=""/>
    <tripinfo id="flow_route_8_duration_20250327_1910.1" depart="5.00" departLane="133000078#0_0" departPos="6.16" departSpeed="0.00" departDelay="0.72" arrival="58.00" arrivalLane="1235147073.116_0" arrivalPos="3.62" arrivalSpeed="16.46" duration="53.00" routeLength="357.65" waitingTime="0.00" waitingCount="0" stopTime="0.00" timeLoss="30.55" rerouteNo="0" devices="tripinfo_flow_route_8_duration_20250327_1910.1" vType="car" speedFactor="1.12" vaporized=""/>
    <tripinfo id="flow_route_23_duration_20250327_1910.1" depart="20.00" departLane="137415945#0_0" departPos="1.29" departSpeed="0.00" departDelay="15.00" arrival="59.00" arrivalLane="379698350#0_2" arrivalPos="32.81" arrivalSpeed="11.22" duration="39.00" routeLength="223.87" waitingTime="0.00" waitingCount="0" stopTime="0.00" timeLoss="23.76" rerouteNo="0" devices="tripinfo_flow_route_23_duration_20250327_1910.1" vType="car" speedFactor="0.94" vaporized=""/>
    <tripinfo id="flow_route_4_duration_20250327_1910.1" depart="32.00" departLane="291974733#0_0" departPos="14.37" departSpeed="0.00" departDelay="2.00" arrival="59.00" arrivalLane="379698350#0_1" arrivalPos="96.99" arrivalSpeed="16.47" duration="27.00" routeLength="273.52" waitingTime="0.00" waitingCount="0" stopTime="0.00" timeLoss="10.15" rerouteNo="0" devices="tripinfo_flow_route_4_duration_20250327_1910.1" vType="car" speedFactor="1.02" vaporized=""/>
    <tripinfo id="flow_route_5_duration_20250327_1910.3" depart="32.00" departLane="291974733#0_0" departPos="41.84" departSpeed="0.00" departDelay="2.00" arrival="61.00" arrivalLane="1342054204_0" arrivalPos="29.56" arrivalSpeed="13.40" duration="29.00" routeLength="125.97" waitingTime="2.00" waitingCount="1" stopTime="0.00" timeLoss="19.84" rerouteNo="0" devices="tripinfo_flow_route_5_duration_20250327_1910.3" vType="car" speedFactor="0.99" vaporized=""/>
    <tripinfo id="flow_route_6_duration_20250327_1910.3" depart="31.00" departLane="1252820505#0_0" departPos="68.15" departSpeed="0.00" departDelay="1.00" arrival="61.00" arrivalLane="379698350#0_0" arrivalPos="0.18" arrivalSpeed="10.15" duration="30.00" routeLength="91.40" waitingTime="8.00" waitingCount="1" stopTime="0.00" timeLoss="23.91" rerouteNo="0" devices="tripinfo_flow_route_6_duration_20250327_1910.3" vType="car" speedFactor="0.94" vaporized=""/>
    <tripinfo id="flow_route_5_duration_20250327_1910.1" depart="11.00" departLane="291974733#0_0" departPos="2.61" departSpeed="0.00" departDelay="1.00" arrival="62.00" arrivalLane="1342054204_0" arrivalPos="81.56" arrivalSpeed="14.26" duration="51.00" routeLength="217.21" waitingTime="12.00" waitingCount="1" stopTime="0.00" timeLoss="35.40" rerouteNo="0" devices="tripinfo_flow_route_5_duration_20250327_1910.1" vType="car" speedFactor="0.89" vaporized=""/>
    <tripinfo id="flow_route_6_duration_20250327_1910.4" depart="40.00" departLane="1252820505#0_0" departPos="52.55" departSpeed="0.00" departDelay="0.00" arrival="63.00" arrivalLane="379698350#0_0" arrivalPos="1.51" arrivalSpeed="10.48" duration="23.00" routeLength="108.34" waitingTime="0.00" waitingCount="0" stopTime="0.00" timeLoss="16.17" rerouteNo="0" devices="tripinfo_flow_route_6_duration_20250327_1910.4" vType="car" speedFactor="0.98" vaporized=""/>
    <tripinfo id="flow_route_23_duration_20250327_1910.0" depart="0.00" departLane="137415945#0_0" departPos="0.59" departSpeed="0.00" departDelay="0.00" arrival="64.00" arrivalLane="379698350#0_2" arrivalPos="153.67" arrivalSpeed="13.98" duration="64.00" routeLength="345.44" waitingTime="19.00" waitingCount="1" stopTime="0.00" timeLoss="38.85" rerouteNo="0" devices="tripinfo_flow_route_23_duration_20250327_1910.0" vType="car" speedFactor="0.86" vaporized=""/>
    <tripinfo id="flow_route_8_duration_20250327_1910.9" depart="39.00" departLane="133000078#0_0" departPos="137.54" departSpeed="0.00" departDelay="0.44" arrival="64.00" arrivalLane="1235147073.116_0" arrivalPos="0.53" arrivalSpeed="16.16" duration="25.00" routeLength="223.17" waitingTime="0.00" waitingCount="0" stopTime="0.00" timeLoss="10.35" rerouteNo="0" devices="tripinfo_flow_route_8_duration_20250327_1910.9" vType="car" speedFactor="1.02" vaporized=""/>
    <tripinfo id="flow_route_4_duration_20250327_1910.0" depart="0.00" departLane="291974733#0_0" departPos="63.06" departSpeed="0.00" departDelay="0.00" arrival="66.00" arrivalLane="379698350#0_0" arrivalPos="183.76" arrivalSpeed="16.41" duration="66.00" routeLength="311.60" waitingTime="29.00" waitingCount="1" stopTime="0.00" timeLoss="46.56" rerouteNo="0" devices="tripinfo_flow_route_4_duration_20250327_1910.0" vType="car" speedFactor="1.06" vaporized=""/>
    <tripinfo id="flow_route_5_duration_20250327_1910.4" depart="41.00" departLane="291974733#0_0" departPos="36.96" departSpeed="0.00" departDelay="1.00" arrival="66.00" arrivalLane="1342054204_0" arrivalPos="39.75" arrivalSpeed="12.53" duration="25.00" routeLength="141.04" waitingTime="0.00" waitingCount="0" stopTime="0.00" timeLoss="15.46" rerouteNo="0" devices="tripinfo_flow_route_5_duration_20250327_1910.4" vType="car" speedFactor="1.15" vaporized=""/>
    <tripinfo id="flow_route_8_duration_20250327_1910.7" depart="30.00" departLane="133000078#0_0" departPos="81.24" departSpeed="0.00" departDelay="0.01" arrival="69.00" arrivalLane="1235147073.116_0" arrivalPos="10.08" arrivalSpeed="14.55" duration="39.00" routeLength="289.02" waitingTime="0.00" waitingCount="0" stopTime="0.00" timeLoss="17.57" rerouteNo="0" devices="tripinfo_flow_route_8_duration_20250327_1910.7" vType="car" speedFactor="0.88" vaporized=""/>
    <tripinfo id="flow_route_8_duration_20250327_1910.5" depart="22.00" departLane="133000078#0_0" departPos="8.79" departSpeed="0.00" departDelay="0.58" arrival="70.00" arrivalLane="1235147073.116_0" arrivalPos="2.16" arrivalSpeed="14.03" duration="48.00" routeLength="353.55" waitingTime="0.00" waitingCount="0" stopTime="0.00" timeLoss="21.73" rerouteNo="0" devices="tripinfo_flow_route_8_duration_20250327_1910.5" vType="car" speedFactor="0.85" vaporized=""/>
    <tripinfo id="flow_route_8_duration_20250327_1910.8" depart="35.00" departLane="133000078#0_0" departPos="51.72" departSpeed="0.00" departDelay="0.72" arrival="75.00" arrivalLane="1235147073.116_0" arrivalPos="1.50" arrivalSpeed="15.10" duration="40.00" routeLength="309.95" waitingTime="0.00" waitingCount="0" stopTime="0.00" timeLoss="19.25" rerouteNo="0" devices="tripinfo_flow_route_8_duration_20250327_1910.8" vType="car" speedFactor="0.96" vaporized=""/>
    <tripinfo id="flow_route_23_duration_20250327_1910.2" depart="43.00" departLane="137415945#0_0" departPos="2.83" departSpeed="0.00" departDelay="33.00" arrival="77.00" arrivalLane="379698350#0_2" arrivalPos="119.63" arrivalSpeed="15.72" duration="34.00" routeLength="309.16" waitingTime="0.00" waitingCount="0" stopTime="0.00" timeLoss="13.74" rerouteNo="0" devices="tripinfo_flow_route_23_duration_20250327_1910.2" vType="car" speedFactor="0.95" vaporized=""/>
    <tripinfo id="flow_route_5_duration_20250327_1910.5" depart="54.00" departLane="291974733#0_0" departPos="17.21" departSpeed="0.00" departDelay="4.00" arrival="79.00" arrivalLane="1342054204_0" arrivalPos="61.43" arrivalSpeed="14.48" duration="25.00" routeLength="182.46" waitingTime="0.00" waitingCount="0" stopTime="0.00" timeLoss="12.90" rerouteNo="0" devices="tripinfo_flow_route_5_duration_20250327_1910.5" vType="car" speedFactor="1.07" vaporized=""/>
    <tripinfo id="flow_route_8_duration_20250327_1910.13" depart="60.00" departLane="133000078#0_0" departPos="197.74" departSpeed="0.00" departDelay="4.30" arrival="82.00" arrivalLane="1235147073.116_0" arrivalPos="9.95" arrivalSpeed="15.85" duration="22.00" routeLength="172.39" waitingTime="0.00" waitingCount="0" stopTime="0.00" timeLoss="10.45" rerouteNo="0" devices="tripinfo_flow_route_8_duration_20250327_1910.13" vType="car" speedFactor="1.18" vaporized=""/>
    <tripinfo id="flow_route_8_duration_20250327_1910.11" depart="49.00" departLane="133000078#0_0" departPos="104.67" departSpeed="0.00" departDelay="1.87" arrival="84.00" arrivalLane="1235147073.116_0" arrivalPos="14.06" arrivalSpeed="16.50" duration="35.00" routeLength="269.57" waitingTime="0.00" waitingCount="0" stopTime="0.00" timeLoss="17.17" rerouteNo="0" devices="tripinfo_flow_route_8_duration_20250327_1910.11" vType="car" speedFactor="1.06" vaporized=""/>
    <tripinfo id="flow_route_8_duration_20250327_1910.10" depart="44.00" departLane="133000078#0_0" departPos="71.59" departSpeed="0.00" departDelay="1.15" arrival="85.00" arrivalLane="1235147073.116_0" arrivalPos="8.35" arrivalSpeed="13.50" duration="41.00" routeLength="296.94" waitingTime="0.00" waitingCount="0" stopTime="0.00" timeLoss="18.11" rerouteNo="0" devices="tripinfo_flow_route_8_duration_20250327_1910.10" vType="car" speedFactor="0.83" vaporized=""/>
    <tripinfo id="flow_route_8_duration_20250327_1910.12" depart="52.00" departLane="133000078#0_0" departPos="73.72" departSpeed="0.00" departDelay="0.58" arrival="88.00" arrivalLane="1235147073.116_0" arrivalPos="10.04" arrivalSpeed="15.28" duration="36.00" routeLength="296.49" waitingTime="0.00" waitingCount="0" stopTime="0.00" timeLoss="15.89" rerouteNo="0" devices="tripinfo_flow_route_8_duration_20250327_1910.12" vType="car" speedFactor="0.93" vaporized=""/>
    <tripinfo id="flow_route_12_duration_20250327_1910.1" depart="6.00" departLane="133000078#0_0" departPos="199.16" departSpeed="0.00" departDelay="1.72" arrival="92.00" arrivalLane="1342054204_3" arrivalPos="26.32" arrivalSpeed="13.90" duration="86.00" routeLength="124.96" waitingTime="63.00" waitingCount="1" stopTime="0.00" timeLoss="77.19" rerouteNo="0" devices="tripinfo_flow_route_12_duration_20250327_1910.1" vType="car" speedFactor="0.93" vaporized=""/>
    <tripinfo id="flow_route_7_duration_20250327_1910.0" depart="0.00" departLane="133000078#0_0" departPos="116.92" departSpeed="0.00" departDelay="0.00" arrival="94.00" arrivalLane="137406408#0_1" arrivalPos="45.36" arrivalSpeed="14.22" duration="94.00" routeLength="233.24" waitingTime="56.00" waitingCount="1" stopTime="0.00" timeLoss="79.53" rerouteNo="0" devices="tripinfo_flow_route_7_duration_20250327_1910.0" vType="car" speedFactor="1.08" vaporized=""/>
    <tripinfo id="flow_route_12_duration_20250327_1910.0" depart="0.00" departLane="133000078#0_0" departPos="66.48" departSpeed="0.00" departDelay="0.00" arrival="95.00" arrivalLane="1342054204_3" arrivalPos="21.59" arrivalSpeed="13.26" duration="95.00" routeLength="252.91" waitingTime="52.00" waitingCount="1" stopTime="0.00" timeLoss="77.78" rerouteNo="0" devices="tripinfo_flow_route_12_duration_20250327_1910.0" vType="car" speedFactor="0.89" vaporized=""/>
    <tripinfo id="flow_route_12_duration_20250327_1910.2" depart="9.00" departLane="133000078#0_0" departPos="142.80" departSpeed="0.00" departDelay="0.43" arrival="95.00" arrivalLane="1342054204_3" arrivalPos="58.28" arrivalSpeed="15.15" duration="86.00" routeLength="213.28" waitingTime="54.00" waitingCount="1" stopTime="0.00" timeLoss="72.88" rerouteNo="0" devices="tripinfo_flow_route_12_duration_20250327_1910.2" vType="car" speedFactor="0.97" vaporized=""/>
    <tripinfo id="flow_route_7_duration_20250327_1910.1" depart="20.00" departLane="133000078#0_0" departPos="58.06" departSpeed="0.00" departDelay="0.00" arrival="95.00" arrivalLane="137406408#0_1" arrivalPos="31.65" arrivalSpeed="14.50" duration="75.00" routeLength="278.38" waitingTime="28.00" waitingCount="1" stopTime="0.00" timeLoss="57.50" rerouteNo="0" devices="tripinfo_flow_route_7_duration_20250327_1910.1" vType="car" speedFactor="1.00" vaporized=""/>
    <tripinfo id="flow_route_12_duration_20250327_1910.13" depart="60.00" departLane="133000078#0_0" departPos="183.91" departSpeed="0.00" departDelay="4.30" arrival="100.00" arrivalLane="1342054204_3" arrivalPos="20.99" arrivalSpeed="13.16" duration="40.00" routeLength="134.88" waitingTime="16.00" waitingCount="1" stopTime="0.00" timeLoss="31.45" rerouteNo="0" devices="tripinfo_flow_route_12_duration_20250327_1910.13" vType="car" speedFactor="0.99" vaporized=""/>
    <tripinfo id="flow_route_7_duration_20250327_1910.2" depart="40.00" departLane="133000078#0_0" departPos="39.35" departSpeed="0.00" departDelay="0.00" arrival="104.00" arrivalLane="137406408#0_1" arrivalPos="54.31" arrivalSpeed="15.67" duration="64.00" routeLength="319.76" waitingTime="15.00" waitingCount="1" stopTime="0.00" timeLoss="44.19" rerouteNo="0" devices="tripinfo_flow_route_7_duration_20250327_1910.2" vType="car" speedFactor="1.00" vaporized=""/>
    <tripinfo id="flow_route_12_duration_20250327_1910.3" depart="15.00" departLane="133000078#0_0" departPos="105.89" departSpeed="0.00" departDelay="2.15" arrival="106.00" arrivalLane="1342054204_3" arrivalPos="29.57" arrivalSpeed="13.92" duration="91.00" routeLength="221.48" waitingTime="50.00" waitingCount="2" stopTime="0.00" timeLoss="77.41" rerouteNo="0" devices="tripinfo_flow_route_12_duration_20250327_1910.3" vType="car" speedFactor="1.15" vaporized=""/>
    <tripinfo id="flow_route_12_duration_20250327_1910.5" depart="23.00" departLane="133000078#0_0" departPos="174.58" departSpeed="0.00" departDelay="1.58" arrival="107.00" arrivalLane="1342054204_3" arrivalPos="76.94" arrivalSpeed="14.16" duration="84.00" routeLength="200.16" waitingTime="52.00" waitingCount="2" stopTime="0.00" timeLoss="69.34" rerouteNo="0" devices="tripinfo_flow_route_12_duration_20250327_1910.5" vType="car" speedFactor="0.85" vaporized=""/>
    <tripinfo id="flow_route_12_duration_20250327_1910.4" depart="19.00" departLane="133000078#0_0" departPos="118.45" departSpeed="0.00" departDelay="1.86" arrival="108.00" arrivalLane="1342054204_3" arrivalPos="26.41" arrivalSpeed="14.85" duration="89.00" routeLength="205.76" waitingTime="47.00" waitingCount="2" stopTime="0.00" timeLoss="74.40" rerouteNo="0" devices="tripinfo_flow_route_12_duration_20250327_1910.4" vType="car" speedFactor="0.90" vaporized=""/>
    <tripinfo id="flow_route_12_duration_20250327_1910.6" depart="28.00" departLane="133000078#0_0" departPos="99.67" departSpeed="0.00" departDelay="2.29" arrival="112.00" arrivalLane="1342054204_3" arrivalPos="50.01" arrivalSpeed="15.83" duration="84.00" routeLength="248.15" waitingTime="39.00" waitingCount="2" stopTime="0.00" timeLoss="68.65" rerouteNo="0" devices="tripinfo_flow_route_12_duration_20250327_1910.6" vType="car" speedFactor="1.14" vaporized=""/>
    <tripinfo id="flow_route_12_duration_20250327_1910.8" depart="37.00" departLane="133000078#0_0" departPos="117.40" departSpeed="0.00" departDelay="2.72" arrival="112.00" arrivalLane="1342054204_3" arrivalPos="19.71" arrivalSpeed="14.69" duration="75.00" routeLength="200.11" waitingTime="34.00" waitingCount="1" stopTime="0.00" timeLoss="62.12" rerouteNo="0" devices="tripinfo_flow_route_12_duration_20250327_1910.8" vType="car" speedFactor="0.98" vaporized=""/>
    <tripinfo id="flow_route_12_duration_20250327_1910.7" depart="35.00" departLane="133000078#0_0" departPos="66.25" departSpeed="0.00" departDelay="5.01" arrival="113.00" arrivalLane="1342054204_3" arrivalPos="1.02" arrivalSpeed="12.60" duration="78.00" routeLength="232.57" waitingTime="32.00" waitingCount="1" stopTime="0.00" timeLoss="62.70" rerouteNo="0" devices="tripinfo_flow_route_12_duration_20250327_1910.7" vType="car" speedFactor="0.91" vaporized=""/>
    <tripinfo id="flow_route_12_duration_20250327_1910.9" depart="39.00" departLane="133000078#0_0" departPos="24.66" departSpeed="0.00" departDelay="0.44" arrival="120.00" arrivalLane="1342054204_3" arrivalPos="65.38" arrivalSpeed="16.03" duration="81.00" routeLength="338.53" waitingTime="26.00" waitingCount="1" stopTime="0.00" timeLoss="59.10" rerouteNo="0" devices="tripinfo_flow_route_12_duration_20250327_1910.9" vType="car" speedFactor="0.97" vaporized=""/>
    <tripinfo id="flow_route_12_duration_20250327_1910.11" depart="51.00" departLane="133000078#0_0" departPos="49.87" departSpeed="0.00" departDelay="3.87" arrival="122.00" arrivalLane="1342054204_3" arrivalPos="17.62" arrivalSpeed="13.24" duration="71.00" routeLength="265.55" waitingTime="20.00" waitingCount="1" stopTime="0.00" timeLoss="54.11" rerouteNo="0" devices="tripinfo_flow_route_12_duration_20250327_1910.11" vType="car" speedFactor="0.96" vaporized=""/>
    <tripinfo id="flow_route_12_duration_20250327_1910.12" depart="53.00" departLane="133000078#0_0" departPos="5.50" departSpeed="0.00" departDelay="1.58" arrival="124.00" arrivalLane="1342054204_3" arrivalPos="4.23" arrivalSpeed="13.11" duration="71.00" routeLength="296.54" waitingTime="16.00" waitingCount="1" stopTime="0.00" timeLoss="49.95" rerouteNo="0" devices="tripinfo_flow_route_12_duration_20250327_1910.12" vType="car" speedFactor="0.87" vaporized=""/>
    <tripinfo id="flow_route_12_duration_20250327_1910.10" depart="45.00" departLane="133000078#0_0" departPos="63.98" departSpeed="0.00" departDelay="2.15" arrival="125.00" arrivalLane="1342054204_3" arrivalPos="82.18" arrivalSpeed="15.29" duration="80.00" routeLength="315.99" waitingTime="22.00" waitingCount="2" stopTime="0.00" timeLoss="58.62" rerouteNo="0" devices="tripinfo_flow_route_12_duration_20250327_1910.10" vType="car" speedFactor="0.92" vaporized=""/>
    <tripinfo id="flow_route_24_duration_20250327_1910.1" depart="24.00" departLane="137415945#0_0" departPos="8.44" departSpeed="0.00" departDelay="18.00" arrival="138.00" arrivalLane="137406408#0_0" arrivalPos="11.94" arrivalSpeed="9.50" duration="114.00" routeLength="172.50" waitingTime="83.00" waitingCount="1" stopTime="0.00" timeLoss="102.72" rerouteNo="0" devices="tripinfo_flow_route_24_duration_20250327_1910.1" vType="car" speedFactor="0.94" vaporized=""/>
    <tripinfo id="flow_route_22_duration_20250327_1910.4" depart="29.00" departLane="137415945#0_0" departPos="4.40" departSpeed="0.00" departDelay="22.69" arrival="142.00" arrivalLane="1342054204_1" arrivalPos="23.04" arrivalSpeed="11.32" duration="113.00" routeLength="211.96" waitingTime="76.00" waitingCount="1" stopTime="0.00" timeLoss="100.16" rerouteNo="0" devices="tripinfo_flow_route_22_duration_20250327_1910.4" vType="car" speedFactor="1.16" vaporized=""/>
    <tripinfo id="flow_route_22_duration_20250327_1910.2" depart="12.00" departLane="137415945#0_0" departPos="0.85" departSpeed="0.00" departDelay="8.84" arrival="144.00" arrivalLane="1342054204_0" arrivalPos="77.43" arrivalSpeed="14.43" duration="132.00" routeLength="269.90" waitingTime="92.00" waitingCount="1" stopTime="0.00" timeLoss="115.68" rerouteNo="0" devices="tripinfo_flow_route_22_duration_20250327_1910.2" vType="car" speedFactor="1.05" vaporized=""/>
    <tripinfo id="flow_route_22_duration_20250327_1910.3" depart="18.00" departLane="137415945#0_0" departPos="7.96" departSpeed="0.00" departDelay="13.27" arrival="144.00" arrivalLane="1342054204_1" arrivalPos="66.69" arrivalSpeed="14.25" duration="126.00" routeLength="252.06" waitingTime="87.00" waitingCount="1" stopTime="0.00" timeLoss="107.84" rerouteNo="0" devices="tripinfo_flow_route_22_duration_20250327_1910.3" vType="car" speedFactor="0.88" vaporized=""/>
    <tripinfo id="flow_route_22_duration_20250327_1910.8" depart="58.00" departLane="137415945#0_0" departPos="7.26" departSpeed="0.00" departDelay="45.38" arrival="145.00" arrivalLane="1342054204_1" arrivalPos="7.50" arrivalSpeed="11.29" duration="87.00" routeLength="193.57" waitingTime="52.00" waitingCount="1" stopTime="0.00" timeLoss="75.16" rerouteNo="0" devices="tripinfo_flow_route_22_duration_20250327_1910.8" vType="car" speedFactor="1.01" vaporized=""/>