<?xml version="1.0" encoding="UTF-8"?>

<!-- generated on 2025-05-06 21:09:18 by Eclipse SUMO sumo Version 1.20.0
<configuration xmlns:xsi="http://www.w3.org/2001/XMLSchema-instance" xsi:noNamespaceSchemaLocation="http://sumo.dlr.de/xsd/sumoConfiguration.xsd">

    <input>
        <net-file value="osm.net.xml"/>
        <route-files value="xml/route_static_632031937_9.rou.xml"/>
    </input>

    <output>
        <tripinfo-output value="xml/tripinfo_static_632031937_9.xml"/>
    </output>

    <traci_server>
        <remote-port value="60037"/>
    </traci_server>

</configuration>
-->

<tripinfos xmlns:xsi="http://www.w3.org/2001/XMLSchema-instance" xsi:noNamespaceSchemaLocation="http://sumo.dlr.de/xsd/tripinfo_file.xsd">
    <tripinfo id="flow_route_66_duration_20250327_1930.0" depart="0.00" departLane="-138002002#2_0" departPos="85.87" departSpeed="0.00" departDelay="0.00" arrival="19.00" arrivalLane="-138002006#3_1" arrivalPos="3.87" arrivalSpeed="12.95" duration="19.00" routeLength="121.39" waitingTime="0.00" waitingCount="0" stopTime="0.00" timeLoss="10.16" rerouteNo="0" devices="tripinfo_flow_route_66_duration_20250327_1930.0" vType="car" speedFactor="0.83" vaporized=""/>
    <tripinfo id="flow_route_53_duration_20250327_1930.0" depart="0.00" departLane="138002006#0_0" departPos="48.40" departSpeed="0.00" departDelay="0.00" arrival="23.00" arrivalLane="1369578052#0_0" arrivalPos="131.33" arrivalSpeed="15.64" duration="23.00" routeLength="190.85" waitingTime="0.00" waitingCount="0" stopTime="0.00" timeLoss="10.13" rerouteNo="0" devices="tripinfo_flow_route_53_duration_20250327_1930.0" vType="car" speedFactor="0.94" vaporized=""/>
    <tripinfo id="flow_route_53_duration_20250327_1930.5" depart="12.00" departLane="138002006#0_0" departPos="84.92" departSpeed="0.00" departDelay="0.47" arrival="23.00" arrivalLane="1369578052#0_0" arrivalPos="29.33" arrivalSpeed="8.65" duration="11.00" routeLength="52.33" waitingTime="0.00" waitingCount="0" stopTime="0.00" timeLoss="7.59" rerouteNo="0" devices="tripinfo_flow_route_53_duration_20250327_1930.5" vType="car" speedFactor="0.93" vaporized=""/>
    <tripinfo id="flow_route_53_duration_20250327_1930.1" depart="3.00" departLane="138002006#0_0" departPos="5.35" departSpeed="0.00" departDelay="0.69" arrival="26.00" arrivalLane="1369578052#0_1" arrivalPos="48.76" arrivalSpeed="12.27" duration="23.00" routeLength="151.33" waitingTime="0.00" waitingCount="0" stopTime="0.00" timeLoss="12.42" rerouteNo="0" devices="tripinfo_flow_route_53_duration_20250327_1930.1" vType="car" speedFactor="0.89" vaporized=""/>
    <tripinfo id="flow_route_53_duration_20250327_1930.4" depart="10.00" departLane="138002006#0_0" departPos="67.86" departSpeed="0.00" departDelay="0.77" arrival="28.00" arrivalLane="1369578052#0_0" arrivalPos="55.62" arrivalSpeed="11.58" duration="18.00" routeLength="95.68" waitingTime="0.00" waitingCount="0" stopTime="0.00" timeLoss="11.82" rerouteNo="0" devices="tripinfo_flow_route_53_duration_20250327_1930.4" vType="car" speedFactor="0.99" vaporized=""/>
    <tripinfo id="flow_route_52_duration_20250327_1930.0" depart="0.00" departLane="138002006#0_0" departPos="21.97" departSpeed="0.00" departDelay="0.00" arrival="30.00" arrivalLane="380351865#0_1" arrivalPos="15.21" arrivalSpeed="11.55" duration="30.00" routeLength="234.80" waitingTime="0.00" waitingCount="0" stopTime="0.00" timeLoss="10.17" rerouteNo="0" devices="tripinfo_flow_route_52_duration_20250327_1930.0" vType="car" speedFactor="1.06" vaporized=""/>
    <tripinfo id="flow_route_53_duration_20250327_1930.3" depart="8.00" departLane="138002006#0_0" departPos="35.20" departSpeed="0.00" departDelay="1.08" arrival="30.00" arrivalLane="1369578052#0_0" arrivalPos="56.60" arrivalSpeed="12.33" duration="22.00" routeLength="129.32" waitingTime="0.00" waitingCount="0" stopTime="0.00" timeLoss="13.68" rerouteNo="0" devices="tripinfo_flow_route_53_duration_20250327_1930.3" vType="car" speedFactor="1.09" vaporized=""/>
    <tripinfo id="flow_route_53_duration_20250327_1930.2" depart="6.00" departLane="138002006#0_0" departPos="45.54" departSpeed="0.00" departDelay="1.39" arrival="32.00" arrivalLane="1369578052#0_1" arrivalPos="161.40" arrivalSpeed="15.54" duration="26.00" routeLength="223.78" waitingTime="0.00" waitingCount="0" stopTime="0.00" timeLoss="10.98" rerouteNo="0" devices="tripinfo_flow_route_53_duration_20250327_1930.2" vType="car" speedFactor="0.94" vaporized=""/>
    <tripinfo id="flow_route_67_duration_20250327_1930.1" depart="7.00" departLane="-138002002#2_0" departPos="151.85" departSpeed="0.00" departDelay="0.33" arrival="32.00" arrivalLane="380351865#0_0" arrivalPos="10.81" arrivalSpeed="11.16" duration="25.00" routeLength="192.02" waitingTime="0.00" waitingCount="0" stopTime="0.00" timeLoss="8.33" rerouteNo="0" devices="tripinfo_flow_route_67_duration_20250327_1930.1" vType="car" speedFactor="1.03" vaporized=""/>
    <tripinfo id="flow_route_53_duration_20250327_1930.8" depart="22.00" departLane="138002006#0_0" departPos="84.77" departSpeed="0.00" departDelay="3.54" arrival="32.00" arrivalLane="1369578052#0_0" arrivalPos="16.41" arrivalSpeed="8.07" duration="10.00" routeLength="39.56" waitingTime="0.00" waitingCount="0" stopTime="0.00" timeLoss="7.30" rerouteNo="0" devices="tripinfo_flow_route_53_duration_20250327_1930.8" vType="car" speedFactor="0.97" vaporized=""/>
    <tripinfo id="flow_route_53_duration_20250327_1930.7" depart="19.00" departLane="138002006#0_0" departPos="59.31" departSpeed="0.00" departDelay="2.85" arrival="34.00" arrivalLane="1369578052#0_1" arrivalPos="41.13" arrivalSpeed="11.36" duration="15.00" routeLength="89.74" waitingTime="0.00" waitingCount="0" stopTime="0.00" timeLoss="9.37" rerouteNo="0" devices="tripinfo_flow_route_53_duration_20250327_1930.7" vType="car" speedFactor="1.02" vaporized=""/>
    <tripinfo id="flow_route_67_duration_20250327_1930.0" depart="1.00" departLane="-138002002#2_0" departPos="104.31" departSpeed="0.00" departDelay="1.00" arrival="35.00" arrivalLane="380351865#0_0" arrivalPos="12.69" arrivalSpeed="11.15" duration="34.00" routeLength="241.42" waitingTime="0.00" waitingCount="0" stopTime="0.00" timeLoss="13.67" rerouteNo="0" devices="tripinfo_flow_route_67_duration_20250327_1930.0" vType="car" speedFactor="1.05" vaporized=""/>
    <tripinfo id="flow_route_53_duration_20250327_1930.6" depart="14.00" departLane="138002006#0_0" departPos="11.13" departSpeed="0.00" departDelay="0.16" arrival="38.00" arrivalLane="1369578052#0_0" arrivalPos="61.07" arrivalSpeed="12.05" duration="24.00" routeLength="157.86" waitingTime="0.00" waitingCount="0" stopTime="0.00" timeLoss="13.57" rerouteNo="0" devices="tripinfo_flow_route_53_duration_20250327_1930.6" vType="car" speedFactor="0.94" vaporized=""/>
    <tripinfo id="flow_route_58_duration_20250327_1930.0" depart="0.00" departLane="186407685_0" departPos="1.07" departSpeed="0.00" departDelay="0.00" arrival="48.00" arrivalLane="-138002006#3_1" arrivalPos="43.63" arrivalSpeed="10.59" duration="48.00" routeLength="235.82" waitingTime="13.00" waitingCount="1" stopTime="0.00" timeLoss="32.72" rerouteNo="0" devices="tripinfo_flow_route_58_duration_20250327_1930.0" vType="car" speedFactor="1.08" vaporized=""/>
    <tripinfo id="flow_route_59_duration_20250327_1930.3" depart="13.00" departLane="186407685_0" departPos="121.31" departSpeed="0.00" departDelay="0.15" arrival="51.00" arrivalLane="1369578052#0_0" arrivalPos="5.50" arrivalSpeed="6.06" duration="38.00" routeLength="70.30" waitingTime="12.00" waitingCount="1" stopTime="0.00" timeLoss="32.14" rerouteNo="0" devices="tripinfo_flow_route_59_duration_20250327_1930.3" vType="car" speedFactor="0.88" vaporized=""/>
    <tripinfo id="flow_route_59_duration_20250327_1930.0" depart="0.00" departLane="186407685_0" departPos="119.17" departSpeed="0.00" departDelay="0.00" arrival="56.00" arrivalLane="1369578052#0_0" arrivalPos="108.75" arrivalSpeed="13.92" duration="56.00" routeLength="175.69" waitingTime="24.00" waitingCount="1" stopTime="0.00" timeLoss="43.88" rerouteNo="0" devices="tripinfo_flow_route_59_duration_20250327_1930.0" vType="car" speedFactor="1.03" vaporized=""/>
    <tripinfo id="flow_route_57_duration_20250327_1930.0" depart="0.00" departLane="186407685_0" departPos="131.94" departSpeed="0.00" departDelay="0.00" arrival="58.00" arrivalLane="380351865#0_0" arrivalPos="0.78" arrivalSpeed="10.85" duration="58.00" routeLength="205.45" waitingTime="25.00" waitingCount="1" stopTime="0.00" timeLoss="41.13" rerouteNo="0" devices="tripinfo_flow_route_57_duration_20250327_1930.0" vType="car" speedFactor="1.01" vaporized=""/>
    <tripinfo id="flow_route_59_duration_20250327_1930.4" depart="18.00" departLane="186407685_0" departPos="143.73" departSpeed="0.00" departDelay="0.86" arrival="58.00" arrivalLane="1369578052#0_0" arrivalPos="105.36" arrivalSpeed="13.07" duration="40.00" routeLength="147.75" waitingTime="12.00" waitingCount="1" stopTime="0.00" timeLoss="29.95" rerouteNo="0" devices="tripinfo_flow_route_59_duration_20250327_1930.4" vType="car" speedFactor="1.01" vaporized=""/>
    <tripinfo id="flow_route_59_duration_20250327_1930.1" depart="5.00" departLane="186407685_0" departPos="8.18" departSpeed="0.00" departDelay="0.72" arrival="60.00" arrivalLane="1369578052#0_0" arrivalPos="59.35" arrivalSpeed="10.20" duration="55.00" routeLength="237.28" waitingTime="11.00" waitingCount="1" stopTime="0.00" timeLoss="39.05" rerouteNo="0" devices="tripinfo_flow_route_59_duration_20250327_1930.1" vType="car" speedFactor="0.86" vaporized=""/>
    <tripinfo id="flow_route_59_duration_20250327_1930.2" depart="9.00" departLane="186407685_0" departPos="5.74" departSpeed="0.00" departDelay="0.43" arrival="60.00" arrivalLane="1369578052#0_0" arrivalPos="43.63" arrivalSpeed="9.75" duration="51.00" routeLength="224.00" waitingTime="10.00" waitingCount="1" stopTime="0.00" timeLoss="36.45" rerouteNo="0" devices="tripinfo_flow_route_59_duration_20250327_1930.2" vType="car" speedFactor="1.12" vaporized=""/>
    <tripinfo id="flow_route_57_duration_20250327_1930.1" depart="30.00" departLane="186407685_0" departPos="69.01" departSpeed="0.00" departDelay="0.00" arrival="63.00" arrivalLane="380351865#0_1" arrivalPos="3.63" arrivalSpeed="11.05" duration="33.00" routeLength="271.22" waitingTime="0.00" waitingCount="0" stopTime="0.00" timeLoss="11.45" rerouteNo="0" devices="tripinfo_flow_route_57_duration_20250327_1930.1" vType="car" speedFactor="0.99" vaporized=""/>
    <tripinfo id="flow_route_59_duration_20250327_1930.6" depart="26.00" departLane="186407685_0" departPos="31.99" departSpeed="0.00" departDelay="0.29" arrival="66.00" arrivalLane="1369578052#0_0" arrivalPos="62.49" arrivalSpeed="11.55" duration="40.00" routeLength="216.61" waitingTime="0.00" waitingCount="0" stopTime="0.00" timeLoss="25.89" rerouteNo="0" devices="tripinfo_flow_route_59_duration_20250327_1930.6" vType="car" speedFactor="1.18" vaporized=""/>
    <tripinfo id="flow_route_59_duration_20250327_1930.7" depart="30.00" departLane="186407685_0" departPos="90.81" departSpeed="0.00" departDelay="0.01" arrival="69.00" arrivalLane="1369578052#0_0" arrivalPos="125.10" arrivalSpeed="14.67" duration="39.00" routeLength="220.41" waitingTime="0.00" waitingCount="0" stopTime="0.00" timeLoss="24.86" rerouteNo="0" devices="tripinfo_flow_route_59_duration_20250327_1930.7" vType="car" speedFactor="1.02" vaporized=""/>
    <tripinfo id="flow_route_53_duration_20250327_1930.10" depart="26.00" departLane="138002006#0_0" departPos="50.35" departSpeed="0.00" departDelay="2.93" arrival="71.00" arrivalLane="1369578052#0_1" arrivalPos="12.35" arrivalSpeed="6.70" duration="45.00" routeLength="69.92" waitingTime="26.00" waitingCount="1" stopTime="0.00" timeLoss="40.68" rerouteNo="0" devices="tripinfo_flow_route_53_duration_20250327_1930.10" vType="car" speedFactor="1.13" vaporized=""/>
    <tripinfo id="flow_route_66_duration_20250327_1930.3" depart="23.00" departLane="-138002002#2_0" departPos="170.97" departSpeed="0.00" departDelay="0.50" arrival="72.00" arrivalLane="-138002006#3_1" arrivalPos="24.76" arrivalSpeed="8.72" duration="49.00" routeLength="57.18" waitingTime="32.00" waitingCount="1" stopTime="0.00" timeLoss="45.09" rerouteNo="0" devices="tripinfo_flow_route_66_duration_20250327_1930.3" vType="car" speedFactor="0.95" vaporized=""/>
    <tripinfo id="flow_route_53_duration_20250327_1930.13" depart="30.00" departLane="138002006#0_0" departPos="54.60" departSpeed="0.00" departDelay="0.01" arrival="76.00" arrivalLane="1369578052#0_0" arrivalPos="53.46" arrivalSpeed="10.57" duration="46.00" routeLength="106.78" waitingTime="21.00" waitingCount="1" stopTime="0.00" timeLoss="39.11" rerouteNo="0" devices="tripinfo_flow_route_53_duration_20250327_1930.13" vType="car" speedFactor="1.17" vaporized=""/>
    <tripinfo id="flow_route_53_duration_20250327_1930.15" depart="36.00" departLane="138002006#0_0" departPos="43.74" departSpeed="0.00" departDelay="1.40" arrival="76.00" arrivalLane="1369578052#0_0" arrivalPos="19.30" arrivalSpeed="8.66" duration="40.00" routeLength="83.49" waitingTime="18.00" waitingCount="1" stopTime="0.00" timeLoss="34.39" rerouteNo="0" devices="tripinfo_flow_route_53_duration_20250327_1930.15" vType="car" speedFactor="0.90" vaporized=""/>
    <tripinfo id="flow_route_66_duration_20250327_1930.1" depart="8.00" departLane="-138002002#2_0" departPos="100.27" departSpeed="0.00" departDelay="0.50" arrival="78.00" arrivalLane="-138002006#3_0" arrivalPos="78.80" arrivalSpeed="12.15" duration="70.00" routeLength="181.93" waitingTime="37.00" waitingCount="1" stopTime="0.00" timeLoss="58.85" rerouteNo="0" devices="tripinfo_flow_route_66_duration_20250327_1930.1" vType="car" speedFactor="1.05" vaporized=""/>
    <tripinfo id="flow_route_66_duration_20250327_1930.4" depart="31.00" departLane="-138002002#2_0" departPos="107.77" departSpeed="0.00" departDelay="1.00" arrival="78.00" arrivalLane="-138002006#3_1" arrivalPos="37.57" arrivalSpeed="11.04" duration="47.00" routeLength="133.20" waitingTime="18.00" waitingCount="1" stopTime="0.00" timeLoss="38.27" rerouteNo="0" devices="tripinfo_flow_route_66_duration_20250327_1930.4" vType="car" speedFactor="0.97" vaporized=""/>
    <tripinfo id="flow_route_66_duration_20250327_1930.2" depart="15.00" departLane="-138002002#2_0" departPos="48.64" departSpeed="0.00" departDelay="0.00" arrival="80.00" arrivalLane="-138002006#3_1" arrivalPos="85.63" arrivalSpeed="13.21" duration="65.00" routeLength="240.38" waitingTime="27.00" waitingCount="1" stopTime="0.00" timeLoss="50.03" rerouteNo="0" devices="tripinfo_flow_route_66_duration_20250327_1930.2" vType="car" speedFactor="1.16" vaporized=""/>
    <tripinfo id="flow_route_53_duration_20250327_1930.19" depart="44.00" departLane="138002006#0_0" departPos="58.88" departSpeed="0.00" departDelay="0.17" arrival="80.00" arrivalLane="1369578052#0_0" arrivalPos="28.31" arrivalSpeed="9.89" duration="36.00" routeLength="77.34" waitingTime="17.00" waitingCount="1" stopTime="0.00" timeLoss="30.35" rerouteNo="0" devices="tripinfo_flow_route_53_duration_20250327_1930.19" vType="car" speedFactor="0.85" vaporized=""/>
    <tripinfo id="flow_route_66_duration_20250327_1930.5" depart="38.00" departLane="-138002002#2_0" departPos="75.72" departSpeed="0.00" departDelay="0.50" arrival="81.00" arrivalLane="-138002006#3_1" arrivalPos="50.93" arrivalSpeed="11.93" duration="43.00" routeLength="178.59" waitingTime="10.00" waitingCount="1" stopTime="0.00" timeLoss="32.11" rerouteNo="0" devices="tripinfo_flow_route_66_duration_20250327_1930.5" vType="car" speedFactor="1.09" vaporized=""/>
    <tripinfo id="flow_route_66_duration_20250327_1930.7" depart="56.00" departLane="-138002002#2_0" departPos="61.31" departSpeed="0.00" departDelay="3.50" arrival="81.00" arrivalLane="-138002006#3_1" arrivalPos="1.04" arrivalSpeed="9.15" duration="25.00" routeLength="143.12" waitingTime="0.00" waitingCount="0" stopTime="0.00" timeLoss="15.93" rerouteNo="0" devices="tripinfo_flow_route_66_duration_20250327_1930.7" vType="car" speedFactor="1.14" vaporized=""/>
    <tripinfo id="flow_route_66_duration_20250327_1930.6" depart="45.00" departLane="-138002002#2_0" departPos="51.08" departSpeed="0.00" departDelay="0.00" arrival="83.00" arrivalLane="-138002006#3_1" arrivalPos="38.25" arrivalSpeed="11.56" duration="38.00" routeLength="190.56" waitingTime="4.00" waitingCount="1" stopTime="0.00" timeLoss="23.85" rerouteNo="0" devices="tripinfo_flow_route_66_duration_20250327_1930.6" vType="car" speedFactor="0.85" vaporized=""/>
    <tripinfo id="flow_route_53_duration_20250327_1930.12" depart="28.00" departLane="138002006#0_0" departPos="31.23" departSpeed="0.00" departDelay="0.32" arrival="84.00" arrivalLane="1369578052#0_0" arrivalPos="133.06" arrivalSpeed="15.27" duration="56.00" routeLength="209.75" waitingTime="21.00" waitingCount="1" stopTime="0.00" timeLoss="42.89" rerouteNo="0" devices="tripinfo_flow_route_53_duration_20250327_1930.12" vType="car" speedFactor="1.01" vaporized=""/>
    <tripinfo id="flow_route_53_duration_20250327_1930.18" depart="44.00" departLane="138002006#0_0" departPos="30.59" departSpeed="0.00" departDelay="2.47" arrival="87.00" arrivalLane="1369578052#0_0" arrivalPos="68.50" arrivalSpeed="13.20" duration="43.00" routeLength="145.83" waitingTime="16.00" waitingCount="1" stopTime="0.00" timeLoss="33.20" rerouteNo="0" devices="tripinfo_flow_route_53_duration_20250327_1930.18" vType="car" speedFactor="0.90" vaporized=""/>
    <tripinfo id="flow_route_67_duration_20250327_1930.3" depart="22.00" departLane="-138002002#2_0" departPos="118.20" departSpeed="0.00" departDelay="2.00" arrival="88.00" arrivalLane="380351865#0_0" arrivalPos="11.81" arrivalSpeed="9.09" duration="66.00" routeLength="226.66" waitingTime="27.00" waitingCount="1" stopTime="0.00" timeLoss="42.95" rerouteNo="0" devices="tripinfo_flow_route_67_duration_20250327_1930.3" vType="car" speedFactor="0.83" vaporized=""/>
    <tripinfo id="flow_route_67_duration_20250327_1930.2" depart="14.00" departLane="-138002002#2_0" departPos="75.77" departSpeed="0.00" departDelay="0.67" arrival="89.00" arrivalLane="380351865#0_0" arrivalPos="2.21" arrivalSpeed="9.78" duration="75.00" routeLength="259.48" waitingTime="26.00" waitingCount="1" stopTime="0.00" timeLoss="52.77" rerouteNo="0" devices="tripinfo_flow_route_67_duration_20250327_1930.2" vType="car" speedFactor="0.94" vaporized=""/>
    <tripinfo id="flow_route_53_duration_20250327_1930.16" depart="38.00" departLane="138002006#0_0" departPos="26.30" departSpeed="0.00" departDelay="1.09" arrival="90.00" arrivalLane="1369578052#0_0" arrivalPos="131.01" arrivalSpeed="15.73" duration="52.00" routeLength="212.63" waitingTime="16.00" waitingCount="1" stopTime="0.00" timeLoss="38.09" rerouteNo="0" devices="tripinfo_flow_route_53_duration_20250327_1930.16" vType="car" speedFactor="0.96" vaporized=""/>
    <tripinfo id="flow_route_53_duration_20250327_1930.17" depart="42.00" departLane="138002006#0_0" departPos="3.78" departSpeed="0.00" departDelay="2.78" arrival="90.00" arrivalLane="1369578052#0_0" arrivalPos="85.96" arrivalSpeed="14.03" duration="48.00" routeLength="190.10" waitingTime="14.00" waitingCount="1" stopTime="0.00" timeLoss="36.50" rerouteNo="0" devices="tripinfo_flow_route_53_duration_20250327_1930.17" vType="car" speedFactor="1.09" vaporized=""/>
    <tripinfo id="flow_route_67_duration_20250327_1930.6" depart="40.00" departLane="-138002002#2_0" departPos="131.20" departSpeed="0.00" departDelay="0.00" arrival="92.00" arrivalLane="380351865#0_0" arrivalPos="11.30" arrivalSpeed="10.64" duration="52.00" routeLength="213.15" waitingTime="16.00" waitingCount="1" stopTime="0.00" timeLoss="33.51" rerouteNo="0" devices="tripinfo_flow_route_67_duration_20250327_1930.6" vType="car" speedFactor="1.00" vaporized=""/>
    <tripinfo id="flow_route_67_duration_20250327_1930.4" depart="27.00" departLane="-138002002#2_0" departPos="14.74" departSpeed="0.00" departDelay="0.34" arrival="94.00" arrivalLane="380351865#0_0" arrivalPos="0.80" arrivalSpeed="11.04" duration="67.00" routeLength="319.11" waitingTime="8.00" waitingCount="1" stopTime="0.00" timeLoss="44.45" rerouteNo="0" devices="tripinfo_flow_route_67_duration_20250327_1930.4" vType="car" speedFactor="1.15" vaporized=""/>
    <tripinfo id="flow_route_67_duration_20250327_1930.5" depart="34.00" departLane="-138002002#2_0" departPos="55.77" departSpeed="0.00" departDelay="0.67" arrival="94.00" arrivalLane="380351865#0_0" arrivalPos="16.67" arrivalSpeed="11.79" duration="60.00" routeLength="293.96" waitingTime="9.00" waitingCount="1" stopTime="0.00" timeLoss="37.68" rerouteNo="0" devices="tripinfo_flow_route_67_duration_20250327_1930.5" vType="car" speedFactor="1.10" vaporized=""/>
    <tripinfo id="flow_route_67_duration_20250327_1930.7" depart="50.00" departLane="-138002002#2_0" departPos="30.86" departSpeed="0.00" departDelay="3.34" arrival="97.00" arrivalLane="380351865#0_0" arrivalPos="9.79" arrivalSpeed="11.09" duration="47.00" routeLength="311.98" waitingTime="0.00" waitingCount="0" stopTime="0.00" timeLoss="22.93" rerouteNo="0" devices="tripinfo_flow_route_67_duration_20250327_1930.7" vType="car" speedFactor="1.02" vaporized=""/>
    <tripinfo id="flow_route_53_duration_20250327_1930.24" depart="63.00" departLane="138002006#0_0" departPos="20.06" departSpeed="0.00" departDelay="7.63" arrival="97.00" arrivalLane="1369578052#0_0" arrivalPos="144.52" arrivalSpeed="16.43" duration="34.00" routeLength="232.38" waitingTime="3.00" waitingCount="1" stopTime="0.00" timeLoss="19.89" rerouteNo="0" devices="tripinfo_flow_route_53_duration_20250327_1930.24" vType="car" speedFactor="1.08" vaporized=""/>
    <tripinfo id="flow_route_53_duration_20250327_1930.11" depart="26.00" departLane="138002006#0_0" departPos="18.39" departSpeed="0.00" departDelay="0.62" arrival="98.00" arrivalLane="1369578052#0_0" arrivalPos="57.85" arrivalSpeed="11.44" duration="72.00" routeLength="147.38" waitingTime="36.00" waitingCount="2" stopTime="0.00" timeLoss="61.82" rerouteNo="0" devices="tripinfo_flow_route_53_duration_20250327_1930.11" vType="car" speedFactor="0.93" vaporized=""/>
    <tripinfo id="flow_route_53_duration_20250327_1930.21" depart="52.00" departLane="138002006#0_0" departPos="0.08" departSpeed="0.00" departDelay="3.55" arrival="98.00" arrivalLane="1369578052#0_0" arrivalPos="180.82" arrivalSpeed="16.24" duration="46.00" routeLength="288.66" waitingTime="6.00" waitingCount="1" stopTime="0.00" timeLoss="28.21" rerouteNo="0" devices="tripinfo_flow_route_53_duration_20250327_1930.21" vType="car" speedFactor="1.00" vaporized=""/>
    <tripinfo id="flow_route_53_duration_20250327_1930.25" depart="70.00" departLane="138002006#0_0" departPos="16.91" departSpeed="0.00" departDelay="12.33" arrival="98.00" arrivalLane="1369578052#0_0" arrivalPos="133.30" arrivalSpeed="16.29" duration="28.00" routeLength="224.30" waitingTime="0.00" waitingCount="0" stopTime="0.00" timeLoss="14.34" rerouteNo="0" devices="tripinfo_flow_route_53_duration_20250327_1930.25" vType="car" speedFactor="1.02" vaporized=""/>
    <tripinfo id="flow_route_67_duration_20250327_1930.8" depart="56.00" departLane="-138002002#2_0" departPos="38.22" departSpeed="0.00" departDelay="2.67" arrival="99.00" arrivalLane="380351865#0_0" arrivalPos="14.53" arrivalSpeed="10.37" duration="43.00" routeLength="309.36" waitingTime="0.00" waitingCount="0" stopTime="0.00" timeLoss="18.40" rerouteNo="0" devices="tripinfo_flow_route_67_duration_20250327_1930.8" vType="car" speedFactor="0.97" vaporized=""/>
    <tripinfo id="flow_route_53_duration_20250327_1930.9" depart="26.00" departLane="138002006#0_0" departPos="7.64" departSpeed="0.00" departDelay="5.24" arrival="100.00" arrivalLane="1369578052#0_1" arrivalPos="56.73" arrivalSpeed="11.50" duration="74.00" routeLength="157.02" waitingTime="33.00" waitingCount="2" stopTime="0.00" timeLoss="62.71" rerouteNo="0" devices="tripinfo_flow_route_53_duration_20250327_1930.9" vType="car" speedFactor="0.87" vaporized=""/>
    <tripinfo id="flow_route_53_duration_20250327_1930.14" depart="34.00" departLane="138002006#0_0" departPos="2.12" departSpeed="0.00" departDelay="1.70" arrival="103.00" arrivalLane="1369578052#0_1" arrivalPos="76.90" arrivalSpeed="12.56" duration="69.00" routeLength="182.70" waitingTime="26.00" waitingCount="2" stopTime="0.00" timeLoss="57.92" rerouteNo="0" devices="tripinfo_flow_route_53_duration_20250327_1930.14" vType="car" speedFactor="1.18" vaporized=""/>
    <tripinfo id="flow_route_52_duration_20250327_1930.1" depart="22.00" departLane="138002006#0_0" departPos="16.28" departSpeed="0.00" departDelay="2.00" arrival="104.00" arrivalLane="380351865#0_1" arrivalPos="10.18" arrivalSpeed="9.72" duration="82.00" routeLength="235.46" waitingTime="36.00" waitingCount="2" stopTime="0.00" timeLoss="59.69" rerouteNo="0" devices="tripinfo_flow_route_52_duration_20250327_1930.1" vType="car" speedFactor="0.89" vaporized=""/>
    <tripinfo id="flow_route_59_duration_20250327_1930.5" depart="22.00" departLane="186407685_0" departPos="4.93" departSpeed="0.00" departDelay="0.58" arrival="110.00" arrivalLane="1369578052#0_0" arrivalPos="31.04" arrivalSpeed="8.26" duration="88.00" routeLength="212.22" waitingTime="38.00" waitingCount="1" stopTime="0.00" timeLoss="73.87" rerouteNo="0" devices="tripinfo_flow_route_59_duration_20250327_1930.5" vType="car" speedFactor="0.92" vaporized=""/>
    <tripinfo id="flow_route_52_duration_20250327_1930.2" depart="41.00" departLane="138002006#0_0" departPos="12.53" departSpeed="0.00" departDelay="1.00" arrival="111.00" arrivalLane="380351865#0_1" arrivalPos="1.73" arrivalSpeed="11.21" duration="70.00" routeLength="230.76" waitingTime="25.00" waitingCount="2" stopTime="0.00" timeLoss="51.06" rerouteNo="0" devices="tripinfo_flow_route_52_duration_20250327_1930.2" vType="car" speedFactor="1.04" vaporized=""/>
    <tripinfo id="flow_route_59_duration_20250327_1930.9" depart="46.00" departLane="186407685_0" departPos="67.19" departSpeed="0.00" departDelay="7.44" arrival="115.00" arrivalLane="1369578052#0_0" arrivalPos="63.20" arrivalSpeed="10.71" duration="69.00" routeLength="182.12" waitingTime="36.00" waitingCount="1" stopTime="0.00" timeLoss="57.04" rerouteNo="0" devices="tripinfo_flow_route_59_duration_20250327_1930.9" vType="car" speedFactor="1.04" vaporized=""/>
    <tripinfo id="flow_route_59_duration_20250327_1930.12" depart="54.00" departLane="186407685_0" departPos="69.67" departSpeed="0.00" departDelay="2.58" arrival="123.00" arrivalLane="1369578052#0_0" arrivalPos="86.69" arrivalSpeed="12.09" duration="69.00" routeLength="203.13" waitingTime="31.00" waitingCount="1" stopTime="0.00" timeLoss="54.66" rerouteNo="0" devices="tripinfo_flow_route_59_duration_20250327_1930.12" vType="car" speedFactor="0.90" vaporized=""/>
    <tripinfo id="flow_route_59_duration_20250327_1930.8" depart="41.00" departLane="186407685_0" departPos="22.01" departSpeed="0.00" departDelay="6.72" arrival="124.00" arrivalLane="1369578052#0_0" arrivalPos="161.39" arrivalSpeed="16.32" duration="83.00" routeLength="325.49" waitingTime="36.00" waitingCount="1" stopTime="0.00" timeLoss="61.69" rerouteNo="0" devices="tripinfo_flow_route_59_duration_20250327_1930.8" vType="car" speedFactor="1.03" vaporized=""/>
    <tripinfo id="flow_route_59_duration_20250327_1930.10" depart="47.00" departLane="186407685_0" departPos="18.22" departSpeed="0.00" departDelay="4.15" arrival="129.00" arrivalLane="1369578052#0_0" arrivalPos="124.48" arrivalSpeed="14.31" duration="82.00" routeLength="292.38" waitingTime="30.00" waitingCount="1" stopTime="0.00" timeLoss="61.18" rerouteNo="0" devices="tripinfo_flow_route_59_duration_20250327_1930.10" vType="car" speedFactor="0.88" vaporized=""/>
    <tripinfo id="flow_route_59_duration_20250327_1930.13" depart="59.00" departLane="186407685_0" departPos="27.91" departSpeed="0.00" departDelay="3.30" arrival="129.00" arrivalLane="1369578052#0_0" arrivalPos="85.32" arrivalSpeed="13.13" duration="70.00" routeLength="243.53" waitingTime="27.00" waitingCount="1" stopTime="0.00" timeLoss="54.50" rerouteNo="0" devices="tripinfo_flow_route_59_duration_20250327_1930.13" vType="car" speedFactor="1.12" vaporized=""/>
    <tripinfo id="flow_route_59_duration_20250327_1930.11" depart="48.00" departLane="186407685_0" departPos="2.59" departSpeed="0.00" departDelay="0.87" arrival="132.00" arrivalLane="1369578052#0_0" arrivalPos="151.35" arrivalSpeed="15.73" duration="84.00" routeLength="334.87" waitingTime="28.00" waitingCount="1" stopTime="0.00" timeLoss="62.53" rerouteNo="0" devices="tripinfo_flow_route_59_duration_20250327_1930.11" vType="car" speedFactor="1.10" vaporized=""/>
    <tripinfo id="flow_route_53_duration_20250327_1930.23" depart="62.00" departLane="138002006#0_0" departPos="10.18" departSpeed="0.00" departDelay="8.94" arrival="138.00" arrivalLane="1369578052#0_0" arrivalPos="21.08" arrivalSpeed="8.09" duration="76.00" routeLength="118.82" waitingTime="34.00" waitingCount="2" stopTime="0.00" timeLoss="68.69" rerouteNo="0" devices="tripinfo_flow_route_53_duration_20250327_1930.23" vType="car" speedFactor="1.02" vaporized=""/>
    <tripinfo id="flow_route_53_duration_20250327_1930.22" depart="61.00" departLane="138002006#0_0" departPos="11.50" departSpeed="0.00" departDelay="10.25" arrival="140.00" arrivalLane="1369578052#0_1" arrivalPos="63.75" arrivalSpeed="10.83" duration="79.00" routeLength="160.17" waitingTime="32.00" waitingCount="2" stopTime="0.00" timeLoss="69.17" rerouteNo="0" devices="tripinfo_flow_route_53_duration_20250327_1930.22" vType="car" speedFactor="1.00" vaporized=""/>