<?xml version="1.0" encoding="UTF-8"?>

<!-- generated on 2025-05-06 21:08:27 by Eclipse SUMO sumo Version 1.20.0
<configuration xmlns:xsi="http://www.w3.org/2001/XMLSchema-instance" xsi:noNamespaceSchemaLocation="http://sumo.dlr.de/xsd/sumoConfiguration.xsd">

    <input>
        <net-file value="osm.net.xml"/>
        <route-files value="xml/route_static_cluster3828547534_cluster_1507433914_2954854770_2954854771_2954854772_#9more_4.rou.xml"/>
    </input>

    <output>
        <tripinfo-output value="xml/tripinfo_static_cluster3828547534_cluster_1507433914_2954854770_2954854771_2954854772_#9more_4.xml"/>
    </output>

    <traci_server>
        <remote-port value="36113"/>
    </traci_server>

</configuration>
-->

<tripinfos xmlns:xsi="http://www.w3.org/2001/XMLSchema-instance" xsi:noNamespaceSchemaLocation="http://sumo.dlr.de/xsd/tripinfo_file.xsd">
    <tripinfo id="flow_route_6_duration_20250327_2050.0" depart="0.00" departLane="1252820505#0_0" departPos="39.30" departSpeed="0.00" departDelay="0.00" arrival="18.00" arrivalLane="379698350#0_0" arrivalPos="9.38" arrivalSpeed="14.40" duration="18.00" routeLength="129.45" waitingTime="0.00" waitingCount="0" stopTime="0.00" timeLoss="9.89" rerouteNo="0" devices="tripinfo_flow_route_6_duration_20250327_2050.0" vType="car" speedFactor="1.01" vaporized=""/>
    <tripinfo id="flow_route_22_duration_20250327_2050.0" depart="0.00" departLane="137415945#0_0" departPos="8.70" departSpeed="0.00" departDelay="0.00" arrival="24.00" arrivalLane="1342054204_0" arrivalPos="47.56" arrivalSpeed="15.23" duration="24.00" routeLength="232.19" waitingTime="0.00" waitingCount="0" stopTime="0.00" timeLoss="8.97" rerouteNo="0" devices="tripinfo_flow_route_22_duration_20250327_2050.0" vType="car" speedFactor="0.94" vaporized=""/>
    <tripinfo id="flow_route_10_duration_20250327_2050.0" depart="0.00" departLane="1252820505#0_0" departPos="5.24" departSpeed="0.00" departDelay="0.00" arrival="28.00" arrivalLane="1235147073.116_0" arrivalPos="0.67" arrivalSpeed="13.50" duration="28.00" routeLength="263.17" waitingTime="0.00" waitingCount="0" stopTime="0.00" timeLoss="8.17" rerouteNo="0" devices="tripinfo_flow_route_10_duration_20250327_2050.0" vType="car" speedFactor="0.83" vaporized=""/>
    <tripinfo id="flow_route_24_duration_20250327_2050.0" depart="5.00" departLane="137415945#0_0" departPos="3.01" departSpeed="0.00" departDelay="5.00" arrival="29.00" arrivalLane="137406408#0_0" arrivalPos="0.56" arrivalSpeed="14.90" duration="24.00" routeLength="166.54" waitingTime="0.00" waitingCount="0" stopTime="0.00" timeLoss="13.51" rerouteNo="0" devices="tripinfo_flow_route_24_duration_20250327_2050.0" vType="car" speedFactor="1.09" vaporized=""/>
    <tripinfo id="flow_route_22_duration_20250327_2050.1" depart="6.00" departLane="137415945#0_0" departPos="12.18" departSpeed="0.00" departDelay="3.78" arrival="32.00" arrivalLane="1342054204_0" arrivalPos="81.91" arrivalSpeed="16.25" duration="26.00" routeLength="263.06" waitingTime="0.00" waitingCount="0" stopTime="0.00" timeLoss="10.13" rerouteNo="0" devices="tripinfo_flow_route_22_duration_20250327_2050.1" vType="car" speedFactor="1.03" vaporized=""/>
    <tripinfo id="flow_route_8_duration_20250327_2050.2" depart="10.00" departLane="133000078#0_0" departPos="167.60" departSpeed="0.00" departDelay="0.00" arrival="34.00" arrivalLane="1235147073.116_0" arrivalPos="2.57" arrivalSpeed="16.46" duration="24.00" routeLength="195.15" waitingTime="0.00" waitingCount="0" stopTime="0.00" timeLoss="11.61" rerouteNo="0" devices="tripinfo_flow_route_8_duration_20250327_2050.2" vType="car" speedFactor="1.16" vaporized=""/>
    <tripinfo id="flow_route_8_duration_20250327_2050.0" depart="0.00" departLane="133000078#0_0" departPos="54.62" departSpeed="0.00" departDelay="0.00" arrival="36.00" arrivalLane="1235147073.116_0" arrivalPos="9.03" arrivalSpeed="16.48" duration="36.00" routeLength="314.60" waitingTime="0.00" waitingCount="0" stopTime="0.00" timeLoss="16.15" rerouteNo="0" devices="tripinfo_flow_route_8_duration_20250327_2050.0" vType="car" speedFactor="1.03" vaporized=""/>
    <tripinfo id="flow_route_10_duration_20250327_2050.1" depart="10.00" departLane="1252820505#0_0" departPos="7.74" departSpeed="0.00" departDelay="0.00" arrival="40.00" arrivalLane="1235147073.116_1" arrivalPos="8.75" arrivalSpeed="16.41" duration="30.00" routeLength="268.75" waitingTime="0.00" waitingCount="0" stopTime="0.00" timeLoss="13.05" rerouteNo="0" devices="tripinfo_flow_route_10_duration_20250327_2050.1" vType="car" speedFactor="1.02" vaporized=""/>
    <tripinfo id="flow_route_6_duration_20250327_2050.1" depart="12.00" departLane="1252820505#0_0" departPos="26.75" departSpeed="0.00" departDelay="0.00" arrival="40.00" arrivalLane="379698350#0_0" arrivalPos="147.58" arrivalSpeed="16.37" duration="28.00" routeLength="280.19" waitingTime="0.00" waitingCount="0" stopTime="0.00" timeLoss="10.92" rerouteNo="0" devices="tripinfo_flow_route_6_duration_20250327_2050.1" vType="car" speedFactor="1.01" vaporized=""/>
    <tripinfo id="flow_route_8_duration_20250327_2050.1" depart="6.00" departLane="133000078#0_0" departPos="6.16" departSpeed="0.00" departDelay="1.00" arrival="41.00" arrivalLane="1235147073.116_0" arrivalPos="6.07" arrivalSpeed="16.18" duration="35.00" routeLength="360.09" waitingTime="0.00" waitingCount="0" stopTime="0.00" timeLoss="11.86" rerouteNo="0" devices="tripinfo_flow_route_8_duration_20250327_2050.1" vType="car" speedFactor="1.05" vaporized=""/>
    <tripinfo id="flow_route_11_duration_20250327_2050.1" depart="22.00" departLane="1252820505#0_0" departPos="44.57" departSpeed="0.00" departDelay="2.00" arrival="41.00" arrivalLane="137406408#0_2" arrivalPos="4.32" arrivalSpeed="9.49" duration="19.00" routeLength="121.33" waitingTime="0.00" waitingCount="0" stopTime="0.00" timeLoss="11.08" rerouteNo="0" devices="tripinfo_flow_route_11_duration_20250327_2050.1" vType="car" speedFactor="0.99" vaporized=""/>
    <tripinfo id="flow_route_11_duration_20250327_2050.0" depart="0.00" departLane="1252820505#0_0" departPos="76.11" departSpeed="0.00" departDelay="0.00" arrival="45.00" arrivalLane="137406408#0_2" arrivalPos="68.60" arrivalSpeed="12.42" duration="45.00" routeLength="154.08" waitingTime="15.00" waitingCount="1" stopTime="0.00" timeLoss="35.25" rerouteNo="0" devices="tripinfo_flow_route_11_duration_20250327_2050.0" vType="car" speedFactor="1.05" vaporized=""/>
    <tripinfo id="flow_route_10_duration_20250327_2050.2" depart="20.00" departLane="1252820505#0_0" departPos="25.21" departSpeed="0.00" departDelay="0.00" arrival="46.00" arrivalLane="1235147073.116_0" arrivalPos="2.77" arrivalSpeed="16.52" duration="26.00" routeLength="245.30" waitingTime="0.00" waitingCount="0" stopTime="0.00" timeLoss="11.03" rerouteNo="0" devices="tripinfo_flow_route_10_duration_20250327_2050.2" vType="car" speedFactor="1.17" vaporized=""/>
    <tripinfo id="flow_route_5_duration_20250327_2050.0" depart="0.00" departLane="291974733#0_0" departPos="43.68" departSpeed="0.00" departDelay="0.00" arrival="57.00" arrivalLane="1342054204_0" arrivalPos="62.15" arrivalSpeed="13.71" duration="57.00" routeLength="156.72" waitingTime="28.00" waitingCount="1" stopTime="0.00" timeLoss="45.46" rerouteNo="0" devices="tripinfo_flow_route_5_duration_20250327_2050.0" vType="car" speedFactor="0.94" vaporized=""/>
    <tripinfo id="flow_route_5_duration_20250327_2050.1" depart="31.00" departLane="291974733#0_0" departPos="63.28" departSpeed="0.00" departDelay="1.00" arrival="57.00" arrivalLane="1342054204_0" arrivalPos="40.68" arrivalSpeed="11.77" duration="26.00" routeLength="115.65" waitingTime="2.00" waitingCount="1" stopTime="0.00" timeLoss="18.42" rerouteNo="0" devices="tripinfo_flow_route_5_duration_20250327_2050.1" vType="car" speedFactor="1.09" vaporized=""/>
    <tripinfo id="flow_route_8_duration_20250327_2050.6" depart="31.00" departLane="133000078#0_0" departPos="201.98" departSpeed="0.00" departDelay="1.00" arrival="58.00" arrivalLane="1235147073.116_0" arrivalPos="11.96" arrivalSpeed="14.87" duration="27.00" routeLength="170.16" waitingTime="1.00" waitingCount="1" stopTime="0.00" timeLoss="14.03" rerouteNo="0" devices="tripinfo_flow_route_8_duration_20250327_2050.6" vType="car" speedFactor="0.90" vaporized=""/>
    <tripinfo id="flow_route_8_duration_20250327_2050.8" depart="40.00" departLane="133000078#0_0" departPos="189.68" departSpeed="0.00" departDelay="0.00" arrival="61.00" arrivalLane="1235147073.116_0" arrivalPos="5.29" arrivalSpeed="16.43" duration="21.00" routeLength="175.80" waitingTime="0.00" waitingCount="0" stopTime="0.00" timeLoss="9.52" rerouteNo="0" devices="tripinfo_flow_route_8_duration_20250327_2050.8" vType="car" speedFactor="1.08" vaporized=""/>
    <tripinfo id="flow_route_23_duration_20250327_2050.0" depart="0.00" departLane="137415945#0_0" departPos="0.59" departSpeed="0.00" departDelay="0.00" arrival="64.00" arrivalLane="379698350#0_2" arrivalPos="153.67" arrivalSpeed="14.20" duration="64.00" routeLength="345.44" waitingTime="19.00" waitingCount="1" stopTime="0.00" timeLoss="39.23" rerouteNo="0" devices="tripinfo_flow_route_23_duration_20250327_2050.0" vType="car" speedFactor="0.86" vaporized=""/>
    <tripinfo id="flow_route_8_duration_20250327_2050.7" depart="36.00" departLane="133000078#0_0" departPos="169.54" departSpeed="0.00" departDelay="1.00" arrival="65.00" arrivalLane="1235147073.116_0" arrivalPos="9.02" arrivalSpeed="16.47" duration="29.00" routeLength="199.66" waitingTime="0.00" waitingCount="0" stopTime="0.00" timeLoss="15.65" rerouteNo="0" devices="tripinfo_flow_route_8_duration_20250327_2050.7" vType="car" speedFactor="1.10" vaporized=""/>
    <tripinfo id="flow_route_4_duration_20250327_2050.0" depart="0.00" departLane="291974733#0_0" departPos="63.06" departSpeed="0.00" departDelay="0.00" arrival="66.00" arrivalLane="379698350#0_0" arrivalPos="183.76" arrivalSpeed="16.39" duration="66.00" routeLength="311.60" waitingTime="28.00" waitingCount="1" stopTime="0.00" timeLoss="46.49" rerouteNo="0" devices="tripinfo_flow_route_4_duration_20250327_2050.0" vType="car" speedFactor="1.06" vaporized=""/>
    <tripinfo id="flow_route_8_duration_20250327_2050.5" depart="25.00" departLane="133000078#0_0" departPos="101.73" departSpeed="0.00" departDelay="0.00" arrival="67.00" arrivalLane="1235147073.116_0" arrivalPos="13.40" arrivalSpeed="16.50" duration="42.00" routeLength="271.86" waitingTime="0.00" waitingCount="0" stopTime="0.00" timeLoss="24.43" rerouteNo="0" devices="tripinfo_flow_route_8_duration_20250327_2050.5" vType="car" speedFactor="1.03" vaporized=""/>
    <tripinfo id="flow_route_23_duration_20250327_2050.1" depart="18.00" departLane="137415945#0_0" departPos="4.00" departSpeed="0.00" departDelay="12.00" arrival="68.00" arrivalLane="379698350#0_2" arrivalPos="157.67" arrivalSpeed="16.41" duration="50.00" routeLength="346.03" waitingTime="3.00" waitingCount="1" stopTime="0.00" timeLoss="28.00" rerouteNo="0" devices="tripinfo_flow_route_23_duration_20250327_2050.1" vType="car" speedFactor="0.99" vaporized=""/>
    <tripinfo id="flow_route_6_duration_20250327_2050.2" depart="24.00" departLane="1252820505#0_0" departPos="9.10" departSpeed="0.00" departDelay="0.00" arrival="68.00" arrivalLane="379698350#0_0" arrivalPos="86.04" arrivalSpeed="15.53" duration="44.00" routeLength="236.31" waitingTime="8.00" waitingCount="1" stopTime="0.00" timeLoss="28.88" rerouteNo="0" devices="tripinfo_flow_route_6_duration_20250327_2050.2" vType="car" speedFactor="1.18" vaporized=""/>
    <tripinfo id="flow_route_8_duration_20250327_2050.4" depart="20.00" departLane="133000078#0_0" departPos="72.65" departSpeed="0.00" departDelay="0.00" arrival="69.00" arrivalLane="1235147073.116_0" arrivalPos="3.17" arrivalSpeed="16.26" duration="49.00" routeLength="290.70" waitingTime="0.00" waitingCount="0" stopTime="0.00" timeLoss="30.49" rerouteNo="0" devices="tripinfo_flow_route_8_duration_20250327_2050.4" vType="car" speedFactor="1.01" vaporized=""/>
    <tripinfo id="flow_route_8_duration_20250327_2050.3" depart="15.00" departLane="133000078#0_0" departPos="31.35" departSpeed="0.00" departDelay="0.00" arrival="71.00" arrivalLane="1235147073.116_0" arrivalPos="2.81" arrivalSpeed="14.92" duration="56.00" routeLength="331.64" waitingTime="0.00" waitingCount="0" stopTime="0.00" timeLoss="33.32" rerouteNo="0" devices="tripinfo_flow_route_8_duration_20250327_2050.3" vType="car" speedFactor="0.92" vaporized=""/>
    <tripinfo id="flow_route_6_duration_20250327_2050.3" depart="36.00" departLane="1252820505#0_0" departPos="47.74" departSpeed="0.00" departDelay="0.00" arrival="72.00" arrivalLane="379698350#0_0" arrivalPos="122.24" arrivalSpeed="16.54" duration="36.00" routeLength="233.87" waitingTime="2.00" waitingCount="1" stopTime="0.00" timeLoss="21.05" rerouteNo="0" devices="tripinfo_flow_route_6_duration_20250327_2050.3" vType="car" speedFactor="1.00" vaporized=""/>
    <tripinfo id="flow_route_23_duration_20250327_2050.2" depart="37.00" departLane="137415945#0_0" departPos="0.19" departSpeed="0.00" departDelay="25.00" arrival="74.00" arrivalLane="379698350#0_2" arrivalPos="142.64" arrivalSpeed="14.74" duration="37.00" routeLength="334.80" waitingTime="0.00" waitingCount="0" stopTime="0.00" timeLoss="13.93" rerouteNo="0" devices="tripinfo_flow_route_23_duration_20250327_2050.2" vType="car" speedFactor="0.89" vaporized=""/>
    <tripinfo id="flow_route_23_duration_20250327_2050.3" depart="55.00" departLane="137415945#0_0" departPos="5.13" departSpeed="0.00" departDelay="37.00" arrival="79.00" arrivalLane="379698350#0_2" arrivalPos="36.91" arrivalSpeed="16.24" duration="24.00" routeLength="224.13" waitingTime="0.00" waitingCount="0" stopTime="0.00" timeLoss="9.92" rerouteNo="0" devices="tripinfo_flow_route_23_duration_20250327_2050.3" vType="car" speedFactor="1.18" vaporized=""/>
    <tripinfo id="flow_route_8_duration_20250327_2050.11" depart="56.00" departLane="133000078#0_0" departPos="153.02" departSpeed="0.00" departDelay="1.00" arrival="83.00" arrivalLane="1235147073.116_0" arrivalPos="12.14" arrivalSpeed="16.36" duration="27.00" routeLength="219.30" waitingTime="0.00" waitingCount="0" stopTime="0.00" timeLoss="11.99" rerouteNo="0" devices="tripinfo_flow_route_8_duration_20250327_2050.11" vType="car" speedFactor="1.02" vaporized=""/>
    <tripinfo id="flow_route_8_duration_20250327_2050.9" depart="45.00" departLane="133000078#0_0" departPos="68.72" departSpeed="0.00" departDelay="0.00" arrival="84.00" arrivalLane="1235147073.116_0" arrivalPos="12.00" arrivalSpeed="16.26" duration="39.00" routeLength="303.46" waitingTime="0.00" waitingCount="0" stopTime="0.00" timeLoss="19.65" rerouteNo="0" devices="tripinfo_flow_route_8_duration_20250327_2050.9" vType="car" speedFactor="1.04" vaporized=""/>
    <tripinfo id="flow_route_8_duration_20250327_2050.10" depart="50.00" departLane="133000078#0_0" departPos="47.03" departSpeed="0.00" departDelay="0.00" arrival="88.00" arrivalLane="1235147073.116_0" arrivalPos="12.09" arrivalSpeed="16.40" duration="38.00" routeLength="325.24" waitingTime="0.00" waitingCount="0" stopTime="0.00" timeLoss="16.61" rerouteNo="0" devices="tripinfo_flow_route_8_duration_20250327_2050.10" vType="car" speedFactor="0.98" vaporized=""/>
    <tripinfo id="flow_route_12_duration_20250327_2050.0" depart="0.00" departLane="133000078#0_0" departPos="66.48" departSpeed="0.00" departDelay="0.00" arrival="92.00" arrivalLane="1342054204_3" arrivalPos="21.59" arrivalSpeed="13.28" duration="92.00" routeLength="252.91" waitingTime="52.00" waitingCount="1" stopTime="0.00" timeLoss="74.53" rerouteNo="0" devices="tripinfo_flow_route_12_duration_20250327_2050.0" vType="car" speedFactor="0.89" vaporized=""/>
    <tripinfo id="flow_route_7_duration_20250327_2050.0" depart="0.00" departLane="133000078#0_0" departPos="116.92" departSpeed="0.00" departDelay="0.00" arrival="94.00" arrivalLane="137406408#0_1" arrivalPos="45.36" arrivalSpeed="15.52" duration="94.00" routeLength="233.24" waitingTime="56.00" waitingCount="1" stopTime="0.00" timeLoss="79.35" rerouteNo="0" devices="tripinfo_flow_route_7_duration_20250327_2050.0" vType="car" speedFactor="1.08" vaporized=""/>
    <tripinfo id="flow_route_12_duration_20250327_2050.1" depart="9.00" departLane="133000078#0_0" departPos="46.07" departSpeed="0.00" departDelay="0.43" arrival="95.00" arrivalLane="1342054204_3" arrivalPos="35.88" arrivalSpeed="14.33" duration="86.00" routeLength="287.61" waitingTime="44.00" waitingCount="1" stopTime="0.00" timeLoss="67.15" rerouteNo="0" devices="tripinfo_flow_route_12_duration_20250327_2050.1" vType="car" speedFactor="0.94" vaporized=""/>
    <tripinfo id="flow_route_12_duration_20250327_2050.2" depart="18.00" departLane="133000078#0_0" departPos="17.76" departSpeed="0.00" departDelay="0.86" arrival="100.00" arrivalLane="1342054204_3" arrivalPos="80.96" arrivalSpeed="16.27" duration="82.00" routeLength="361.00" waitingTime="35.00" waitingCount="1" stopTime="0.00" timeLoss="59.52" rerouteNo="0" devices="tripinfo_flow_route_12_duration_20250327_2050.2" vType="car" speedFactor="1.13" vaporized=""/>
    <tripinfo id="flow_route_12_duration_20250327_2050.4" depart="36.00" departLane="133000078#0_0" departPos="195.08" departSpeed="0.00" departDelay="1.72" arrival="101.00" arrivalLane="1342054204_3" arrivalPos="24.19" arrivalSpeed="13.03" duration="65.00" routeLength="126.91" waitingTime="42.00" waitingCount="2" stopTime="0.00" timeLoss="56.76" rerouteNo="0" devices="tripinfo_flow_route_12_duration_20250327_2050.4" vType="car" speedFactor="1.00" vaporized=""/>
    <tripinfo id="flow_route_12_duration_20250327_2050.3" depart="29.00" departLane="133000078#0_0" departPos="20.96" departSpeed="0.00" departDelay="3.29" arrival="103.00" arrivalLane="1342054204_3" arrivalPos="37.08" arrivalSpeed="13.94" duration="74.00" routeLength="313.92" waitingTime="25.00" waitingCount="1" stopTime="0.00" timeLoss="54.95" rerouteNo="0" devices="tripinfo_flow_route_12_duration_20250327_2050.3" vType="car" speedFactor="1.09" vaporized=""/>
    <tripinfo id="flow_route_7_duration_20250327_2050.1" depart="30.00" departLane="133000078#0_0" departPos="76.73" departSpeed="0.00" departDelay="0.00" arrival="105.00" arrivalLane="137406408#0_1" arrivalPos="61.09" arrivalSpeed="16.28" duration="75.00" routeLength="289.16" waitingTime="31.00" waitingCount="1" stopTime="0.00" timeLoss="56.71" rerouteNo="0" devices="tripinfo_flow_route_7_duration_20250327_2050.1" vType="car" speedFactor="1.00" vaporized=""/>
    <tripinfo id="flow_route_12_duration_20250327_2050.6" depart="52.00" departLane="133000078#0_0" departPos="39.34" departSpeed="0.00" departDelay="0.57" arrival="106.00" arrivalLane="1342054204_3" arrivalPos="21.85" arrivalSpeed="14.82" duration="54.00" routeLength="280.31" waitingTime="8.00" waitingCount="1" stopTime="0.00" timeLoss="36.29" rerouteNo="0" devices="tripinfo_flow_route_12_duration_20250327_2050.6" vType="car" speedFactor="0.98" vaporized=""/>
    <tripinfo id="flow_route_12_duration_20250327_2050.5" depart="43.00" departLane="133000078#0_0" departPos="100.65" departSpeed="0.00" departDelay="0.15" arrival="107.00" arrivalLane="1342054204_3" arrivalPos="71.47" arrivalSpeed="14.94" duration="64.00" routeLength="268.62" waitingTime="19.00" waitingCount="1" stopTime="0.00" timeLoss="46.02" rerouteNo="0" devices="tripinfo_flow_route_12_duration_20250327_2050.5" vType="car" speedFactor="0.91" vaporized=""/>
    <tripinfo id="flow_route_24_duration_20250327_2050.1" depart="21.00" departLane="137415945#0_0" departPos="8.64" departSpeed="0.00" departDelay="15.00" arrival="139.00" arrivalLane="137406408#0_0" arrivalPos="14.69" arrivalSpeed="10.20" duration="118.00" routeLength="175.05" waitingTime="86.00" waitingCount="1" stopTime="0.00" timeLoss="105.82" rerouteNo="0" devices="tripinfo_flow_route_24_duration_20250327_2050.1" vType="car" speedFactor="0.93" vaporized=""/>
    <tripinfo id="flow_route_22_duration_20250327_2050.3" depart="24.00" departLane="137415945#0_0" departPos="0.30" departSpeed="0.00" departDelay="17.33" arrival="140.00" arrivalLane="1342054204_1" arrivalPos="28.90" arrivalSpeed="11.76" duration="116.00" routeLength="221.93" waitingTime="79.00" waitingCount="1" stopTime="0.00" timeLoss="100.84" rerouteNo="0" devices="tripinfo_flow_route_22_duration_20250327_2050.3" vType="car" speedFactor="0.88" vaporized=""/>
    <tripinfo id="flow_route_22_duration_20250327_2050.2" depart="13.00" departLane="137415945#0_0" departPos="6.27" departSpeed="0.00" departDelay="8.56" arrival="142.00" arrivalLane="1342054204_0" arrivalPos="47.48" arrivalSpeed="13.22" duration="129.00" routeLength="234.54" waitingTime="91.00" waitingCount="1" stopTime="0.00" timeLoss="114.35" rerouteNo="0" devices="tripinfo_flow_route_22_duration_20250327_2050.2" vType="car" speedFactor="1.12" vaporized=""/>
    <tripinfo id="flow_route_22_duration_20250327_2050.6" depart="40.00" departLane="137415945#0_0" departPos="0.01" departSpeed="0.00" departDelay="26.67" arrival="143.00" arrivalLane="1342054204_1" arrivalPos="14.69" arrivalSpeed="11.45" duration="103.00" routeLength="208.01" waitingTime="67.00" waitingCount="1" stopTime="0.00" timeLoss="88.47" rerouteNo="0" devices="tripinfo_flow_route_22_duration_20250327_2050.6" vType="car" speedFactor="0.87" vaporized=""/>
    <tripinfo id="flow_route_22_duration_20250327_2050.7" depart="46.00" departLane="137415945#0_0" departPos="2.64" departSpeed="0.00" departDelay="30.45" arrival="144.00" arrivalLane="1342054204_1" arrivalPos="2.43" arrivalSpeed="11.13" duration="98.00" routeLength="193.12" waitingTime="62.00" waitingCount="1" stopTime="0.00" timeLoss="85.39" rerouteNo="0" devices="tripinfo_flow_route_22_duration_20250327_2050.7" vType="car" speedFactor="0.95" vaporized=""/>
    <tripinfo id="flow_route_22_duration_20250327_2050.5" depart="32.00" departLane="137415945#0_0" departPos="1.95" departSpeed="0.00" departDelay="20.89" arrival="146.00" arrivalLane="1342054204_0" arrivalPos="52.01" arrivalSpeed="13.45" duration="114.00" routeLength="243.38" waitingTime="75.00" waitingCount="1" stopTime="0.00" timeLoss="98.62" rerouteNo="0" devices="tripinfo_flow_route_22_duration_20250327_2050.5" vType="car" speedFactor="0.97" vaporized=""/>
    <tripinfo id="flow_route_22_duration_20250327_2050.8" depart="50.00" departLane="137415945#0_0" departPos="1.24" departSpeed="0.00" departDelay="32.22" arrival="146.00" arrivalLane="1342054204_0" arrivalPos="5.84" arrivalSpeed="12.27" duration="96.00" routeLength="197.93" waitingTime="61.00" waitingCount="1" stopTime="0.00" timeLoss="82.95" rerouteNo="0" devices="tripinfo_flow_route_22_duration_20250327_2050.8" vType="car" speedFactor="0.93" vaporized=""/>
    <tripinfo id="flow_route_22_duration_20250327_2050.9" depart="64.00" departLane="137415945#0_0" departPos="7.70" departSpeed="0.00" departDelay="44.00" arrival="146.00" arrivalLane="1342054204_1" arrivalPos="6.98" arrivalSpeed="11.99" duration="82.00" routeLength="192.61" waitingTime="48.00" waitingCount="1" stopTime="0.00" timeLoss="70.12" rerouteNo="0" devices="tripinfo_flow_route_22_duration_20250327_2050.9" vType="car" speedFactor="1.02" vaporized=""/>
    <tripinfo id="flow_route_10_duration_20250327_2050.3" depart="30.00" departLane="1252820505#0_0" departPos="3.70" departSpeed="0.00" departDelay="0.00" arrival="146.00" arrivalLane="1235147073.116_1" arrivalPos="4.31" arrivalSpeed="14.40" duration="116.00" routeLength="268.34" waitingTime="78.00" waitingCount="1" stopTime="0.00" timeLoss="97.61" rerouteNo="0" devices="tripinfo_flow_route_10_duration_20250327_2050.3" vType="car" speedFactor="0.88" vaporized=""/>
    <tripinfo id="flow_route_22_duration_20250327_2050.4" depart="30.00" departLane="137415945#0_0" departPos="9.08" departSpeed="0.00" departDelay="21.11" arrival="147.00" arrivalLane="1342054204_1" arrivalPos="84.14" arrivalSpeed="15.17" duration="117.00" routeLength="268.39" waitingTime="77.00" waitingCount="1" stopTime="0.00" timeLoss="98.96" rerouteNo="0" devices="tripinfo_flow_route_22_duration_20250327_2050.4" vType="car" speedFactor="0.94" vaporized=""/>
    <tripinfo id="flow_route_10_duration_20250327_2050.4" depart="40.00" departLane="1252820505#0_0" departPos="1.01" departSpeed="0.00" departDelay="0.00" arrival="147.00" arrivalLane="1235147073.116_0" arrivalPos="12.22" arrivalSpeed="16.53" duration="107.00" routeLength="278.94" waitingTime="67.00" waitingCount="1" stopTime="0.00" timeLoss="89.44" rerouteNo="0" devices="tripinfo_flow_route_10_duration_20250327_2050.4" vType="car" speedFactor="1.12" vaporized=""/>
    <tripinfo id="flow_route_10_duration_20250327_2050.5" depart="51.00" departLane="1252820505#0_0" departPos="27.89" departSpeed="0.00" departDelay="1.00" arrival="148.00" arrivalLane="1235147073.116_0" arrivalPos="1.76" arrivalSpeed="16.14" duration="97.00" routeLength="241.61" waitingTime="61.00" waitingCount="1" stopTime="0.00" timeLoss="81.94" rerouteNo="0" devices="tripinfo_flow_route_10_duration_20250327_2050.5" vType="car" speedFactor="1.03" vaporized=""/>
    <tripinfo id="flow_route_24_duration_20250327_2050.2" depart="39.00" departLane="137415945#0_0" departPos="11.50" departSpeed="0.00" departDelay="27.00" arrival="149.00" arrivalLane="137406408#0_0" arrivalPos="86.31" arrivalSpeed="13.58" duration="110.00" routeLength="243.81" waitingTime="70.00" waitingCount="1" stopTime="0.00" timeLoss="91.21" rerouteNo="0" devices="tripinfo_flow_route_24_duration_20250327_2050.2" vType="car" speedFactor="0.83" vaporized=""/>
    <tripinfo id="flow_route_24_duration_20250327_2050.3" depart="58.00" departLane="137415945#0_0" departPos="5.80" departSpeed="0.00" departDelay="40.00" arrival="152.00" arrivalLane="137406408#0_0" arrivalPos="91.59" arrivalSpeed="15.95" duration="94.00" routeLength="254.79" waitingTime="55.00" waitingCount="1" stopTime="0.00" timeLoss="78.46" rerouteNo="0" devices="tripinfo_flow_route_24_duration_20250327_2050.3" vType="car" speedFactor="1.15" vaporized=""/>
    <tripinfo id="flow_route_22_duration_20250327_2050.10" depart="67.00" departLane="137415945#0_0" departPos="1.40" departSpeed="0.00" departDelay="44.78" arrival="152.00" arrivalLane="1342054204_1" arrivalPos="72.01" arrivalSpeed="15.85" duration="85.00" routeLength="263.95" waitingTime="46.00" waitingCount="1" stopTime="0.00" timeLoss="68.72" rerouteNo="0" devices="tripinfo_flow_route_22_duration_20250327_2050.10" vType="car" speedFactor="0.97" vaporized=""/>
    <tripinfo id="flow_route_24_duration_20250327_2050.5" depart="95.00" departLane="137415945#0_0" departPos="6.45" departSpeed="0.00" departDelay="65.00" arrival="152.00" arrivalLane="137406408#0_0" arrivalPos="11.47" arrivalSpeed="12.63" duration="57.00" routeLength="174.02" waitingTime="24.00" waitingCount="1" stopTime="0.00" timeLoss="44.32" rerouteNo="0" devices="tripinfo_flow_route_24_duration_20250327_2050.5" vType="car" speedFactor="0.85" vaporized=""/>
    <tripinfo id="flow_route_6_duration_20250327_2050.4" depart="48.00" departLane="1252820505#0_0" departPos="13.70" departSpeed="0.00" departDelay="0.00" arrival="152.00" arrivalLane="379698350#0_0" arrivalPos="149.14" arrivalSpeed="16.05" duration="104.00" routeLength="294.81" waitingTime="60.00" waitingCount="1" stopTime="0.00" timeLoss="85.65" rerouteNo="0" devices="tripinfo_flow_route_6_duration_20250327_2050.4" vType="car" speedFactor="0.97" vaporized=""/>
    <tripinfo id="flow_route_22_duration_20250327_2050.11" depart="75.00" departLane="137415945#0_0" departPos="2.39" departSpeed="0.00" departDelay="50.56" arrival="153.00" arrivalLane="1342054204_1" arrivalPos="54.54" arrivalSpeed="15.83" duration="78.00" routeLength="245.48" waitingTime="38.00" waitingCount="1" stopTime="0.00" timeLoss="62.36" rerouteNo="0" devices="tripinfo_flow_route_22_duration_20250327_2050.11" vType="car" speedFactor="0.96" vaporized=""/>
    <tripinfo id="flow_route_22_duration_20250327_2050.13" depart="86.00" departLane="137415945#0_0" departPos="0.62" departSpeed="0.00" departDelay="57.11" arrival="153.00" arrivalLane="1342054204_1" arrivalPos="29.91" arrivalSpeed="14.82" duration="67.00" routeLength="222.62" waitingTime="31.00" waitingCount="1" stopTime="0.00" timeLoss="53.33" rerouteNo="0" devices="tripinfo_flow_route_22_duration_20250327_2050.13" vType="car" speedFactor="1.04" vaporized=""/>
    <tripinfo id="flow_route_24_duration_20250327_2050.4" depart="74.00" departLane="137415945#0_0" departPos="11.66" departSpeed="0.00" departDelay="50.00" arrival="154.00" arrivalLane="137406408#0_0" arrivalPos="90.16" arrivalSpeed="14.87" duration="80.00" routeLength="247.50" waitingTime="42.00" waitingCount="1" stopTime="0.00" timeLoss="62.72" rerouteNo="0" devices="tripinfo_flow_route_24_duration_20250327_2050.4" vType="car" speedFactor="0.90" vaporized=""/>
    <tripinfo id="flow_route_22_duration_20250327_2050.12" depart="81.00" departLane="137415945#0_0" departPos="3.94" departSpeed="0.00" departDelay="54.34" arrival="157.00" arrivalLane="1342054204_0" arrivalPos="76.22" arrivalSpeed="16.20" duration="76.00" routeLength="265.61" waitingTime="36.00" waitingCount="1" stopTime="0.00" timeLoss="59.10" rerouteNo="0" devices="tripinfo_flow_route_22_duration_20250327_2050.12" vType="car" speedFactor="1.04" vaporized=""/>
    <tripinfo id="flow_route_22_duration_20250327_2050.14" depart="99.00" departLane="137415945#0_0" departPos="4.90" departSpeed="0.00" departDelay="67.89" arrival="158.00" arrivalLane="1342054204_1" arrivalPos="73.75" arrivalSpeed="16.45" duration="59.00" routeLength="262.18" waitingTime="19.00" waitingCount="1" stopTime="0.00" timeLoss="42.78" rerouteNo="0" devices="tripinfo_flow_route_22_duration_20250327_2050.14" vType="car" speedFactor="1.17" vaporized=""/>