<?xml version="1.0" encoding="UTF-8"?>

<!-- generated on 2025-05-06 21:08:05 by Eclipse SUMO sumo Version 1.20.0
<configuration xmlns:xsi="http://www.w3.org/2001/XMLSchema-instance" xsi:noNamespaceSchemaLocation="http://sumo.dlr.de/xsd/sumoConfiguration.xsd">

    <input>
        <net-file value="osm.net.xml"/>
        <route-files value="xml/route_static_cluster_11648561428_407729599_2.rou.xml"/>
    </input>

    <output>
        <tripinfo-output value="xml/tripinfo_static_cluster_11648561428_407729599_2.xml"/>
    </output>

    <traci_server>
        <remote-port value="40895"/>
    </traci_server>

</configuration>
-->

<tripinfos xmlns:xsi="http://www.w3.org/2001/XMLSchema-instance" xsi:noNamespaceSchemaLocation="http://sumo.dlr.de/xsd/tripinfo_file.xsd">
    <tripinfo id="flow_route_106_duration_20250327_2040.0" depart="0.00" departLane="1254519229#0_0" departPos="19.69" departSpeed="0.00" departDelay="0.00" arrival="17.00" arrivalLane="430416184_1" arrivalPos="13.15" arrivalSpeed="9.33" duration="17.00" routeLength="94.14" waitingTime="0.00" waitingCount="0" stopTime="0.00" timeLoss="10.50" rerouteNo="0" devices="tripinfo_flow_route_106_duration_20250327_2040.0" vType="car" speedFactor="1.01" vaporized=""/>
    <tripinfo id="flow_route_107_duration_20250327_2040.0" depart="0.00" departLane="1254519229#0_0" departPos="43.39" departSpeed="0.00" departDelay="0.00" arrival="20.00" arrivalLane="1342963997_0" arrivalPos="88.24" arrivalSpeed="14.75" duration="20.00" routeLength="145.44" waitingTime="0.00" waitingCount="0" stopTime="0.00" timeLoss="10.92" rerouteNo="0" devices="tripinfo_flow_route_107_duration_20250327_2040.0" vType="car" speedFactor="1.08" vaporized=""/>
    <tripinfo id="flow_route_106_duration_20250327_2040.1" depart="20.00" departLane="1254519229#0_0" departPos="69.67" departSpeed="0.00" departDelay="0.00" arrival="31.00" arrivalLane="430416184_1" arrivalPos="17.43" arrivalSpeed="8.68" duration="11.00" routeLength="48.44" waitingTime="0.00" waitingCount="0" stopTime="0.00" timeLoss="7.02" rerouteNo="0" devices="tripinfo_flow_route_106_duration_20250327_2040.1" vType="car" speedFactor="0.94" vaporized=""/>
    <tripinfo id="flow_route_101_duration_20250327_2040.0" depart="0.00" departLane="186409193_0" departPos="43.42" departSpeed="0.00" departDelay="0.00" arrival="34.00" arrivalLane="430416184_0" arrivalPos="206.05" arrivalSpeed="16.21" duration="34.00" routeLength="297.12" waitingTime="0.00" waitingCount="0" stopTime="0.00" timeLoss="14.79" rerouteNo="0" devices="tripinfo_flow_route_101_duration_20250327_2040.0" vType="car" speedFactor="0.94" vaporized=""/>
    <tripinfo id="flow_route_100_duration_20250327_2040.0" depart="0.00" departLane="186409193_0" departPos="2.55" departSpeed="0.00" departDelay="0.00" arrival="37.00" arrivalLane="1254519229#0_1" arrivalPos="70.90" arrivalSpeed="11.39" duration="37.00" routeLength="299.97" waitingTime="0.00" waitingCount="0" stopTime="0.00" timeLoss="17.71" rerouteNo="0" devices="tripinfo_flow_route_100_duration_20250327_2040.0" vType="car" speedFactor="1.06" vaporized=""/>
    <tripinfo id="flow_route_101_duration_20250327_2040.1" depart="9.00" departLane="186409193_0" departPos="39.32" departSpeed="0.00" departDelay="0.43" arrival="59.00" arrivalLane="430416184_0" arrivalPos="1.75" arrivalSpeed="4.54" duration="50.00" routeLength="96.93" waitingTime="26.00" waitingCount="1" stopTime="0.00" timeLoss="41.89" rerouteNo="0" devices="tripinfo_flow_route_101_duration_20250327_2040.1" vType="car" speedFactor="0.83" vaporized=""/>
    <tripinfo id="flow_route_149_duration_20250327_2040.0" depart="0.00" departLane="186410975#0_0" departPos="192.32" departSpeed="0.00" departDelay="0.00" arrival="61.00" arrivalLane="430416184_1" arrivalPos="170.61" arrivalSpeed="16.27" duration="61.00" routeLength="523.96" waitingTime="4.00" waitingCount="1" stopTime="0.00" timeLoss="25.31" rerouteNo="0" devices="tripinfo_flow_route_149_duration_20250327_2040.0" vType="car" speedFactor="1.03" vaporized=""/>
    <tripinfo id="flow_route_107_duration_20250327_2040.1" depart="30.00" departLane="1254519229#0_0" departPos="50.41" departSpeed="0.00" departDelay="0.00" arrival="71.00" arrivalLane="1342963997_0" arrivalPos="92.11" arrivalSpeed="12.93" duration="41.00" routeLength="142.28" waitingTime="14.00" waitingCount="1" stopTime="0.00" timeLoss="32.01" rerouteNo="0" devices="tripinfo_flow_route_107_duration_20250327_2040.1" vType="car" speedFactor="1.09" vaporized=""/>
    <tripinfo id="flow_route_106_duration_20250327_2040.2" depart="40.00" departLane="1254519229#0_0" departPos="43.31" departSpeed="0.00" departDelay="0.00" arrival="72.00" arrivalLane="430416184_1" arrivalPos="114.69" arrivalSpeed="13.57" duration="32.00" routeLength="172.06" waitingTime="3.00" waitingCount="1" stopTime="0.00" timeLoss="21.01" rerouteNo="0" devices="tripinfo_flow_route_106_duration_20250327_2040.2" vType="car" speedFactor="1.12" vaporized=""/>
    <tripinfo id="flow_route_101_duration_20250327_2040.6" depart="52.00" departLane="186409193_0" departPos="55.88" departSpeed="0.00" departDelay="0.57" arrival="75.00" arrivalLane="430416184_0" arrivalPos="46.01" arrivalSpeed="9.10" duration="23.00" routeLength="124.63" waitingTime="0.00" waitingCount="0" stopTime="0.00" timeLoss="13.59" rerouteNo="0" devices="tripinfo_flow_route_101_duration_20250327_2040.6" vType="car" speedFactor="0.88" vaporized=""/>
    <tripinfo id="flow_route_101_duration_20250327_2040.2" depart="18.00" departLane="186409193_0" departPos="15.45" departSpeed="0.00" departDelay="0.86" arrival="76.00" arrivalLane="430416184_0" arrivalPos="163.76" arrivalSpeed="15.95" duration="58.00" routeLength="282.81" waitingTime="19.00" waitingCount="1" stopTime="0.00" timeLoss="39.10" rerouteNo="0" devices="tripinfo_flow_route_101_duration_20250327_2040.2" vType="car" speedFactor="0.89" vaporized=""/>
    <tripinfo id="flow_route_101_duration_20250327_2040.3" depart="27.00" departLane="186409193_0" departPos="2.70" departSpeed="0.00" departDelay="1.29" arrival="77.00" arrivalLane="430416184_0" arrivalPos="93.11" arrivalSpeed="13.39" duration="50.00" routeLength="224.91" waitingTime="4.00" waitingCount="1" stopTime="0.00" timeLoss="33.98" rerouteNo="0" devices="tripinfo_flow_route_101_duration_20250327_2040.3" vType="car" speedFactor="0.86" vaporized=""/>
    <tripinfo id="flow_route_101_duration_20250327_2040.5" depart="43.00" departLane="186409193_0" departPos="1.89" departSpeed="0.00" departDelay="0.15" arrival="79.00" arrivalLane="430416184_0" arrivalPos="68.46" arrivalSpeed="11.15" duration="36.00" routeLength="201.06" waitingTime="0.00" waitingCount="0" stopTime="0.00" timeLoss="23.25" rerouteNo="0" devices="tripinfo_flow_route_101_duration_20250327_2040.5" vType="car" speedFactor="0.99" vaporized=""/>
    <tripinfo id="flow_route_101_duration_20250327_2040.4" depart="35.00" departLane="186409193_0" departPos="51.86" departSpeed="0.00" departDelay="0.72" arrival="83.00" arrivalLane="430416184_0" arrivalPos="238.38" arrivalSpeed="16.22" duration="48.00" routeLength="321.03" waitingTime="6.00" waitingCount="1" stopTime="0.00" timeLoss="27.41" rerouteNo="0" devices="tripinfo_flow_route_101_duration_20250327_2040.4" vType="car" speedFactor="1.05" vaporized=""/>
    <tripinfo id="flow_route_149_duration_20250327_2040.2" depart="30.00" departLane="186410975#0_0" departPos="242.38" departSpeed="0.00" departDelay="0.00" arrival="109.00" arrivalLane="430416184_1" arrivalPos="88.80" arrivalSpeed="13.10" duration="79.00" routeLength="392.09" waitingTime="31.00" waitingCount="1" stopTime="0.00" timeLoss="52.43" rerouteNo="0" devices="tripinfo_flow_route_149_duration_20250327_2040.2" vType="car" speedFactor="1.03" vaporized=""/>
    <tripinfo id="flow_route_149_duration_20250327_2040.3" depart="45.00" departLane="186410975#0_0" departPos="197.33" departSpeed="0.00" departDelay="0.00" arrival="113.00" arrivalLane="430416184_1" arrivalPos="87.27" arrivalSpeed="13.35" duration="68.00" routeLength="435.61" waitingTime="15.00" waitingCount="1" stopTime="0.00" timeLoss="36.38" rerouteNo="0" devices="tripinfo_flow_route_149_duration_20250327_2040.3" vType="car" speedFactor="0.93" vaporized=""/>
    <tripinfo id="flow_route_149_duration_20250327_2040.1" depart="15.00" departLane="186410975#0_0" departPos="116.69" departSpeed="0.00" departDelay="0.00" arrival="115.00" arrivalLane="430416184_1" arrivalPos="134.81" arrivalSpeed="15.85" duration="100.00" routeLength="563.79" waitingTime="31.00" waitingCount="1" stopTime="0.00" timeLoss="59.78" rerouteNo="0" devices="tripinfo_flow_route_149_duration_20250327_2040.1" vType="car" speedFactor="1.05" vaporized=""/>
</tripinfos>
