<?xml version="1.0" encoding="UTF-8"?>

<!-- generated on 2025-05-06 21:08:44 by Eclipse SUMO sumo Version 1.20.0
<configuration xmlns:xsi="http://www.w3.org/2001/XMLSchema-instance" xsi:noNamespaceSchemaLocation="http://sumo.dlr.de/xsd/sumoConfiguration.xsd">

    <input>
        <net-file value="osm.net.xml"/>
        <route-files value="xml/route_rl_J7_6.rou.xml"/>
    </input>

    <output>
        <tripinfo-output value="xml/tripinfo_rl_J7_6.xml"/>
    </output>

    <traci_server>
        <remote-port value="52167"/>
    </traci_server>

</configuration>
-->

<tripinfos xmlns:xsi="http://www.w3.org/2001/XMLSchema-instance" xsi:noNamespaceSchemaLocation="http://sumo.dlr.de/xsd/tripinfo_file.xsd">
    <tripinfo id="flow_route_127_duration_20250327_1950.1" depart="4.00" departLane="-138000461_0" departPos="187.58" departSpeed="0.00" departDelay="1.39" arrival="22.00" arrivalLane="189240000#0-AddedOnRampEdge_0" arrivalPos="48.43" arrivalSpeed="13.49" duration="18.00" routeLength="119.96" waitingTime="0.00" waitingCount="0" stopTime="0.00" timeLoss="9.71" rerouteNo="0" devices="tripinfo_flow_route_127_duration_20250327_1950.1" vType="car" speedFactor="1.09" vaporized=""/>
    <tripinfo id="flow_route_131_duration_20250327_1950.0" depart="0.00" departLane="714011134#0_0" departPos="6.35" departSpeed="0.00" departDelay="0.00" arrival="26.00" arrivalLane="134194079#0_1" arrivalPos="73.02" arrivalSpeed="14.32" duration="26.00" routeLength="232.63" waitingTime="0.00" waitingCount="0" stopTime="0.00" timeLoss="10.14" rerouteNo="0" devices="tripinfo_flow_route_131_duration_20250327_1950.0" vType="car" speedFactor="0.89" vaporized=""/>
    <tripinfo id="flow_route_127_duration_20250327_1950.2" depart="6.00" departLane="-138000461_0" departPos="63.77" departSpeed="0.00" departDelay="0.78" arrival="32.00" arrivalLane="189240000#0-AddedOnRampEdge_0" arrivalPos="3.06" arrivalSpeed="9.28" duration="26.00" routeLength="198.40" waitingTime="0.00" waitingCount="0" stopTime="0.00" timeLoss="13.52" rerouteNo="0" devices="tripinfo_flow_route_127_duration_20250327_1950.2" vType="car" speedFactor="0.99" vaporized=""/>
    <tripinfo id="flow_route_127_duration_20250327_1950.4" depart="11.00" departLane="-138000461_0" departPos="151.22" departSpeed="0.00" departDelay="0.57" arrival="34.00" arrivalLane="189240000#0-AddedOnRampEdge_0" arrivalPos="63.08" arrivalSpeed="13.61" duration="23.00" routeLength="170.97" waitingTime="0.00" waitingCount="0" stopTime="0.00" timeLoss="11.39" rerouteNo="0" devices="tripinfo_flow_route_127_duration_20250327_1950.4" vType="car" speedFactor="0.97" vaporized=""/>
    <tripinfo id="flow_route_132_duration_20250327_1950.0" depart="0.00" departLane="714011134#0_0" departPos="92.28" departSpeed="0.00" departDelay="0.00" arrival="35.00" arrivalLane="189240000#0-AddedOnRampEdge_1" arrivalPos="51.48" arrivalSpeed="15.31" duration="35.00" routeLength="375.34" waitingTime="0.00" waitingCount="0" stopTime="0.00" timeLoss="10.25" rerouteNo="0" devices="tripinfo_flow_route_132_duration_20250327_1950.0" vType="car" speedFactor="0.94" vaporized=""/>
    <tripinfo id="flow_route_127_duration_20250327_1950.3" depart="8.00" departLane="-138000461_0" departPos="55.81" departSpeed="0.00" departDelay="0.18" arrival="35.00" arrivalLane="189240000#0-AddedOnRampEdge_0" arrivalPos="12.21" arrivalSpeed="11.74" duration="27.00" routeLength="215.52" waitingTime="0.00" waitingCount="0" stopTime="0.00" timeLoss="12.97" rerouteNo="0" devices="tripinfo_flow_route_127_duration_20250327_1950.3" vType="car" speedFactor="1.16" vaporized=""/>
    <tripinfo id="flow_route_127_duration_20250327_1950.0" depart="0.00" departLane="-138000461_0" departPos="55.90" departSpeed="0.00" departDelay="0.00" arrival="36.00" arrivalLane="189240000#0-AddedOnRampEdge_0" arrivalPos="70.17" arrivalSpeed="14.23" duration="36.00" routeLength="273.38" waitingTime="0.00" waitingCount="0" stopTime="0.00" timeLoss="18.71" rerouteNo="0" devices="tripinfo_flow_route_127_duration_20250327_1950.0" vType="car" speedFactor="1.05" vaporized=""/>
    <tripinfo id="flow_route_116_duration_20250327_1950.0" depart="0.00" departLane="177211987#1_0" departPos="0.88" departSpeed="0.00" departDelay="0.00" arrival="39.00" arrivalLane="688883939#0_1" arrivalPos="93.94" arrivalSpeed="16.42" duration="39.00" routeLength="448.08" waitingTime="0.00" waitingCount="0" stopTime="0.00" timeLoss="11.06" rerouteNo="0" devices="tripinfo_flow_route_116_duration_20250327_1950.0" vType="car" speedFactor="1.06" vaporized=""/>
    <tripinfo id="flow_route_121_duration_20250327_1950.2" depart="7.00" departLane="799091563#0_0" departPos="363.24" departSpeed="0.00" departDelay="0.33" arrival="42.00" arrivalLane="134194079#0_0" arrivalPos="225.54" arrivalSpeed="14.95" duration="35.00" routeLength="251.47" waitingTime="3.00" waitingCount="1" stopTime="0.00" timeLoss="17.20" rerouteNo="0" devices="tripinfo_flow_route_121_duration_20250327_1950.2" vType="car" speedFactor="0.93" vaporized=""/>
    <tripinfo id="flow_route_121_duration_20250327_1950.0" depart="1.00" departLane="799091563#0_0" departPos="259.58" departSpeed="0.00" departDelay="1.00" arrival="43.00" arrivalLane="134194079#0_0" arrivalPos="144.99" arrivalSpeed="15.89" duration="42.00" routeLength="274.57" waitingTime="0.00" waitingCount="0" stopTime="0.00" timeLoss="24.17" rerouteNo="0" devices="tripinfo_flow_route_121_duration_20250327_1950.0" vType="car" speedFactor="1.08" vaporized=""/>
    <tripinfo id="flow_route_132_duration_20250327_1950.1" depart="4.00" departLane="714011134#0_0" departPos="24.95" departSpeed="0.00" departDelay="0.25" arrival="45.00" arrivalLane="189240000#0-AddedOnRampEdge_1" arrivalPos="77.82" arrivalSpeed="16.32" duration="41.00" routeLength="469.02" waitingTime="0.00" waitingCount="0" stopTime="0.00" timeLoss="12.09" rerouteNo="0" devices="tripinfo_flow_route_132_duration_20250327_1950.1" vType="car" speedFactor="1.12" vaporized=""/>
    <tripinfo id="flow_route_121_duration_20250327_1950.6" depart="20.00" departLane="799091563#0_0" departPos="370.92" departSpeed="0.00" departDelay="0.00" arrival="46.00" arrivalLane="134194079#0_0" arrivalPos="243.55" arrivalSpeed="16.15" duration="26.00" routeLength="261.79" waitingTime="0.00" waitingCount="0" stopTime="0.00" timeLoss="9.09" rerouteNo="0" devices="tripinfo_flow_route_121_duration_20250327_1950.6" vType="car" speedFactor="1.10" vaporized=""/>
    <tripinfo id="flow_route_127_duration_20250327_1950.10" depart="27.00" departLane="-138000461_0" departPos="178.68" departSpeed="0.00" departDelay="0.92" arrival="47.00" arrivalLane="189240000#0-AddedOnRampEdge_0" arrivalPos="45.32" arrivalSpeed="11.66" duration="20.00" routeLength="125.75" waitingTime="0.00" waitingCount="0" stopTime="0.00" timeLoss="10.50" rerouteNo="0" devices="tripinfo_flow_route_127_duration_20250327_1950.10" vType="car" speedFactor="0.85" vaporized=""/>
    <tripinfo id="flow_route_127_duration_20250327_1950.5" depart="14.00" departLane="-138000461_0" departPos="58.93" departSpeed="0.00" departDelay="0.96" arrival="48.00" arrivalLane="189240000#0-AddedOnRampEdge_0" arrivalPos="17.31" arrivalSpeed="10.88" duration="34.00" routeLength="217.49" waitingTime="0.00" waitingCount="0" stopTime="0.00" timeLoss="20.08" rerouteNo="0" devices="tripinfo_flow_route_127_duration_20250327_1950.5" vType="car" speedFactor="1.13" vaporized=""/>
    <tripinfo id="flow_route_132_duration_20250327_1950.2" depart="8.00" departLane="714011134#0_0" departPos="23.52" departSpeed="0.00" departDelay="0.50" arrival="49.00" arrivalLane="189240000#0-AddedOnRampEdge_2" arrivalPos="11.84" arrivalSpeed="16.25" duration="41.00" routeLength="404.46" waitingTime="0.00" waitingCount="0" stopTime="0.00" timeLoss="16.11" rerouteNo="0" devices="tripinfo_flow_route_132_duration_20250327_1950.2" vType="car" speedFactor="1.02" vaporized=""/>
    <tripinfo id="flow_route_126_duration_20250327_1950.0" depart="0.00" departLane="-138000461_0" departPos="119.67" departSpeed="0.00" departDelay="0.00" arrival="52.00" arrivalLane="138000492#0_1" arrivalPos="18.35" arrivalSpeed="13.69" duration="52.00" routeLength="582.25" waitingTime="0.00" waitingCount="0" stopTime="0.00" timeLoss="9.52" rerouteNo="0" devices="tripinfo_flow_route_126_duration_20250327_1950.0" vType="car" speedFactor="0.83" vaporized=""/>
    <tripinfo id="flow_route_127_duration_20250327_1950.9" depart="24.00" departLane="-138000461_0" departPos="139.86" departSpeed="0.00" departDelay="0.53" arrival="52.00" arrivalLane="189240000#0-AddedOnRampEdge_0" arrivalPos="91.72" arrivalSpeed="14.06" duration="28.00" routeLength="210.97" waitingTime="0.00" waitingCount="0" stopTime="0.00" timeLoss="14.62" rerouteNo="0" devices="tripinfo_flow_route_127_duration_20250327_1950.9" vType="car" speedFactor="1.09" vaporized=""/>
    <tripinfo id="flow_route_132_duration_20250327_1950.3" depart="13.00" departLane="714011134#0_0" departPos="51.91" departSpeed="0.00" departDelay="1.75" arrival="53.00" arrivalLane="189240000#0-AddedOnRampEdge_1" arrivalPos="65.29" arrivalSpeed="13.36" duration="40.00" routeLength="429.52" waitingTime="0.00" waitingCount="0" stopTime="0.00" timeLoss="8.59" rerouteNo="0" devices="tripinfo_flow_route_132_duration_20250327_1950.3" vType="car" speedFactor="0.83" vaporized=""/>
    <tripinfo id="flow_route_121_duration_20250327_1950.1" depart="4.00" departLane="799091563#0_0" departPos="206.69" departSpeed="0.00" departDelay="0.67" arrival="54.00" arrivalLane="134194079#0_0" arrivalPos="277.04" arrivalSpeed="16.20" duration="50.00" routeLength="459.51" waitingTime="0.00" waitingCount="0" stopTime="0.00" timeLoss="20.16" rerouteNo="0" devices="tripinfo_flow_route_121_duration_20250327_1950.1" vType="car" speedFactor="1.05" vaporized=""/>
    <tripinfo id="flow_route_132_duration_20250327_1950.4" depart="15.00" departLane="714011134#0_0" departPos="9.07" departSpeed="0.00" departDelay="0.00" arrival="56.00" arrivalLane="189240000#0-AddedOnRampEdge_1" arrivalPos="16.90" arrivalSpeed="16.48" duration="41.00" routeLength="423.97" waitingTime="0.00" waitingCount="0" stopTime="0.00" timeLoss="15.01" rerouteNo="0" devices="tripinfo_flow_route_132_duration_20250327_1950.4" vType="car" speedFactor="1.01" vaporized=""/>
    <tripinfo id="flow_route_132_duration_20250327_1950.5" depart="20.00" departLane="714011134#0_0" departPos="38.49" departSpeed="0.00" departDelay="1.25" arrival="56.00" arrivalLane="189240000#0-AddedOnRampEdge_1" arrivalPos="39.96" arrivalSpeed="16.18" duration="36.00" routeLength="417.61" waitingTime="0.00" waitingCount="0" stopTime="0.00" timeLoss="10.27" rerouteNo="0" devices="tripinfo_flow_route_132_duration_20250327_1950.5" vType="car" speedFactor="1.18" vaporized=""/>
    <tripinfo id="flow_route_127_duration_20250327_1950.13" depart="37.00" departLane="-138000461_0" departPos="178.29" departSpeed="0.00" departDelay="3.10" arrival="57.00" arrivalLane="189240000#0-AddedOnRampEdge_0" arrivalPos="62.18" arrivalSpeed="13.15" duration="20.00" routeLength="143.00" waitingTime="0.00" waitingCount="0" stopTime="0.00" timeLoss="10.68" rerouteNo="0" devices="tripinfo_flow_route_127_duration_20250327_1950.13" vType="car" speedFactor="0.99" vaporized=""/>
    <tripinfo id="flow_route_133_duration_20250327_1950.0" depart="0.00" departLane="714011134#0_0" departPos="33.93" departSpeed="0.00" departDelay="0.00" arrival="59.00" arrivalLane="138000492#0_0" arrivalPos="313.58" arrivalSpeed="14.27" duration="59.00" routeLength="604.48" waitingTime="0.00" waitingCount="0" stopTime="0.00" timeLoss="15.58" rerouteNo="0" devices="tripinfo_flow_route_133_duration_20250327_1950.0" vType="car" speedFactor="0.86" vaporized=""/>
    <tripinfo id="flow_route_127_duration_20250327_1950.8" depart="24.00" departLane="-138000461_0" departPos="72.46" departSpeed="0.00" departDelay="3.14" arrival="59.00" arrivalLane="189240000#0-AddedOnRampEdge_0" arrivalPos="28.58" arrivalSpeed="11.87" duration="35.00" routeLength="215.23" waitingTime="0.00" waitingCount="0" stopTime="0.00" timeLoss="21.30" rerouteNo="0" devices="tripinfo_flow_route_127_duration_20250327_1950.8" vType="car" speedFactor="1.03" vaporized=""/>
    <tripinfo id="flow_route_127_duration_20250327_1950.7" depart="24.00" departLane="-138000461_0" departPos="86.87" departSpeed="0.00" departDelay="5.74" arrival="60.00" arrivalLane="189240000#0-AddedOnRampEdge_0" arrivalPos="64.07" arrivalSpeed="13.44" duration="36.00" routeLength="236.31" waitingTime="0.00" waitingCount="0" stopTime="0.00" timeLoss="20.83" rerouteNo="0" devices="tripinfo_flow_route_127_duration_20250327_1950.7" vType="car" speedFactor="0.97" vaporized=""/>
    <tripinfo id="flow_route_117_duration_20250327_1950.0" depart="0.00" departLane="177211987#1_0" departPos="98.51" departSpeed="0.00" departDelay="0.00" arrival="62.00" arrivalLane="138000492#0_0" arrivalPos="299.85" arrivalSpeed="15.44" duration="62.00" routeLength="701.60" waitingTime="0.00" waitingCount="0" stopTime="0.00" timeLoss="16.28" rerouteNo="0" devices="tripinfo_flow_route_117_duration_20250327_1950.0" vType="car" speedFactor="0.94" vaporized=""/>
    <tripinfo id="flow_route_127_duration_20250327_1950.6" depart="16.00" departLane="-138000461_0" departPos="9.90" departSpeed="0.00" departDelay="0.35" arrival="62.00" arrivalLane="189240000#0-AddedOnRampEdge_0" arrivalPos="53.54" arrivalSpeed="13.58" duration="46.00" routeLength="302.75" waitingTime="0.00" waitingCount="0" stopTime="0.00" timeLoss="27.51" rerouteNo="0" devices="tripinfo_flow_route_127_duration_20250327_1950.6" vType="car" speedFactor="1.17" vaporized=""/>
    <tripinfo id="flow_route_131_duration_20250327_1950.1" depart="33.00" departLane="714011134#0_0" departPos="17.65" departSpeed="0.00" departDelay="3.00" arrival="64.00" arrivalLane="134194079#0_1" arrivalPos="174.85" arrivalSpeed="16.43" duration="31.00" routeLength="323.16" waitingTime="0.00" waitingCount="0" stopTime="0.00" timeLoss="10.83" rerouteNo="0" devices="tripinfo_flow_route_131_duration_20250327_1950.1" vType="car" speedFactor="1.14" vaporized=""/>
    <tripinfo id="flow_route_132_duration_20250327_1950.7" depart="28.00" departLane="714011134#0_0" departPos="36.31" departSpeed="0.00" departDelay="1.75" arrival="67.00" arrivalLane="189240000#0-AddedOnRampEdge_2" arrivalPos="4.02" arrivalSpeed="16.40" duration="39.00" routeLength="383.85" waitingTime="0.00" waitingCount="0" stopTime="0.00" timeLoss="15.02" rerouteNo="0" devices="tripinfo_flow_route_132_duration_20250327_1950.7" vType="car" speedFactor="1.17" vaporized=""/>
    <tripinfo id="flow_route_127_duration_20250327_1950.11" depart="30.00" departLane="-138000461_0" departPos="21.74" departSpeed="0.00" departDelay="1.31" arrival="67.00" arrivalLane="189240000#0-AddedOnRampEdge_0" arrivalPos="62.62" arrivalSpeed="12.96" duration="37.00" routeLength="299.99" waitingTime="0.00" waitingCount="0" stopTime="0.00" timeLoss="18.44" rerouteNo="0" devices="tripinfo_flow_route_127_duration_20250327_1950.11" vType="car" speedFactor="1.02" vaporized=""/>
    <tripinfo id="flow_route_127_duration_20250327_1950.12" depart="37.00" departLane="-138000461_0" departPos="97.82" departSpeed="0.00" departDelay="5.70" arrival="67.00" arrivalLane="189240000#0-AddedOnRampEdge_0" arrivalPos="83.76" arrivalSpeed="13.68" duration="30.00" routeLength="245.05" waitingTime="0.00" waitingCount="0" stopTime="0.00" timeLoss="14.33" rerouteNo="0" devices="tripinfo_flow_route_127_duration_20250327_1950.12" vType="car" speedFactor="0.97" vaporized=""/>
    <tripinfo id="flow_route_132_duration_20250327_1950.6" depart="24.00" departLane="714011134#0_0" departPos="10.70" departSpeed="0.00" departDelay="1.50" arrival="71.00" arrivalLane="189240000#0-AddedOnRampEdge_1" arrivalPos="46.51" arrivalSpeed="16.50" duration="47.00" routeLength="451.95" waitingTime="0.00" waitingCount="0" stopTime="0.00" timeLoss="19.45" rerouteNo="0" devices="tripinfo_flow_route_132_duration_20250327_1950.6" vType="car" speedFactor="1.04" vaporized=""/>
    <tripinfo id="flow_route_133_duration_20250327_1950.2" depart="26.00" departLane="714011134#0_0" departPos="75.17" departSpeed="0.00" departDelay="2.00" arrival="71.00" arrivalLane="138000492#0_2" arrivalPos="124.70" arrivalSpeed="15.64" duration="45.00" routeLength="374.37" waitingTime="0.00" waitingCount="0" stopTime="0.00" timeLoss="20.66" rerouteNo="0" devices="tripinfo_flow_route_133_duration_20250327_1950.2" vType="car" speedFactor="1.00" vaporized=""/>
    <tripinfo id="flow_route_132_duration_20250327_1950.9" depart="34.00" departLane="714011134#0_0" departPos="89.72" departSpeed="0.00" departDelay="0.25" arrival="71.00" arrivalLane="189240000#0-AddedOnRampEdge_1" arrivalPos="86.73" arrivalSpeed="15.31" duration="37.00" routeLength="413.15" waitingTime="0.00" waitingCount="0" stopTime="0.00" timeLoss="9.81" rerouteNo="0" devices="tripinfo_flow_route_132_duration_20250327_1950.9" vType="car" speedFactor="0.94" vaporized=""/>
    <tripinfo id="flow_route_127_duration_20250327_1950.21" depart="58.00" departLane="-138000461_0" departPos="194.20" departSpeed="0.00" departDelay="3.23" arrival="76.00" arrivalLane="189240000#0-AddedOnRampEdge_0" arrivalPos="45.22" arrivalSpeed="11.44" duration="18.00" routeLength="110.13" waitingTime="0.00" waitingCount="0" stopTime="0.00" timeLoss="9.72" rerouteNo="0" devices="tripinfo_flow_route_127_duration_20250327_1950.21" vType="car" speedFactor="0.91" vaporized=""/>
    <tripinfo id="flow_route_127_duration_20250327_1950.15" depart="41.00" departLane="-138000461_0" departPos="52.94" departSpeed="0.00" departDelay="1.88" arrival="77.00" arrivalLane="189240000#0-AddedOnRampEdge_0" arrivalPos="9.22" arrivalSpeed="10.73" duration="36.00" routeLength="215.40" waitingTime="0.00" waitingCount="0" stopTime="0.00" timeLoss="22.33" rerouteNo="0" devices="tripinfo_flow_route_127_duration_20250327_1950.15" vType="car" speedFactor="1.06" vaporized=""/>
    <tripinfo id="flow_route_117_duration_20250327_1950.1" depart="4.00" departLane="177211987#1_0" departPos="58.05" departSpeed="0.00" departDelay="0.25" arrival="78.00" arrivalLane="138000492#0_1" arrivalPos="266.59" arrivalSpeed="16.43" duration="74.00" routeLength="708.81" waitingTime="1.00" waitingCount="1" stopTime="0.00" timeLoss="30.25" rerouteNo="0" devices="tripinfo_flow_route_117_duration_20250327_1950.1" vType="car" speedFactor="1.03" vaporized=""/>
    <tripinfo id="flow_route_117_duration_20250327_1950.3" depart="12.00" departLane="177211987#1_0" departPos="140.51" departSpeed="0.00" departDelay="0.75" arrival="78.00" arrivalLane="138000492#0_0" arrivalPos="250.92" arrivalSpeed="14.64" duration="66.00" routeLength="610.67" waitingTime="0.00" waitingCount="0" stopTime="0.00" timeLoss="24.59" rerouteNo="0" devices="tripinfo_flow_route_117_duration_20250327_1950.3" vType="car" speedFactor="0.89" vaporized=""/>
    <tripinfo id="flow_route_127_duration_20250327_1950.16" depart="45.00" departLane="-138000461_0" departPos="90.93" departSpeed="0.00" departDelay="3.27" arrival="78.00" arrivalLane="189240000#0-AddedOnRampEdge_0" arrivalPos="43.98" arrivalSpeed="12.44" duration="33.00" routeLength="212.16" waitingTime="0.00" waitingCount="0" stopTime="0.00" timeLoss="19.46" rerouteNo="0" devices="tripinfo_flow_route_127_duration_20250327_1950.16" vType="car" speedFactor="0.98" vaporized=""/>
    <tripinfo id="flow_route_132_duration_20250327_1950.10" depart="43.00" departLane="714011134#0_0" departPos="83.58" departSpeed="0.00" departDelay="5.50" arrival="79.00" arrivalLane="189240000#0-AddedOnRampEdge_1" arrivalPos="68.27" arrivalSpeed="16.25" duration="36.00" routeLength="400.84" waitingTime="0.00" waitingCount="0" stopTime="0.00" timeLoss="11.19" rerouteNo="0" devices="tripinfo_flow_route_132_duration_20250327_1950.10" vType="car" speedFactor="1.02" vaporized=""/>
    <tripinfo id="flow_route_132_duration_20250327_1950.8" depart="34.00" departLane="714011134#0_0" departPos="1.23" departSpeed="0.00" departDelay="4.00" arrival="80.00" arrivalLane="189240000#0-AddedOnRampEdge_1" arrivalPos="54.13" arrivalSpeed="16.54" duration="46.00" routeLength="469.04" waitingTime="0.00" waitingCount="0" stopTime="0.00" timeLoss="17.14" rerouteNo="0" devices="tripinfo_flow_route_132_duration_20250327_1950.8" vType="car" speedFactor="1.02" vaporized=""/>
    <tripinfo id="flow_route_132_duration_20250327_1950.12" depart="46.00" departLane="714011134#0_0" departPos="41.57" departSpeed="0.00" departDelay="1.00" arrival="81.00" arrivalLane="189240000#0-AddedOnRampEdge_1" arrivalPos="8.03" arrivalSpeed="16.16" duration="35.00" routeLength="382.60" waitingTime="0.00" waitingCount="0" stopTime="0.00" timeLoss="11.03" rerouteNo="0" devices="tripinfo_flow_route_132_duration_20250327_1950.12" vType="car" speedFactor="1.02" vaporized=""/>
    <tripinfo id="flow_route_133_duration_20250327_1950.3" depart="38.00" departLane="714011134#0_0" departPos="46.86" departSpeed="0.00" departDelay="2.00" arrival="83.00" arrivalLane="138000492#0_1" arrivalPos="165.59" arrivalSpeed="14.62" duration="45.00" routeLength="443.57" waitingTime="0.00" waitingCount="0" stopTime="0.00" timeLoss="14.03" rerouteNo="0" devices="tripinfo_flow_route_133_duration_20250327_1950.3" vType="car" speedFactor="0.88" vaporized=""/>
    <tripinfo id="flow_route_132_duration_20250327_1950.11" depart="43.00" departLane="714011134#0_0" departPos="3.65" departSpeed="0.00" departDelay="1.75" arrival="83.00" arrivalLane="189240000#0-AddedOnRampEdge_1" arrivalPos="17.99" arrivalSpeed="16.18" duration="40.00" routeLength="430.48" waitingTime="0.00" waitingCount="0" stopTime="0.00" timeLoss="13.35" rerouteNo="0" devices="tripinfo_flow_route_132_duration_20250327_1950.11" vType="car" speedFactor="1.03" vaporized=""/>
    <tripinfo id="flow_route_127_duration_20250327_1950.14" depart="37.00" departLane="-138000461_0" departPos="32.41" departSpeed="0.00" departDelay="0.49" arrival="85.00" arrivalLane="189240000#0-AddedOnRampEdge_0" arrivalPos="74.02" arrivalSpeed="14.40" duration="48.00" routeLength="300.72" waitingTime="0.00" waitingCount="0" stopTime="0.00" timeLoss="27.31" rerouteNo="0" devices="tripinfo_flow_route_127_duration_20250327_1950.14" vType="car" speedFactor="0.91" vaporized=""/>
    <tripinfo id="flow_route_127_duration_20250327_1950.17" depart="45.00" departLane="-138000461_0" departPos="40.28" departSpeed="0.00" departDelay="0.66" arrival="85.00" arrivalLane="189240000#0-AddedOnRampEdge_0" arrivalPos="55.56" arrivalSpeed="12.66" duration="40.00" routeLength="274.39" waitingTime="0.00" waitingCount="0" stopTime="0.00" timeLoss="23.10" rerouteNo="0" devices="tripinfo_flow_route_127_duration_20250327_1950.17" vType="car" speedFactor="1.00" vaporized=""/>
    <tripinfo id="flow_route_127_duration_20250327_1950.18" depart="52.00" departLane="-138000461_0" departPos="10.35" departSpeed="0.00" departDelay="5.06" arrival="86.00" arrivalLane="189240000#0-AddedOnRampEdge_0" arrivalPos="1.10" arrivalSpeed="9.25" duration="34.00" routeLength="249.86" waitingTime="0.00" waitingCount="0" stopTime="0.00" timeLoss="18.24" rerouteNo="0" devices="tripinfo_flow_route_127_duration_20250327_1950.18" vType="car" speedFactor="0.98" vaporized=""/>
    <tripinfo id="flow_route_127_duration_20250327_1950.20" depart="56.00" departLane="-138000461_0" departPos="32.46" departSpeed="0.00" departDelay="3.84" arrival="86.00" arrivalLane="189240000#0-AddedOnRampEdge_0" arrivalPos="19.07" arrivalSpeed="10.35" duration="30.00" routeLength="245.72" waitingTime="0.00" waitingCount="0" stopTime="0.00" timeLoss="13.66" rerouteNo="0" devices="tripinfo_flow_route_127_duration_20250327_1950.20" vType="car" speedFactor="0.92" vaporized=""/>
    <tripinfo id="flow_route_127_duration_20250327_1950.19" depart="56.00" departLane="-138000461_0" departPos="62.02" departSpeed="0.00" departDelay="6.45" arrival="89.00" arrivalLane="189240000#0-AddedOnRampEdge_0" arrivalPos="78.19" arrivalSpeed="14.61" duration="33.00" routeLength="275.29" waitingTime="0.00" waitingCount="0" stopTime="0.00" timeLoss="15.41" rerouteNo="0" devices="tripinfo_flow_route_127_duration_20250327_1950.19" vType="car" speedFactor="1.02" vaporized=""/>
    <tripinfo id="flow_route_133_duration_20250327_1950.1" depart="15.00" departLane="714011134#0_0" departPos="104.58" departSpeed="0.00" departDelay="3.00" arrival="90.00" arrivalLane="138000492#0_0" arrivalPos="393.51" arrivalSpeed="14.18" duration="75.00" routeLength="613.77" waitingTime="9.00" waitingCount="2" stopTime="0.00" timeLoss="31.94" rerouteNo="0" devices="tripinfo_flow_route_133_duration_20250327_1950.1" vType="car" speedFactor="0.87" vaporized=""/>
    <tripinfo id="flow_route_122_duration_20250327_1950.0" depart="1.00" departLane="799091563#0_0" departPos="17.54" departSpeed="0.00" departDelay="1.00" arrival="91.00" arrivalLane="688883939#0_2" arrivalPos="62.20" arrivalSpeed="14.09" duration="90.00" routeLength="483.30" waitingTime="38.00" waitingCount="1" stopTime="0.00" timeLoss="60.59" rerouteNo="0" devices="tripinfo_flow_route_122_duration_20250327_1950.0" vType="car" speedFactor="1.03" vaporized=""/>
    <tripinfo id="flow_route_122_duration_20250327_1950.4" depart="28.00" departLane="799091563#0_0" departPos="343.43" departSpeed="0.00" departDelay="1.34" arrival="91.00" arrivalLane="688883939#0_2" arrivalPos="39.18" arrivalSpeed="12.66" duration="63.00" routeLength="134.39" waitingTime="35.00" waitingCount="1" stopTime="0.00" timeLoss="53.46" rerouteNo="0" devices="tripinfo_flow_route_122_duration_20250327_1950.4" vType="car" speedFactor="0.85" vaporized=""/>
    <tripinfo id="flow_route_132_duration_20250327_1950.14" depart="55.00" departLane="714011134#0_0" departPos="35.98" departSpeed="0.00" departDelay="2.50" arrival="91.00" arrivalLane="189240000#0-AddedOnRampEdge_1" arrivalPos="32.37" arrivalSpeed="16.48" duration="36.00" routeLength="412.54" waitingTime="0.00" waitingCount="0" stopTime="0.00" timeLoss="11.05" rerouteNo="0" devices="tripinfo_flow_route_132_duration_20250327_1950.14" vType="car" speedFactor="1.09" vaporized=""/>
    <tripinfo id="flow_route_122_duration_20250327_1950.1" depart="7.00" departLane="799091563#0_0" departPos="11.32" departSpeed="0.00" departDelay="0.33" arrival="92.00" arrivalLane="688883939#0_2" arrivalPos="16.77" arrivalSpeed="11.58" duration="85.00" routeLength="444.09" waitingTime="33.00" waitingCount="1" stopTime="0.00" timeLoss="54.31" rerouteNo="0" devices="tripinfo_flow_route_122_duration_20250327_1950.1" vType="car" speedFactor="0.88" vaporized=""/>
    <tripinfo id="flow_route_132_duration_20250327_1950.13" depart="50.00" departLane="714011134#0_0" departPos="1.40" departSpeed="0.00" departDelay="1.25" arrival="93.00" arrivalLane="189240000#0-AddedOnRampEdge_1" arrivalPos="21.81" arrivalSpeed="16.18" duration="43.00" routeLength="436.55" waitingTime="0.00" waitingCount="0" stopTime="0.00" timeLoss="15.96" rerouteNo="0" devices="tripinfo_flow_route_132_duration_20250327_1950.13" vType="car" speedFactor="1.01" vaporized=""/>
    <tripinfo id="flow_route_121_duration_20250327_1950.5" depart="18.00" departLane="799091563#0_0" departPos="110.13" departSpeed="0.00" departDelay="1.34" arrival="94.00" arrivalLane="134194079#0_0" arrivalPos="23.60" arrivalSpeed="7.60" duration="76.00" routeLength="302.63" waitingTime="29.00" waitingCount="1" stopTime="0.00" timeLoss="56.48" rerouteNo="0" devices="tripinfo_flow_route_121_duration_20250327_1950.5" vType="car" speedFactor="0.99" vaporized=""/>
    <tripinfo id="flow_route_127_duration_20250327_1950.22" depart="58.00" departLane="-138000461_0" departPos="5.63" departSpeed="0.00" departDelay="0.62" arrival="94.00" arrivalLane="189240000#0-AddedOnRampEdge_0" arrivalPos="69.80" arrivalSpeed="13.25" duration="36.00" routeLength="323.29" waitingTime="0.00" waitingCount="0" stopTime="0.00" timeLoss="15.37" rerouteNo="0" devices="tripinfo_flow_route_127_duration_20250327_1950.22" vType="car" speedFactor="0.96" vaporized=""/>
    <tripinfo id="flow_route_122_duration_20250327_1950.5" depart="34.00" departLane="799091563#0_0" departPos="43.42" departSpeed="0.00" departDelay="0.67" arrival="98.00" arrivalLane="688883939#0_2" arrivalPos="0.09" arrivalSpeed="10.51" duration="64.00" routeLength="395.31" waitingTime="13.00" waitingCount="1" stopTime="0.00" timeLoss="40.04" rerouteNo="0" devices="tripinfo_flow_route_122_duration_20250327_1950.5" vType="car" speedFactor="1.02" vaporized=""/>
    <tripinfo id="flow_route_121_duration_20250327_1950.4" depart="14.00" departLane="799091563#0_0" departPos="57.65" departSpeed="0.00" departDelay="0.67" arrival="100.00" arrivalLane="134194079#0_0" arrivalPos="49.68" arrivalSpeed="10.95" duration="86.00" routeLength="381.19" waitingTime="28.00" waitingCount="1" stopTime="0.00" timeLoss="59.11" rerouteNo="0" devices="tripinfo_flow_route_121_duration_20250327_1950.4" vType="car" speedFactor="0.92" vaporized=""/>
    <tripinfo id="flow_route_122_duration_20250327_1950.2" depart="14.00" departLane="799091563#0_0" departPos="10.57" departSpeed="0.00" departDelay="0.67" arrival="100.00" arrivalLane="688883939#0_2" arrivalPos="100.68" arrivalSpeed="15.62" duration="86.00" routeLength="528.75" waitingTime="30.00" waitingCount="1" stopTime="0.00" timeLoss="52.26" rerouteNo="0" devices="tripinfo_flow_route_122_duration_20250327_1950.2" vType="car" speedFactor="0.95" vaporized=""/>
    <tripinfo id="flow_route_121_duration_20250327_1950.9" depart="30.00" departLane="799091563#0_0" departPos="311.79" departSpeed="0.00" departDelay="0.00" arrival="100.00" arrivalLane="134194079#0_0" arrivalPos="200.86" arrivalSpeed="14.88" duration="70.00" routeLength="278.24" waitingTime="32.00" waitingCount="1" stopTime="0.00" timeLoss="49.71" rerouteNo="0" devices="tripinfo_flow_route_121_duration_20250327_1950.9" vType="car" speedFactor="0.90" vaporized=""/>