<?xml version="1.0" encoding="UTF-8"?>

<!-- generated on 2025-05-06 21:07:51 by Eclipse SUMO sumo Version 1.20.0
<configuration xmlns:xsi="http://www.w3.org/2001/XMLSchema-instance" xsi:noNamespaceSchemaLocation="http://sumo.dlr.de/xsd/sumoConfiguration.xsd">

    <input>
        <net-file value="osm.net.xml"/>
        <route-files value="xml/route_rl_cluster_4110471701_632031939_1.rou.xml"/>
    </input>

    <output>
        <tripinfo-output value="xml/tripinfo_rl_cluster_4110471701_632031939_1.xml"/>
    </output>

    <traci_server>
        <remote-port value="42037"/>
    </traci_server>

</configuration>
-->

<tripinfos xmlns:xsi="http://www.w3.org/2001/XMLSchema-instance" xsi:noNamespaceSchemaLocation="http://sumo.dlr.de/xsd/tripinfo_file.xsd">
    <tripinfo id="flow_route_83_duration_20250327_2150.0" depart="0.00" departLane="423956929_0" departPos="101.16" departSpeed="0.00" departDelay="0.00" arrival="17.00" arrivalLane="186407685_0" arrivalPos="8.05" arrivalSpeed="6.86" duration="17.00" routeLength="101.45" waitingTime="0.00" waitingCount="0" stopTime="0.00" timeLoss="10.18" rerouteNo="0" devices="tripinfo_flow_route_83_duration_20250327_2150.0" vType="car" speedFactor="1.01" vaporized=""/>
    <tripinfo id="flow_route_62_duration_20250327_2150.0" depart="0.00" departLane="409155823_0" departPos="65.43" departSpeed="0.00" departDelay="0.00" arrival="23.00" arrivalLane="1091883842_0" arrivalPos="165.47" arrivalSpeed="16.29" duration="23.00" routeLength="205.45" waitingTime="0.00" waitingCount="0" stopTime="0.00" timeLoss="10.50" rerouteNo="0" devices="tripinfo_flow_route_62_duration_20250327_2150.0" vType="car" speedFactor="1.06" vaporized=""/>
    <tripinfo id="flow_route_82_duration_20250327_2150.0" depart="0.00" departLane="423956929_0" departPos="45.92" departSpeed="0.00" departDelay="0.00" arrival="24.00" arrivalLane="186407684#0_0" arrivalPos="62.79" arrivalSpeed="15.18" duration="24.00" routeLength="219.95" waitingTime="0.00" waitingCount="0" stopTime="0.00" timeLoss="8.99" rerouteNo="0" devices="tripinfo_flow_route_82_duration_20250327_2150.0" vType="car" speedFactor="0.94" vaporized=""/>
    <tripinfo id="flow_route_62_duration_20250327_2150.1" depart="15.00" departLane="409155823_0" departPos="60.18" departSpeed="0.00" departDelay="0.00" arrival="28.00" arrivalLane="1091883842_0" arrivalPos="11.19" arrivalSpeed="9.26" duration="13.00" routeLength="56.42" waitingTime="0.00" waitingCount="0" stopTime="0.00" timeLoss="8.84" rerouteNo="0" devices="tripinfo_flow_route_62_duration_20250327_2150.1" vType="car" speedFactor="0.94" vaporized=""/>
    <tripinfo id="flow_route_88_duration_20250327_2150.0" depart="0.00" departLane="430416184_0" departPos="194.63" departSpeed="0.00" departDelay="0.00" arrival="48.00" arrivalLane="186407684#0_1" arrivalPos="3.84" arrivalSpeed="7.69" duration="48.00" routeLength="126.85" waitingTime="19.00" waitingCount="1" stopTime="0.00" timeLoss="38.61" rerouteNo="0" devices="tripinfo_flow_route_88_duration_20250327_2150.0" vType="car" speedFactor="0.83" vaporized=""/>
    <tripinfo id="flow_route_87_duration_20250327_2150.0" depart="0.00" departLane="430416184_0" departPos="1.75" departSpeed="0.00" departDelay="0.00" arrival="52.00" arrivalLane="1091883842_0" arrivalPos="109.56" arrivalSpeed="13.93" duration="52.00" routeLength="408.27" waitingTime="0.00" waitingCount="0" stopTime="0.00" timeLoss="26.42" rerouteNo="0" devices="tripinfo_flow_route_87_duration_20250327_2150.0" vType="car" speedFactor="1.03" vaporized=""/>
    <tripinfo id="flow_route_87_duration_20250327_2150.1" depart="16.00" departLane="430416184_0" departPos="148.34" departSpeed="0.00" departDelay="1.00" arrival="53.00" arrivalLane="1091883842_0" arrivalPos="162.60" arrivalSpeed="13.99" duration="37.00" routeLength="314.71" waitingTime="0.00" waitingCount="0" stopTime="0.00" timeLoss="14.90" rerouteNo="0" devices="tripinfo_flow_route_87_duration_20250327_2150.1" vType="car" speedFactor="0.86" vaporized=""/>
    <tripinfo id="flow_route_86_duration_20250327_2150.0" depart="0.00" departLane="430416184_0" departPos="215.48" departSpeed="0.00" departDelay="0.00" arrival="54.00" arrivalLane="186407685_1" arrivalPos="87.02" arrivalSpeed="13.82" duration="54.00" routeLength="195.42" waitingTime="21.00" waitingCount="1" stopTime="0.00" timeLoss="41.79" rerouteNo="0" devices="tripinfo_flow_route_86_duration_20250327_2150.0" vType="car" speedFactor="1.08" vaporized=""/>
    <tripinfo id="flow_route_88_duration_20250327_2150.1" depart="7.00" departLane="430416184_0" departPos="130.75" departSpeed="0.00" departDelay="0.33" arrival="54.00" arrivalLane="186407684#0_1" arrivalPos="41.08" arrivalSpeed="11.44" duration="47.00" routeLength="227.97" waitingTime="9.00" waitingCount="1" stopTime="0.00" timeLoss="31.86" rerouteNo="0" devices="tripinfo_flow_route_88_duration_20250327_2150.1" vType="car" speedFactor="1.05" vaporized=""/>
    <tripinfo id="flow_route_88_duration_20250327_2150.3" depart="20.00" departLane="430416184_0" departPos="183.20" departSpeed="0.00" departDelay="0.00" arrival="58.00" arrivalLane="186407684#0_1" arrivalPos="27.06" arrivalSpeed="10.38" duration="38.00" routeLength="161.50" waitingTime="2.00" waitingCount="1" stopTime="0.00" timeLoss="27.47" rerouteNo="0" devices="tripinfo_flow_route_88_duration_20250327_2150.3" vType="car" speedFactor="1.09" vaporized=""/>
    <tripinfo id="flow_route_88_duration_20250327_2150.4" depart="27.00" departLane="430416184_0" departPos="238.38" departSpeed="0.00" departDelay="0.34" arrival="59.00" arrivalLane="186407684#0_1" arrivalPos="82.76" arrivalSpeed="14.24" duration="32.00" routeLength="162.01" waitingTime="3.00" waitingCount="1" stopTime="0.00" timeLoss="20.95" rerouteNo="0" devices="tripinfo_flow_route_88_duration_20250327_2150.4" vType="car" speedFactor="1.03" vaporized=""/>
    <tripinfo id="flow_route_88_duration_20250327_2150.7" depart="47.00" departLane="430416184_0" departPos="278.94" departSpeed="0.00" departDelay="0.34" arrival="64.00" arrivalLane="186407684#0_1" arrivalPos="36.25" arrivalSpeed="9.85" duration="17.00" routeLength="74.95" waitingTime="0.00" waitingCount="0" stopTime="0.00" timeLoss="11.67" rerouteNo="0" devices="tripinfo_flow_route_88_duration_20250327_2150.7" vType="car" speedFactor="1.16" vaporized=""/>
    <tripinfo id="flow_route_88_duration_20250327_2150.2" depart="16.00" departLane="430416184_0" departPos="13.36" departSpeed="0.00" departDelay="2.67" arrival="67.00" arrivalLane="186407684#0_1" arrivalPos="49.91" arrivalSpeed="11.58" duration="51.00" routeLength="354.18" waitingTime="0.00" waitingCount="0" stopTime="0.00" timeLoss="28.12" rerouteNo="0" devices="tripinfo_flow_route_88_duration_20250327_2150.2" vType="car" speedFactor="0.89" vaporized=""/>
    <tripinfo id="flow_route_87_duration_20250327_2150.2" depart="30.00" departLane="430416184_0" departPos="87.27" departSpeed="0.00" departDelay="0.00" arrival="67.00" arrivalLane="1091883842_0" arrivalPos="101.08" arrivalSpeed="13.52" duration="37.00" routeLength="314.27" waitingTime="0.00" waitingCount="0" stopTime="0.00" timeLoss="17.18" rerouteNo="0" devices="tripinfo_flow_route_87_duration_20250327_2150.2" vType="car" speedFactor="0.99" vaporized=""/>
    <tripinfo id="flow_route_86_duration_20250327_2150.1" depart="30.00" departLane="430416184_0" departPos="9.37" departSpeed="0.00" departDelay="0.00" arrival="71.00" arrivalLane="186407685_1" arrivalPos="70.22" arrivalSpeed="13.59" duration="41.00" routeLength="384.73" waitingTime="0.00" waitingCount="0" stopTime="0.00" timeLoss="17.52" rerouteNo="0" devices="tripinfo_flow_route_86_duration_20250327_2150.1" vType="car" speedFactor="1.12" vaporized=""/>
    <tripinfo id="flow_route_88_duration_20250327_2150.5" depart="34.00" departLane="430416184_0" departPos="46.01" departSpeed="0.00" departDelay="0.67" arrival="72.00" arrivalLane="186407684#0_1" arrivalPos="67.38" arrivalSpeed="14.07" duration="38.00" routeLength="338.99" waitingTime="0.00" waitingCount="0" stopTime="0.00" timeLoss="15.71" rerouteNo="0" devices="tripinfo_flow_route_88_duration_20250327_2150.5" vType="car" speedFactor="0.93" vaporized=""/>
    <tripinfo id="flow_route_88_duration_20250327_2150.6" depart="40.00" departLane="430416184_0" departPos="8.62" departSpeed="0.00" departDelay="0.00" arrival="79.00" arrivalLane="186407684#0_1" arrivalPos="84.30" arrivalSpeed="14.55" duration="39.00" routeLength="393.31" waitingTime="0.00" waitingCount="0" stopTime="0.00" timeLoss="12.67" rerouteNo="0" devices="tripinfo_flow_route_88_duration_20250327_2150.6" vType="car" speedFactor="0.88" vaporized=""/>
    <tripinfo id="flow_route_87_duration_20250327_2150.3" depart="45.00" departLane="430416184_0" departPos="36.26" departSpeed="0.00" departDelay="0.00" arrival="81.00" arrivalLane="1091883842_0" arrivalPos="61.53" arrivalSpeed="11.41" duration="36.00" routeLength="325.72" waitingTime="0.00" waitingCount="0" stopTime="0.00" timeLoss="15.05" rerouteNo="0" devices="tripinfo_flow_route_87_duration_20250327_2150.3" vType="car" speedFactor="0.94" vaporized=""/>
    <tripinfo id="flow_route_62_duration_20250327_2150.3" depart="45.00" departLane="409155823_0" departPos="11.39" departSpeed="0.00" departDelay="0.00" arrival="94.00" arrivalLane="1091883842_1" arrivalPos="127.22" arrivalSpeed="15.28" duration="49.00" routeLength="221.25" waitingTime="13.00" waitingCount="1" stopTime="0.00" timeLoss="34.21" rerouteNo="0" devices="tripinfo_flow_route_62_duration_20250327_2150.3" vType="car" speedFactor="0.94" vaporized=""/>
    <tripinfo id="flow_route_62_duration_20250327_2150.2" depart="30.00" departLane="409155823_0" departPos="20.84" departSpeed="0.00" departDelay="0.00" arrival="96.00" arrivalLane="1091883842_0" arrivalPos="164.84" arrivalSpeed="16.47" duration="66.00" routeLength="249.41" waitingTime="29.00" waitingCount="1" stopTime="0.00" timeLoss="50.03" rerouteNo="0" devices="tripinfo_flow_route_62_duration_20250327_2150.2" vType="car" speedFactor="1.05" vaporized=""/>
    <tripinfo id="flow_route_88_duration_20250327_2150.8" depart="55.00" departLane="430416184_0" departPos="48.57" departSpeed="0.00" departDelay="1.67" arrival="123.00" arrivalLane="186407684#0_1" arrivalPos="23.27" arrivalSpeed="8.63" duration="68.00" routeLength="292.33" waitingTime="29.00" waitingCount="1" stopTime="0.00" timeLoss="49.08" rerouteNo="0" devices="tripinfo_flow_route_88_duration_20250327_2150.8" vType="car" speedFactor="1.02" vaporized=""/>
</tripinfos>
