<?xml version="1.0" encoding="UTF-8"?>

<!-- generated on 2025-05-06 21:08:04 by Eclipse SUMO sumo Version 1.20.0
<configuration xmlns:xsi="http://www.w3.org/2001/XMLSchema-instance" xsi:noNamespaceSchemaLocation="http://sumo.dlr.de/xsd/sumoConfiguration.xsd">

    <input>
        <net-file value="osm.net.xml"/>
        <route-files value="xml/route_static_cluster10852700972_12154751993_2.rou.xml"/>
    </input>

    <output>
        <tripinfo-output value="xml/tripinfo_static_cluster10852700972_12154751993_2.xml"/>
    </output>

    <traci_server>
        <remote-port value="46417"/>
    </traci_server>

</configuration>
-->

<tripinfos xmlns:xsi="http://www.w3.org/2001/XMLSchema-instance" xsi:noNamespaceSchemaLocation="http://sumo.dlr.de/xsd/tripinfo_file.xsd">
    <tripinfo id="flow_route_61_duration_20250327_1950.0" depart="0.00" departLane="186407684#0_0" departPos="65.67" departSpeed="0.00" departDelay="0.00" arrival="23.00" arrivalLane="1341093416#0_1" arrivalPos="161.76" arrivalSpeed="16.55" duration="23.00" routeLength="210.27" waitingTime="0.00" waitingCount="0" stopTime="0.00" timeLoss="9.88" rerouteNo="0" devices="tripinfo_flow_route_61_duration_20250327_1950.0" vType="car" speedFactor="1.03" vaporized=""/>
    <tripinfo id="flow_route_60_duration_20250327_1950.0" depart="0.00" departLane="186407684#0_0" departPos="48.06" departSpeed="0.00" departDelay="0.00" arrival="24.00" arrivalLane="791826085_0" arrivalPos="160.28" arrivalSpeed="16.30" duration="24.00" routeLength="221.15" waitingTime="0.00" waitingCount="0" stopTime="0.00" timeLoss="10.55" rerouteNo="0" devices="tripinfo_flow_route_60_duration_20250327_1950.0" vType="car" speedFactor="1.08" vaporized=""/>
    <tripinfo id="flow_route_60_duration_20250327_1950.1" depart="8.00" departLane="186407684#0_0" departPos="39.84" departSpeed="0.00" departDelay="0.50" arrival="36.00" arrivalLane="791826085_0" arrivalPos="219.49" arrivalSpeed="16.13" duration="28.00" routeLength="288.57" waitingTime="0.00" waitingCount="0" stopTime="0.00" timeLoss="10.52" rerouteNo="0" devices="tripinfo_flow_route_60_duration_20250327_1950.1" vType="car" speedFactor="1.05" vaporized=""/>
    <tripinfo id="flow_route_60_duration_20250327_1950.2" depart="15.00" departLane="186407684#0_0" departPos="45.21" departSpeed="0.00" departDelay="0.00" arrival="36.00" arrivalLane="791826085_0" arrivalPos="105.00" arrivalSpeed="13.91" duration="21.00" routeLength="168.72" waitingTime="0.00" waitingCount="0" stopTime="0.00" timeLoss="8.44" rerouteNo="0" devices="tripinfo_flow_route_60_duration_20250327_1950.2" vType="car" speedFactor="0.86" vaporized=""/>
    <tripinfo id="flow_route_55_duration_20250327_1950.1" depart="8.00" departLane="1341093415#0_0" departPos="83.09" departSpeed="0.00" departDelay="0.50" arrival="39.00" arrivalLane="791826085_0" arrivalPos="1.97" arrivalSpeed="5.22" duration="31.00" routeLength="108.59" waitingTime="6.00" waitingCount="1" stopTime="0.00" timeLoss="23.36" rerouteNo="0" devices="tripinfo_flow_route_55_duration_20250327_1950.1" vType="car" speedFactor="0.83" vaporized=""/>
    <tripinfo id="flow_route_56_duration_20250327_1950.0" depart="0.00" departLane="1341093415#0_0" departPos="44.11" departSpeed="0.00" departDelay="0.00" arrival="40.00" arrivalLane="409155823_0" arrivalPos="4.00" arrivalSpeed="6.87" duration="40.00" routeLength="164.73" waitingTime="11.00" waitingCount="1" stopTime="0.00" timeLoss="29.04" rerouteNo="0" devices="tripinfo_flow_route_56_duration_20250327_1950.0" vType="car" speedFactor="1.01" vaporized=""/>
    <tripinfo id="flow_route_56_duration_20250327_1950.1" depart="11.00" departLane="1341093415#0_0" departPos="10.74" departSpeed="0.00" departDelay="1.00" arrival="47.00" arrivalLane="409155823_0" arrivalPos="49.85" arrivalSpeed="10.82" duration="36.00" routeLength="243.95" waitingTime="0.00" waitingCount="0" stopTime="0.00" timeLoss="19.56" rerouteNo="0" devices="tripinfo_flow_route_56_duration_20250327_1950.1" vType="car" speedFactor="0.89" vaporized=""/>
    <tripinfo id="flow_route_55_duration_20250327_1950.3" depart="23.00" departLane="1341093415#0_0" departPos="53.79" departSpeed="0.00" departDelay="0.50" arrival="50.00" arrivalLane="791826085_0" arrivalPos="77.20" arrivalSpeed="14.16" duration="27.00" routeLength="213.12" waitingTime="0.00" waitingCount="0" stopTime="0.00" timeLoss="12.97" rerouteNo="0" devices="tripinfo_flow_route_55_duration_20250327_1950.3" vType="car" speedFactor="1.12" vaporized=""/>
    <tripinfo id="flow_route_54_duration_20250327_1950.1" depart="22.00" departLane="1341093415#0_0" departPos="70.69" departSpeed="0.00" departDelay="2.00" arrival="52.00" arrivalLane="1341093416#0_1" arrivalPos="173.69" arrivalSpeed="16.54" duration="30.00" routeLength="309.83" waitingTime="0.00" waitingCount="0" stopTime="0.00" timeLoss="10.80" rerouteNo="0" devices="tripinfo_flow_route_54_duration_20250327_1950.1" vType="car" speedFactor="1.03" vaporized=""/>
    <tripinfo id="flow_route_56_duration_20250327_1950.2" depart="22.00" departLane="1341093415#0_0" departPos="97.02" departSpeed="0.00" departDelay="2.00" arrival="52.00" arrivalLane="409155823_0" arrivalPos="82.66" arrivalSpeed="13.38" duration="30.00" routeLength="190.49" waitingTime="0.00" waitingCount="0" stopTime="0.00" timeLoss="17.24" rerouteNo="0" devices="tripinfo_flow_route_56_duration_20250327_1950.2" vType="car" speedFactor="1.05" vaporized=""/>
    <tripinfo id="flow_route_55_duration_20250327_1950.6" depart="45.00" departLane="1341093415#0_0" departPos="165.43" departSpeed="0.00" departDelay="0.00" arrival="54.00" arrivalLane="791826085_0" arrivalPos="9.08" arrivalSpeed="7.05" duration="9.00" routeLength="33.36" waitingTime="0.00" waitingCount="0" stopTime="0.00" timeLoss="6.01" rerouteNo="0" devices="tripinfo_flow_route_55_duration_20250327_1950.6" vType="car" speedFactor="0.89" vaporized=""/>
    <tripinfo id="flow_route_55_duration_20250327_1950.0" depart="0.00" departLane="1341093415#0_0" departPos="132.48" departSpeed="0.00" departDelay="0.00" arrival="56.00" arrivalLane="791826085_0" arrivalPos="232.37" arrivalSpeed="15.61" duration="56.00" routeLength="289.60" waitingTime="18.00" waitingCount="1" stopTime="0.00" timeLoss="36.30" rerouteNo="0" devices="tripinfo_flow_route_55_duration_20250327_1950.0" vType="car" speedFactor="0.94" vaporized=""/>
    <tripinfo id="flow_route_56_duration_20250327_1950.3" depart="38.00" departLane="1341093415#0_0" departPos="171.10" departSpeed="0.00" departDelay="8.00" arrival="57.00" arrivalLane="409155823_0" arrivalPos="84.21" arrivalSpeed="12.52" duration="19.00" routeLength="117.95" waitingTime="0.00" waitingCount="0" stopTime="0.00" timeLoss="9.64" rerouteNo="0" devices="tripinfo_flow_route_56_duration_20250327_1950.3" vType="car" speedFactor="0.88" vaporized=""/>
    <tripinfo id="flow_route_54_duration_20250327_1950.0" depart="0.00" departLane="1341093415#0_0" departPos="7.77" departSpeed="0.00" departDelay="0.00" arrival="58.00" arrivalLane="1341093416#0_0" arrivalPos="244.31" arrivalSpeed="16.23" duration="58.00" routeLength="443.35" waitingTime="7.00" waitingCount="1" stopTime="0.00" timeLoss="30.62" rerouteNo="0" devices="tripinfo_flow_route_54_duration_20250327_1950.0" vType="car" speedFactor="1.06" vaporized=""/>
    <tripinfo id="flow_route_55_duration_20250327_1950.4" depart="32.00" departLane="1341093415#0_0" departPos="47.07" departSpeed="0.00" departDelay="2.00" arrival="64.00" arrivalLane="791826085_0" arrivalPos="51.89" arrivalSpeed="11.49" duration="32.00" routeLength="194.53" waitingTime="0.00" waitingCount="0" stopTime="0.00" timeLoss="18.76" rerouteNo="0" devices="tripinfo_flow_route_55_duration_20250327_1950.4" vType="car" speedFactor="0.93" vaporized=""/>
    <tripinfo id="flow_route_56_duration_20250327_1950.4" depart="40.00" departLane="1341093415#0_0" departPos="27.06" departSpeed="0.00" departDelay="0.00" arrival="64.00" arrivalLane="409155823_0" arrivalPos="16.14" arrivalSpeed="11.11" duration="24.00" routeLength="193.92" waitingTime="0.00" waitingCount="0" stopTime="0.00" timeLoss="10.90" rerouteNo="0" devices="tripinfo_flow_route_56_duration_20250327_1950.4" vType="car" speedFactor="0.97" vaporized=""/>
    <tripinfo id="flow_route_55_duration_20250327_1950.2" depart="15.00" departLane="1341093415#0_0" departPos="8.23" departSpeed="0.00" departDelay="0.00" arrival="67.00" arrivalLane="791826085_0" arrivalPos="285.55" arrivalSpeed="15.52" duration="52.00" routeLength="467.03" waitingTime="0.00" waitingCount="0" stopTime="0.00" timeLoss="21.49" rerouteNo="0" devices="tripinfo_flow_route_55_duration_20250327_1950.2" vType="car" speedFactor="0.94" vaporized=""/>
    <tripinfo id="flow_route_55_duration_20250327_1950.5" depart="39.00" departLane="1341093415#0_0" departPos="103.39" departSpeed="0.00" departDelay="1.50" arrival="72.00" arrivalLane="791826085_0" arrivalPos="225.55" arrivalSpeed="16.33" duration="33.00" routeLength="311.87" waitingTime="0.00" waitingCount="0" stopTime="0.00" timeLoss="13.29" rerouteNo="0" devices="tripinfo_flow_route_55_duration_20250327_1950.5" vType="car" speedFactor="1.16" vaporized=""/>
    <tripinfo id="flow_route_54_duration_20250327_1950.2" depart="40.00" departLane="1341093415#0_0" departPos="114.37" departSpeed="0.00" departDelay="0.00" arrival="72.00" arrivalLane="1341093416#0_1" arrivalPos="261.83" arrivalSpeed="16.12" duration="32.00" routeLength="354.28" waitingTime="0.00" waitingCount="0" stopTime="0.00" timeLoss="10.26" rerouteNo="0" devices="tripinfo_flow_route_54_duration_20250327_1950.2" vType="car" speedFactor="1.01" vaporized=""/>
    <tripinfo id="flow_route_60_duration_20250327_1950.3" depart="23.00" departLane="186407684#0_0" departPos="67.38" departSpeed="0.00" departDelay="0.50" arrival="74.00" arrivalLane="791826085_0" arrivalPos="10.57" arrivalSpeed="6.79" duration="51.00" routeLength="52.13" waitingTime="34.00" waitingCount="1" stopTime="0.00" timeLoss="47.77" rerouteNo="0" devices="tripinfo_flow_route_60_duration_20250327_1950.3" vType="car" speedFactor="0.99" vaporized=""/>
    <tripinfo id="flow_route_60_duration_20250327_1950.4" depart="30.00" departLane="186407684#0_0" departPos="11.40" departSpeed="0.00" departDelay="0.00" arrival="77.00" arrivalLane="791826085_0" arrivalPos="9.73" arrivalSpeed="8.24" duration="47.00" routeLength="107.25" waitingTime="21.00" waitingCount="1" stopTime="0.00" timeLoss="39.74" rerouteNo="0" devices="tripinfo_flow_route_60_duration_20250327_1950.4" vType="car" speedFactor="0.94" vaporized=""/>
    <tripinfo id="flow_route_60_duration_20250327_1950.7" depart="53.00" departLane="186407684#0_0" departPos="18.26" departSpeed="0.00" departDelay="0.50" arrival="81.00" arrivalLane="791826085_1" arrivalPos="28.05" arrivalSpeed="9.92" duration="28.00" routeLength="118.73" waitingTime="1.00" waitingCount="1" stopTime="0.00" timeLoss="20.54" rerouteNo="0" devices="tripinfo_flow_route_60_duration_20250327_1950.7" vType="car" speedFactor="1.13" vaporized=""/>
    <tripinfo id="flow_route_60_duration_20250327_1950.6" depart="45.00" departLane="186407684#0_0" departPos="5.90" departSpeed="0.00" departDelay="0.00" arrival="86.00" arrivalLane="791826085_0" arrivalPos="90.94" arrivalSpeed="13.61" duration="41.00" routeLength="193.97" waitingTime="7.00" waitingCount="1" stopTime="0.00" timeLoss="26.75" rerouteNo="0" devices="tripinfo_flow_route_60_duration_20250327_1950.6" vType="car" speedFactor="0.83" vaporized=""/>
    <tripinfo id="flow_route_61_duration_20250327_1950.1" depart="15.00" departLane="186407684#0_0" departPos="27.06" departSpeed="0.00" departDelay="0.00" arrival="88.00" arrivalLane="1341093416#0_1" arrivalPos="187.44" arrivalSpeed="16.10" duration="73.00" routeLength="274.56" waitingTime="35.00" waitingCount="1" stopTime="0.00" timeLoss="55.88" rerouteNo="0" devices="tripinfo_flow_route_61_duration_20250327_1950.1" vType="car" speedFactor="1.09" vaporized=""/>
    <tripinfo id="flow_route_61_duration_20250327_1950.2" depart="34.00" departLane="186407684#0_0" departPos="7.85" departSpeed="0.00" departDelay="4.00" arrival="88.00" arrivalLane="1341093416#0_2" arrivalPos="187.84" arrivalSpeed="16.39" duration="54.00" routeLength="290.01" waitingTime="15.00" waitingCount="1" stopTime="0.00" timeLoss="35.18" rerouteNo="0" devices="tripinfo_flow_route_61_duration_20250327_1950.2" vType="car" speedFactor="0.94" vaporized=""/>
    <tripinfo id="flow_route_61_duration_20250327_1950.3" depart="45.00" departLane="186407684#0_0" departPos="15.77" departSpeed="0.00" departDelay="0.00" arrival="88.00" arrivalLane="1341093416#0_2" arrivalPos="149.92" arrivalSpeed="16.38" duration="43.00" routeLength="244.17" waitingTime="7.00" waitingCount="1" stopTime="0.00" timeLoss="26.33" rerouteNo="0" devices="tripinfo_flow_route_61_duration_20250327_1950.3" vType="car" speedFactor="0.87" vaporized=""/>
    <tripinfo id="flow_route_60_duration_20250327_1950.5" depart="39.00" departLane="186407684#0_0" departPos="14.84" departSpeed="0.00" departDelay="1.50" arrival="98.00" arrivalLane="791826085_1" arrivalPos="304.95" arrivalSpeed="16.25" duration="59.00" routeLength="399.04" waitingTime="12.00" waitingCount="1" stopTime="0.00" timeLoss="34.51" rerouteNo="0" devices="tripinfo_flow_route_60_duration_20250327_1950.5" vType="car" speedFactor="1.02" vaporized=""/>
    <tripinfo id="flow_route_56_duration_20250327_1950.5" depart="50.00" departLane="1341093415#0_0" departPos="55.94" departSpeed="0.00" departDelay="0.00" arrival="114.00" arrivalLane="409155823_0" arrivalPos="87.35" arrivalSpeed="12.28" duration="64.00" routeLength="236.25" waitingTime="27.00" waitingCount="1" stopTime="0.00" timeLoss="48.13" rerouteNo="0" devices="tripinfo_flow_route_56_duration_20250327_1950.5" vType="car" speedFactor="0.92" vaporized=""/>
    <tripinfo id="flow_route_55_duration_20250327_1950.7" depart="53.00" departLane="1341093415#0_0" departPos="101.09" departSpeed="0.00" departDelay="0.50" arrival="114.00" arrivalLane="791826085_0" arrivalPos="110.56" arrivalSpeed="13.75" duration="61.00" routeLength="199.18" waitingTime="28.00" waitingCount="1" stopTime="0.00" timeLoss="47.79" rerouteNo="0" devices="tripinfo_flow_route_55_duration_20250327_1950.7" vType="car" speedFactor="0.95" vaporized=""/>
</tripinfos>
