<?xml version="1.0" encoding="UTF-8"?>

<!-- generated on 2025-05-06 21:08:15 by Eclipse SUMO sumo Version 1.20.0
<configuration xmlns:xsi="http://www.w3.org/2001/XMLSchema-instance" xsi:noNamespaceSchemaLocation="http://sumo.dlr.de/xsd/sumoConfiguration.xsd">

    <input>
        <net-file value="osm.net.xml"/>
        <route-files value="xml/route_static_cluster_4110471701_632031939_3.rou.xml"/>
    </input>

    <output>
        <tripinfo-output value="xml/tripinfo_static_cluster_4110471701_632031939_3.xml"/>
    </output>

    <traci_server>
        <remote-port value="53445"/>
    </traci_server>

</configuration>
-->

<tripinfos xmlns:xsi="http://www.w3.org/2001/XMLSchema-instance" xsi:noNamespaceSchemaLocation="http://sumo.dlr.de/xsd/tripinfo_file.xsd">
    <tripinfo id="flow_route_83_duration_20250327_1910.0" depart="0.00" departLane="423956929_0" departPos="101.16" departSpeed="0.00" departDelay="0.00" arrival="17.00" arrivalLane="186407685_0" arrivalPos="8.05" arrivalSpeed="6.86" duration="17.00" routeLength="101.45" waitingTime="0.00" waitingCount="0" stopTime="0.00" timeLoss="10.18" rerouteNo="0" devices="tripinfo_flow_route_83_duration_20250327_1910.0" vType="car" speedFactor="1.01" vaporized=""/>
    <tripinfo id="flow_route_62_duration_20250327_1910.1" depart="10.00" departLane="409155823_0" departPos="84.21" departSpeed="0.00" departDelay="0.00" arrival="18.00" arrivalLane="1091883842_0" arrivalPos="6.02" arrivalSpeed="6.52" duration="8.00" routeLength="27.22" waitingTime="0.00" waitingCount="0" stopTime="0.00" timeLoss="6.27" rerouteNo="0" devices="tripinfo_flow_route_62_duration_20250327_1910.1" vType="car" speedFactor="0.99" vaporized=""/>
    <tripinfo id="flow_route_62_duration_20250327_1910.0" depart="0.00" departLane="409155823_0" departPos="65.43" departSpeed="0.00" departDelay="0.00" arrival="23.00" arrivalLane="1091883842_0" arrivalPos="165.47" arrivalSpeed="16.20" duration="23.00" routeLength="205.45" waitingTime="0.00" waitingCount="0" stopTime="0.00" timeLoss="10.54" rerouteNo="0" devices="tripinfo_flow_route_62_duration_20250327_1910.0" vType="car" speedFactor="1.06" vaporized=""/>
    <tripinfo id="flow_route_82_duration_20250327_1910.0" depart="0.00" departLane="423956929_0" departPos="45.92" departSpeed="0.00" departDelay="0.00" arrival="23.00" arrivalLane="186407684#0_0" arrivalPos="62.79" arrivalSpeed="15.24" duration="23.00" routeLength="219.95" waitingTime="0.00" waitingCount="0" stopTime="0.00" timeLoss="8.89" rerouteNo="0" devices="tripinfo_flow_route_82_duration_20250327_1910.0" vType="car" speedFactor="0.94" vaporized=""/>
    <tripinfo id="flow_route_88_duration_20250327_1910.3" depart="4.00" departLane="430416184_0" departPos="253.21" departSpeed="0.00" departDelay="0.33" arrival="42.00" arrivalLane="186407684#0_1" arrivalPos="5.31" arrivalSpeed="8.20" duration="38.00" routeLength="69.73" waitingTime="14.00" waitingCount="2" stopTime="0.00" timeLoss="32.27" rerouteNo="0" devices="tripinfo_flow_route_88_duration_20250327_1910.3" vType="car" speedFactor="0.94" vaporized=""/>
    <tripinfo id="flow_route_88_duration_20250327_1910.4" depart="7.00" departLane="430416184_0" departPos="271.56" departSpeed="0.00" departDelay="2.10" arrival="45.00" arrivalLane="186407684#0_1" arrivalPos="60.25" arrivalSpeed="11.44" duration="38.00" routeLength="106.32" waitingTime="15.00" waitingCount="1" stopTime="0.00" timeLoss="30.68" rerouteNo="0" devices="tripinfo_flow_route_88_duration_20250327_1910.4" vType="car" speedFactor="1.09" vaporized=""/>
    <tripinfo id="flow_route_88_duration_20250327_1910.8" depart="12.00" departLane="430416184_0" departPos="278.94" departSpeed="0.00" departDelay="2.21" arrival="47.00" arrivalLane="186407684#0_1" arrivalPos="14.02" arrivalSpeed="8.46" duration="35.00" routeLength="52.72" waitingTime="21.00" waitingCount="1" stopTime="0.00" timeLoss="30.70" rerouteNo="0" devices="tripinfo_flow_route_88_duration_20250327_1910.8" vType="car" speedFactor="0.94" vaporized=""/>
    <tripinfo id="flow_route_86_duration_20250327_1910.0" depart="0.00" departLane="430416184_0" departPos="215.48" departSpeed="0.00" departDelay="0.00" arrival="56.00" arrivalLane="186407685_1" arrivalPos="87.02" arrivalSpeed="14.41" duration="56.00" routeLength="195.42" waitingTime="14.00" waitingCount="1" stopTime="0.00" timeLoss="43.94" rerouteNo="0" devices="tripinfo_flow_route_86_duration_20250327_1910.0" vType="car" speedFactor="1.08" vaporized=""/>
    <tripinfo id="flow_route_88_duration_20250327_1910.5" depart="7.00" departLane="430416184_0" departPos="238.38" departSpeed="0.00" departDelay="0.88" arrival="59.00" arrivalLane="186407684#0_1" arrivalPos="27.06" arrivalSpeed="9.25" duration="52.00" routeLength="106.31" waitingTime="16.00" waitingCount="3" stopTime="0.00" timeLoss="44.76" rerouteNo="0" devices="tripinfo_flow_route_88_duration_20250327_1910.5" vType="car" speedFactor="1.03" vaporized=""/>
    <tripinfo id="flow_route_88_duration_20250327_1910.29" depart="42.00" departLane="430416184_0" departPos="283.68" departSpeed="0.00" departDelay="6.50" arrival="61.00" arrivalLane="186407684#0_1" arrivalPos="74.51" arrivalSpeed="12.83" duration="19.00" routeLength="108.46" waitingTime="1.00" waitingCount="1" stopTime="0.00" timeLoss="10.85" rerouteNo="0" devices="tripinfo_flow_route_88_duration_20250327_1910.29" vType="car" speedFactor="1.02" vaporized=""/>
    <tripinfo id="flow_route_88_duration_20250327_1910.32" depart="48.00" departLane="430416184_0" departPos="288.25" departSpeed="0.00" departDelay="8.83" arrival="63.00" arrivalLane="186407684#0_1" arrivalPos="9.07" arrivalSpeed="7.78" duration="15.00" routeLength="38.45" waitingTime="3.00" waitingCount="1" stopTime="0.00" timeLoss="11.51" rerouteNo="0" devices="tripinfo_flow_route_88_duration_20250327_1910.32" vType="car" speedFactor="1.02" vaporized=""/>
    <tripinfo id="flow_route_88_duration_20250327_1910.14" depart="19.00" departLane="430416184_0" departPos="268.40" departSpeed="0.00" departDelay="1.86" arrival="66.00" arrivalLane="186407684#0_1" arrivalPos="16.16" arrivalSpeed="8.56" duration="47.00" routeLength="65.39" waitingTime="25.00" waitingCount="3" stopTime="0.00" timeLoss="41.61" rerouteNo="0" devices="tripinfo_flow_route_88_duration_20250327_1910.14" vType="car" speedFactor="0.92" vaporized=""/>
    <tripinfo id="flow_route_88_duration_20250327_1910.0" depart="0.00" departLane="430416184_0" departPos="194.63" departSpeed="0.00" departDelay="0.00" arrival="67.00" arrivalLane="186407684#0_1" arrivalPos="3.84" arrivalSpeed="8.76" duration="67.00" routeLength="126.85" waitingTime="14.00" waitingCount="2" stopTime="0.00" timeLoss="57.55" rerouteNo="0" devices="tripinfo_flow_route_88_duration_20250327_1910.0" vType="car" speedFactor="0.83" vaporized=""/>
    <tripinfo id="flow_route_87_duration_20250327_1910.1" depart="7.00" departLane="430416184_0" departPos="183.20" departSpeed="0.00" departDelay="2.00" arrival="67.00" arrivalLane="1091883842_0" arrivalPos="59.79" arrivalSpeed="10.50" duration="60.00" routeLength="177.05" waitingTime="16.00" waitingCount="2" stopTime="0.00" timeLoss="47.16" rerouteNo="0" devices="tripinfo_flow_route_87_duration_20250327_1910.1" vType="car" speedFactor="0.86" vaporized=""/>
    <tripinfo id="flow_route_87_duration_20250327_1910.2" depart="10.00" departLane="430416184_0" departPos="198.12" departSpeed="0.00" departDelay="0.00" arrival="71.00" arrivalLane="1091883842_0" arrivalPos="141.98" arrivalSpeed="14.45" duration="61.00" routeLength="244.31" waitingTime="19.00" waitingCount="3" stopTime="0.00" timeLoss="43.17" rerouteNo="0" devices="tripinfo_flow_route_87_duration_20250327_1910.2" vType="car" speedFactor="0.88" vaporized=""/>
    <tripinfo id="flow_route_88_duration_20250327_1910.1" depart="2.00" departLane="430416184_0" departPos="130.75" departSpeed="0.00" departDelay="0.78" arrival="72.00" arrivalLane="186407684#0_1" arrivalPos="41.08" arrivalSpeed="11.44" duration="70.00" routeLength="227.97" waitingTime="12.00" waitingCount="1" stopTime="0.00" timeLoss="55.42" rerouteNo="0" devices="tripinfo_flow_route_88_duration_20250327_1910.1" vType="car" speedFactor="1.05" vaporized=""/>
    <tripinfo id="flow_route_87_duration_20250327_1910.6" depart="31.00" departLane="430416184_0" departPos="225.86" departSpeed="0.00" departDelay="1.00" arrival="72.00" arrivalLane="1091883842_0" arrivalPos="55.03" arrivalSpeed="10.78" duration="41.00" routeLength="129.62" waitingTime="7.00" waitingCount="2" stopTime="0.00" timeLoss="32.23" rerouteNo="0" devices="tripinfo_flow_route_87_duration_20250327_1910.6" vType="car" speedFactor="1.04" vaporized=""/>
    <tripinfo id="flow_route_82_duration_20250327_1910.3" depart="45.00" departLane="423956929_0" departPos="2.16" departSpeed="0.00" departDelay="0.00" arrival="73.00" arrivalLane="186407684#0_2" arrivalPos="29.86" arrivalSpeed="11.20" duration="28.00" routeLength="230.78" waitingTime="0.00" waitingCount="0" stopTime="0.00" timeLoss="14.05" rerouteNo="0" devices="tripinfo_flow_route_82_duration_20250327_1910.3" vType="car" speedFactor="1.02" vaporized=""/>
    <tripinfo id="flow_route_87_duration_20250327_1910.3" depart="18.00" departLane="430416184_0" departPos="185.56" departSpeed="0.00" departDelay="3.00" arrival="75.00" arrivalLane="1091883842_0" arrivalPos="132.89" arrivalSpeed="14.69" duration="57.00" routeLength="247.78" waitingTime="11.00" waitingCount="1" stopTime="0.00" timeLoss="39.21" rerouteNo="0" devices="tripinfo_flow_route_87_duration_20250327_1910.3" vType="car" speedFactor="0.89" vaporized=""/>
    <tripinfo id="flow_route_83_duration_20250327_1910.1" depart="12.00" departLane="423956929_0" departPos="48.99" departSpeed="0.00" departDelay="0.00" arrival="79.00" arrivalLane="186407685_0" arrivalPos="22.20" arrivalSpeed="8.01" duration="67.00" routeLength="167.77" waitingTime="34.00" waitingCount="1" stopTime="0.00" timeLoss="55.20" rerouteNo="0" devices="tripinfo_flow_route_83_duration_20250327_1910.1" vType="car" speedFactor="0.94" vaporized=""/>
    <tripinfo id="flow_route_62_duration_20250327_1910.2" depart="20.00" departLane="409155823_0" departPos="7.57" departSpeed="0.00" departDelay="0.00" arrival="79.00" arrivalLane="1091883842_0" arrivalPos="33.24" arrivalSpeed="9.55" duration="59.00" routeLength="131.08" waitingTime="30.00" waitingCount="1" stopTime="0.00" timeLoss="50.58" rerouteNo="0" devices="tripinfo_flow_route_62_duration_20250327_1910.2" vType="car" speedFactor="1.13" vaporized=""/>
    <tripinfo id="flow_route_82_duration_20250327_1910.2" depart="30.00" departLane="423956929_0" departPos="129.78" departSpeed="0.00" departDelay="0.00" arrival="80.00" arrivalLane="186407684#0_1" arrivalPos="50.56" arrivalSpeed="9.97" duration="50.00" routeLength="123.86" waitingTime="24.00" waitingCount="1" stopTime="0.00" timeLoss="42.54" rerouteNo="0" devices="tripinfo_flow_route_82_duration_20250327_1910.2" vType="car" speedFactor="1.09" vaporized=""/>
    <tripinfo id="flow_route_82_duration_20250327_1910.1" depart="16.00" departLane="423956929_0" departPos="91.39" departSpeed="0.00" departDelay="1.00" arrival="82.00" arrivalLane="186407684#0_0" arrivalPos="58.88" arrivalSpeed="10.97" duration="66.00" routeLength="170.58" waitingTime="35.00" waitingCount="1" stopTime="0.00" timeLoss="55.03" rerouteNo="0" devices="tripinfo_flow_route_82_duration_20250327_1910.1" vType="car" speedFactor="0.97" vaporized=""/>
    <tripinfo id="flow_route_83_duration_20250327_1910.2" depart="24.00" departLane="423956929_0" departPos="95.14" departSpeed="0.00" departDelay="0.00" arrival="82.00" arrivalLane="186407685_0" arrivalPos="37.60" arrivalSpeed="9.72" duration="58.00" routeLength="137.02" waitingTime="25.00" waitingCount="1" stopTime="0.00" timeLoss="48.71" rerouteNo="0" devices="tripinfo_flow_route_83_duration_20250327_1910.2" vType="car" speedFactor="0.99" vaporized=""/>
    <tripinfo id="flow_route_62_duration_20250327_1910.5" depart="50.00" departLane="409155823_0" departPos="28.47" departSpeed="0.00" departDelay="0.00" arrival="82.00" arrivalLane="1091883842_2" arrivalPos="61.81" arrivalSpeed="11.85" duration="32.00" routeLength="138.75" waitingTime="3.00" waitingCount="1" stopTime="0.00" timeLoss="23.07" rerouteNo="0" devices="tripinfo_flow_route_62_duration_20250327_1910.5" vType="car" speedFactor="1.02" vaporized=""/>
    <tripinfo id="flow_route_87_duration_20250327_1910.10" depart="62.00" departLane="430416184_0" departPos="216.77" departSpeed="0.00" departDelay="12.00" arrival="89.00" arrivalLane="1091883842_0" arrivalPos="28.48" arrivalSpeed="8.06" duration="27.00" routeLength="112.16" waitingTime="0.00" waitingCount="0" stopTime="0.00" timeLoss="19.46" rerouteNo="0" devices="tripinfo_flow_route_87_duration_20250327_1910.10" vType="car" speedFactor="0.94" vaporized=""/>
    <tripinfo id="flow_route_87_duration_20250327_1910.11" depart="70.00" departLane="430416184_0" departPos="284.07" departSpeed="0.00" departDelay="15.00" arrival="89.00" arrivalLane="1091883842_0" arrivalPos="42.29" arrivalSpeed="9.19" duration="19.00" routeLength="58.68" waitingTime="3.00" waitingCount="1" stopTime="0.00" timeLoss="14.36" rerouteNo="0" devices="tripinfo_flow_route_87_duration_20250327_1910.11" vType="car" speedFactor="0.98" vaporized=""/>
    <tripinfo id="flow_route_62_duration_20250327_1910.3" depart="30.00" departLane="409155823_0" departPos="30.18" departSpeed="0.00" departDelay="0.00" arrival="90.00" arrivalLane="1091883842_0" arrivalPos="162.28" arrivalSpeed="15.46" duration="60.00" routeLength="237.51" waitingTime="23.00" waitingCount="1" stopTime="0.00" timeLoss="44.17" rerouteNo="0" devices="tripinfo_flow_route_62_duration_20250327_1910.3" vType="car" speedFactor="0.96" vaporized=""/>
    <tripinfo id="flow_route_62_duration_20250327_1910.4" depart="40.00" departLane="409155823_0" departPos="56.44" departSpeed="0.00" departDelay="0.00" arrival="90.00" arrivalLane="1091883842_0" arrivalPos="126.44" arrivalSpeed="15.35" duration="50.00" routeLength="175.41" waitingTime="19.00" waitingCount="1" stopTime="0.00" timeLoss="38.76" rerouteNo="0" devices="tripinfo_flow_route_62_duration_20250327_1910.4" vType="car" speedFactor="1.00" vaporized=""/>
    <tripinfo id="flow_route_83_duration_20250327_1910.4" depart="48.00" departLane="423956929_0" departPos="145.46" departSpeed="0.00" departDelay="0.00" arrival="94.00" arrivalLane="186407685_0" arrivalPos="145.08" arrivalSpeed="16.11" duration="46.00" routeLength="194.18" waitingTime="14.00" waitingCount="1" stopTime="0.00" timeLoss="32.69" rerouteNo="0" devices="tripinfo_flow_route_83_duration_20250327_1910.4" vType="car" speedFactor="0.91" vaporized=""/>
    <tripinfo id="flow_route_83_duration_20250327_1910.3" depart="36.00" departLane="423956929_0" departPos="63.93" departSpeed="0.00" departDelay="0.00" arrival="97.00" arrivalLane="186407685_0" arrivalPos="173.21" arrivalSpeed="16.22" duration="61.00" routeLength="303.85" waitingTime="14.00" waitingCount="1" stopTime="0.00" timeLoss="41.33" rerouteNo="0" devices="tripinfo_flow_route_83_duration_20250327_1910.3" vType="car" speedFactor="1.17" vaporized=""/>
    <tripinfo id="flow_route_88_duration_20250327_1910.9" depart="13.00" departLane="430416184_0" departPos="165.30" departSpeed="0.00" departDelay="1.98" arrival="114.00" arrivalLane="186407684#0_1" arrivalPos="36.25" arrivalSpeed="9.65" duration="101.00" routeLength="188.58" waitingTime="40.00" waitingCount="2" stopTime="0.00" timeLoss="88.76" rerouteNo="0" devices="tripinfo_flow_route_88_duration_20250327_1910.9" vType="car" speedFactor="1.16" vaporized=""/>
    <tripinfo id="flow_route_88_duration_20250327_1910.19" depart="24.00" departLane="430416184_0" departPos="238.74" departSpeed="0.00" departDelay="0.74" arrival="114.00" arrivalLane="186407684#0_1" arrivalPos="59.81" arrivalSpeed="10.53" duration="90.00" routeLength="138.71" waitingTime="41.00" waitingCount="2" stopTime="0.00" timeLoss="80.77" rerouteNo="0" devices="tripinfo_flow_route_88_duration_20250327_1910.19" vType="car" speedFactor="1.02" vaporized=""/>
    <tripinfo id="flow_route_88_duration_20250327_1910.48" depart="75.00" departLane="430416184_0" departPos="261.68" departSpeed="0.00" departDelay="16.25" arrival="117.00" arrivalLane="186407684#0_1" arrivalPos="19.44" arrivalSpeed="9.98" duration="42.00" routeLength="75.40" waitingTime="23.00" waitingCount="1" stopTime="0.00" timeLoss="36.10" rerouteNo="0" devices="tripinfo_flow_route_88_duration_20250327_1910.48" vType="car" speedFactor="1.00" vaporized=""/>
    <tripinfo id="flow_route_88_duration_20250327_1910.6" depart="8.00" departLane="430416184_0" departPos="114.69" departSpeed="0.00" departDelay="0.66" arrival="119.00" arrivalLane="186407684#0_1" arrivalPos="78.23" arrivalSpeed="13.22" duration="111.00" routeLength="281.17" waitingTime="38.00" waitingCount="2" stopTime="0.00" timeLoss="92.95" rerouteNo="0" devices="tripinfo_flow_route_88_duration_20250327_1910.6" vType="car" speedFactor="1.05" vaporized=""/>
    <tripinfo id="flow_route_88_duration_20250327_1910.25" depart="31.00" departLane="430416184_0" departPos="205.97" departSpeed="0.00" departDelay="0.40" arrival="126.00" arrivalLane="186407684#0_1" arrivalPos="58.33" arrivalSpeed="12.71" duration="95.00" routeLength="169.99" waitingTime="61.00" waitingCount="4" stopTime="0.00" timeLoss="83.56" rerouteNo="0" devices="tripinfo_flow_route_88_duration_20250327_1910.25" vType="car" speedFactor="1.00" vaporized=""/>
    <tripinfo id="flow_route_86_duration_20250327_1910.4" depart="44.00" departLane="430416184_0" departPos="230.76" departSpeed="0.00" departDelay="4.00" arrival="128.00" arrivalLane="186407685_1" arrivalPos="104.95" arrivalSpeed="15.47" duration="84.00" routeLength="198.07" waitingTime="45.00" waitingCount="3" stopTime="0.00" timeLoss="71.68" rerouteNo="0" devices="tripinfo_flow_route_86_duration_20250327_1910.4" vType="car" speedFactor="0.90" vaporized=""/>
    <tripinfo id="flow_route_88_duration_20250327_1910.39" depart="60.00" departLane="430416184_0" departPos="229.33" departSpeed="0.00" departDelay="12.26" arrival="128.00" arrivalLane="186407684#0_1" arrivalPos="34.68" arrivalSpeed="12.08" duration="68.00" routeLength="122.98" waitingTime="37.00" waitingCount="4" stopTime="0.00" timeLoss="59.63" rerouteNo="0" devices="tripinfo_flow_route_88_duration_20250327_1910.39" vType="car" speedFactor="1.04" vaporized=""/>
    <tripinfo id="flow_route_88_duration_20250327_1910.10" depart="17.00" departLane="430416184_0" departPos="167.75" departSpeed="0.00" departDelay="4.76" arrival="129.00" arrivalLane="186407684#0_1" arrivalPos="14.80" arrivalSpeed="9.96" duration="112.00" routeLength="164.68" waitingTime="52.00" waitingCount="7" stopTime="0.00" timeLoss="101.01" rerouteNo="0" devices="tripinfo_flow_route_88_duration_20250327_1910.10" vType="car" speedFactor="1.02" vaporized=""/>
    <tripinfo id="flow_route_87_duration_20250327_1910.4" depart="23.00" departLane="430416184_0" departPos="101.75" departSpeed="0.00" departDelay="3.00" arrival="131.00" arrivalLane="1091883842_0" arrivalPos="58.29" arrivalSpeed="11.63" duration="108.00" routeLength="256.99" waitingTime="52.00" waitingCount="4" stopTime="0.00" timeLoss="91.27" rerouteNo="0" devices="tripinfo_flow_route_87_duration_20250327_1910.4" vType="car" speedFactor="1.18" vaporized=""/>
    <tripinfo id="flow_route_87_duration_20250327_1910.0" depart="0.00" departLane="430416184_0" departPos="1.75" departSpeed="0.00" departDelay="0.00" arrival="133.00" arrivalLane="1091883842_0" arrivalPos="109.56" arrivalSpeed="14.18" duration="133.00" routeLength="408.27" waitingTime="53.00" waitingCount="4" stopTime="0.00" timeLoss="107.17" rerouteNo="0" devices="tripinfo_flow_route_87_duration_20250327_1910.0" vType="car" speedFactor="1.03" vaporized=""/>
    <tripinfo id="flow_route_88_duration_20250327_1910.17" depart="24.00" departLane="430416184_0" departPos="177.89" departSpeed="0.00" departDelay="3.19" arrival="136.00" arrivalLane="186407684#0_1" arrivalPos="18.26" arrivalSpeed="11.38" duration="112.00" routeLength="158.00" waitingTime="52.00" waitingCount="7" stopTime="0.00" timeLoss="101.28" rerouteNo="0" devices="tripinfo_flow_route_88_duration_20250327_1910.17" vType="car" speedFactor="1.01" vaporized=""/>
    <tripinfo id="flow_route_88_duration_20250327_1910.22" depart="29.00" departLane="430416184_0" departPos="205.54" departSpeed="0.00" departDelay="2.07" arrival="137.00" arrivalLane="186407684#0_1" arrivalPos="77.16" arrivalSpeed="13.72" duration="108.00" routeLength="189.25" waitingTime="44.00" waitingCount="6" stopTime="0.00" timeLoss="94.53" rerouteNo="0" devices="tripinfo_flow_route_88_duration_20250327_1910.22" vType="car" speedFactor="0.90" vaporized=""/>
    <tripinfo id="flow_route_88_duration_20250327_1910.13" depart="19.00" departLane="430416184_0" departPos="158.12" departSpeed="0.00" departDelay="3.09" arrival="139.00" arrivalLane="186407684#0_1" arrivalPos="84.60" arrivalSpeed="14.47" duration="120.00" routeLength="244.11" waitingTime="43.00" waitingCount="6" stopTime="0.00" timeLoss="103.25" rerouteNo="0" devices="tripinfo_flow_route_88_duration_20250327_1910.13" vType="car" speedFactor="0.87" vaporized=""/>
    <tripinfo id="flow_route_88_duration_20250327_1910.2" depart="3.00" departLane="430416184_0" departPos="76.50" departSpeed="0.00" departDelay="0.55" arrival="180.00" arrivalLane="186407684#0_1" arrivalPos="49.91" arrivalSpeed="11.26" duration="177.00" routeLength="291.04" waitingTime="78.00" waitingCount="9" stopTime="0.00" timeLoss="157.58" rerouteNo="0" devices="tripinfo_flow_route_88_duration_20250327_1910.2" vType="car" speedFactor="0.89" vaporized=""/>
    <tripinfo id="flow_route_88_duration_20250327_1910.27" depart="34.00" departLane="430416184_0" departPos="138.82" departSpeed="0.00" departDelay="0.95" arrival="185.00" arrivalLane="186407684#0_1" arrivalPos="77.73" arrivalSpeed="13.14" duration="151.00" routeLength="256.54" waitingTime="80.00" waitingCount="3" stopTime="0.00" timeLoss="133.29" rerouteNo="0" devices="tripinfo_flow_route_88_duration_20250327_1910.27" vType="car" speedFactor="0.88" vaporized=""/>
    <tripinfo id="flow_route_88_duration_20250327_1910.7" depart="9.00" departLane="430416184_0" departPos="68.46" departSpeed="0.00" departDelay="0.43" arrival="187.00" arrivalLane="186407684#0_1" arrivalPos="47.97" arrivalSpeed="11.84" duration="178.00" routeLength="297.14" waitingTime="78.00" waitingCount="5" stopTime="0.00" timeLoss="159.14" rerouteNo="0" devices="tripinfo_flow_route_88_duration_20250327_1910.7" vType="car" speedFactor="1.12" vaporized=""/>
    <tripinfo id="flow_route_88_duration_20250327_1910.33" depart="48.00" departLane="430416184_0" departPos="140.96" departSpeed="0.00" departDelay="7.61" arrival="187.00" arrivalLane="186407684#0_1" arrivalPos="72.36" arrivalSpeed="13.08" duration="139.00" routeLength="249.03" waitingTime="90.00" waitingCount="3" stopTime="0.00" timeLoss="122.61" rerouteNo="0" devices="tripinfo_flow_route_88_duration_20250327_1910.33" vType="car" speedFactor="0.97" vaporized=""/>
    <tripinfo id="flow_route_86_duration_20250327_1910.1" depart="10.00" departLane="430416184_0" departPos="8.62" departSpeed="0.00" departDelay="0.00" arrival="192.00" arrivalLane="186407685_1" arrivalPos="53.43" arrivalSpeed="14.08" duration="182.00" routeLength="368.69" waitingTime="79.00" waitingCount="6" stopTime="0.00" timeLoss="159.47" rerouteNo="0" devices="tripinfo_flow_route_86_duration_20250327_1910.1" vType="car" speedFactor="0.93" vaporized=""/>
    <tripinfo id="flow_route_88_duration_20250327_1910.45" depart="72.00" departLane="430416184_0" departPos="152.79" departSpeed="0.00" departDelay="16.92" arrival="192.00" arrivalLane="186407684#0_1" arrivalPos="81.04" arrivalSpeed="13.49" duration="120.00" routeLength="245.88" waitingTime="81.00" waitingCount="3" stopTime="0.00" timeLoss="104.48" rerouteNo="0" devices="tripinfo_flow_route_88_duration_20250327_1910.45" vType="car" speedFactor="1.01" vaporized=""/>
    <tripinfo id="flow_route_88_duration_20250327_1910.31" depart="44.00" departLane="430416184_0" departPos="100.01" departSpeed="0.00" departDelay="6.06" arrival="197.00" arrivalLane="186407684#0_1" arrivalPos="51.92" arrivalSpeed="12.03" duration="153.00" routeLength="269.54" waitingTime="98.00" waitingCount="5" stopTime="0.00" timeLoss="135.37" rerouteNo="0" devices="tripinfo_flow_route_88_duration_20250327_1910.31" vType="car" speedFactor="1.00" vaporized=""/>
    <tripinfo id="flow_route_88_duration_20250327_1910.34" depart="53.00" departLane="430416184_0" departPos="167.60" departSpeed="0.00" departDelay="11.38" arrival="198.00" arrivalLane="186407684#0_1" arrivalPos="48.40" arrivalSpeed="12.63" duration="145.00" routeLength="198.43" waitingTime="73.00" waitingCount="3" stopTime="0.00" timeLoss="132.24" rerouteNo="0" devices="tripinfo_flow_route_88_duration_20250327_1910.34" vType="car" speedFactor="1.08" vaporized=""/>
    <tripinfo id="flow_route_87_duration_20250327_1910.7" depart="36.00" departLane="430416184_0" departPos="44.41" departSpeed="0.00" departDelay="1.00" arrival="200.00" arrivalLane="1091883842_0" arrivalPos="7.91" arrivalSpeed="6.63" duration="164.00" routeLength="263.95" waitingTime="97.00" waitingCount="6" stopTime="0.00" timeLoss="146.55" rerouteNo="0" devices="tripinfo_flow_route_87_duration_20250327_1910.7" vType="car" speedFactor="0.85" vaporized=""/>
    <tripinfo id="flow_route_88_duration_20250327_1910.24" depart="31.00" departLane="430416184_0" departPos="81.32" departSpeed="0.00" departDelay="1.62" arrival="201.00" arrivalLane="186407684#0_1" arrivalPos="36.23" arrivalSpeed="12.85" duration="170.00" routeLength="272.54" waitingTime="109.00" waitingCount="11" stopTime="0.00" timeLoss="152.13" rerouteNo="0" devices="tripinfo_flow_route_88_duration_20250327_1910.24" vType="car" speedFactor="1.09" vaporized=""/>
    <tripinfo id="flow_route_88_duration_20250327_1910.16" depart="24.00" departLane="430416184_0" departPos="122.39" departSpeed="0.00" departDelay="4.42" arrival="202.00" arrivalLane="186407684#0_1" arrivalPos="29.88" arrivalSpeed="12.47" duration="178.00" routeLength="225.12" waitingTime="88.00" waitingCount="5" stopTime="0.00" timeLoss="163.54" rerouteNo="0" devices="tripinfo_flow_route_88_duration_20250327_1910.16" vType="car" speedFactor="1.15" vaporized=""/>
    <tripinfo id="flow_route_88_duration_20250327_1910.38" depart="60.00" departLane="430416184_0" departPos="164.43" departSpeed="0.00" departDelay="13.49" arrival="205.00" arrivalLane="186407684#0_1" arrivalPos="36.30" arrivalSpeed="12.50" duration="145.00" routeLength="189.50" waitingTime="79.00" waitingCount="3" stopTime="0.00" timeLoss="131.35" rerouteNo="0" devices="tripinfo_flow_route_88_duration_20250327_1910.38" vType="car" speedFactor="0.91" vaporized=""/>
    <tripinfo id="flow_route_87_duration_20250327_1910.9" depart="54.00" departLane="430416184_0" departPos="28.25" departSpeed="0.00" departDelay="9.00" arrival="206.00" arrivalLane="1091883842_0" arrivalPos="0.16" arrivalSpeed="7.26" duration="152.00" routeLength="272.35" waitingTime="78.00" waitingCount="7" stopTime="0.00" timeLoss="134.23" rerouteNo="0" devices="tripinfo_flow_route_87_duration_20250327_1910.9" vType="car" speedFactor="0.99" vaporized=""/>
    <tripinfo id="flow_route_88_duration_20250327_1910.23" depart="29.00" departLane="430416184_0" departPos="131.81" departSpeed="0.00" departDelay="0.85" arrival="207.00" arrivalLane="186407684#0_1" arrivalPos="43.42" arrivalSpeed="13.61" duration="178.00" routeLength="229.24" waitingTime="91.00" waitingCount="6" stopTime="0.00" timeLoss="162.97" rerouteNo="0" devices="tripinfo_flow_route_88_duration_20250327_1910.23" vType="car" speedFactor="1.03" vaporized=""/>
    <tripinfo id="flow_route_87_duration_20250327_1910.5" depart="26.00" departLane="430416184_0" departPos="6.90" departSpeed="0.00" departDelay="1.00" arrival="211.00" arrivalLane="1091883842_0" arrivalPos="108.64" arrivalSpeed="14.58" duration="185.00" routeLength="402.20" waitingTime="92.00" waitingCount="6" stopTime="0.00" timeLoss="159.24" rerouteNo="0" devices="tripinfo_flow_route_87_duration_20250327_1910.5" vType="car" speedFactor="0.97" vaporized=""/>
    <tripinfo id="flow_route_87_duration_20250327_1910.8" depart="47.00" departLane="430416184_0" departPos="33.07" departSpeed="0.00" departDelay="7.00" arrival="214.00" arrivalLane="1091883842_0" arrivalPos="106.47" arrivalSpeed="14.89" duration="167.00" routeLength="373.86" waitingTime="87.00" waitingCount="7" stopTime="0.00" timeLoss="143.35" rerouteNo="0" devices="tripinfo_flow_route_87_duration_20250327_1910.8" vType="car" speedFactor="1.14" vaporized=""/>
    <tripinfo id="flow_route_88_duration_20250327_1910.44" depart="70.00" departLane="430416184_0" departPos="55.12" departSpeed="0.00" departDelay="16.14" arrival="248.00" arrivalLane="186407684#0_1" arrivalPos="10.11" arrivalSpeed="8.67" duration="178.00" routeLength="272.62" waitingTime="105.00" waitingCount="5" stopTime="0.00" timeLoss="160.86" rerouteNo="0" devices="tripinfo_flow_route_88_duration_20250327_1910.44" vType="car" speedFactor="1.03" vaporized=""/>
    <tripinfo id="flow_route_88_duration_20250327_1910.18" depart="24.00" departLane="430416184_0" departPos="112.71" departSpeed="0.00" departDelay="1.97" arrival="249.00" arrivalLane="186407684#0_1" arrivalPos="63.62" arrivalSpeed="12.10" duration="225.00" routeLength="268.54" waitingTime="126.00" waitingCount="6" stopTime="0.00" timeLoss="208.23" rerouteNo="0" devices="tripinfo_flow_route_88_duration_20250327_1910.18" vType="car" speedFactor="1.17" vaporized=""/>