<?xml version="1.0" encoding="UTF-8"?>

<!-- generated on 2025-05-06 21:08:47 by Eclipse SUMO sumo Version 1.20.0
<configuration xmlns:xsi="http://www.w3.org/2001/XMLSchema-instance" xsi:noNamespaceSchemaLocation="http://sumo.dlr.de/xsd/sumoConfiguration.xsd">

    <input>
        <net-file value="osm.net.xml"/>
        <route-files value="xml/route_static_cluster_2271368471_4779869278_6.rou.xml"/>
    </input>

    <output>
        <tripinfo-output value="xml/tripinfo_static_cluster_2271368471_4779869278_6.xml"/>
    </output>

    <traci_server>
        <remote-port value="53715"/>
    </traci_server>

</configuration>
-->

<tripinfos xmlns:xsi="http://www.w3.org/2001/XMLSchema-instance" xsi:noNamespaceSchemaLocation="http://sumo.dlr.de/xsd/tripinfo_file.xsd">
    <tripinfo id="flow_route_35_duration_20250327_2030.2" depart="8.00" departLane="485211947#0_0" departPos="178.72" departSpeed="0.00" departDelay="0.94" arrival="21.00" arrivalLane="1369578054_0" arrivalPos="38.77" arrivalSpeed="9.38" duration="13.00" routeLength="57.51" waitingTime="0.00" waitingCount="0" stopTime="0.00" timeLoss="7.62" rerouteNo="0" devices="tripinfo_flow_route_35_duration_20250327_2030.2" vType="car" speedFactor="0.88" vaporized=""/>
    <tripinfo id="flow_route_36_duration_20250327_2030.0" depart="0.00" departLane="485211947#0_0" departPos="162.24" departSpeed="0.00" departDelay="0.00" arrival="23.00" arrivalLane="137415945#0_0" arrivalPos="6.94" arrivalSpeed="15.58" duration="23.00" routeLength="189.23" waitingTime="0.00" waitingCount="0" stopTime="0.00" timeLoss="10.60" rerouteNo="0" devices="tripinfo_flow_route_36_duration_20250327_2030.0" vType="car" speedFactor="0.94" vaporized=""/>
    <tripinfo id="flow_route_37_duration_20250327_2030.0" depart="0.00" departLane="485211947#0_0" departPos="59.66" departSpeed="0.00" departDelay="0.00" arrival="33.00" arrivalLane="-430406005#1_1" arrivalPos="133.07" arrivalSpeed="16.05" duration="33.00" routeLength="286.39" waitingTime="0.00" waitingCount="0" stopTime="0.00" timeLoss="12.84" rerouteNo="0" devices="tripinfo_flow_route_37_duration_20250327_2030.0" vType="car" speedFactor="0.86" vaporized=""/>
    <tripinfo id="flow_route_35_duration_20250327_2030.3" depart="11.00" departLane="485211947#0_0" departPos="173.26" departSpeed="0.00" departDelay="0.41" arrival="36.00" arrivalLane="1369578054_0" arrivalPos="200.20" arrivalSpeed="16.45" duration="25.00" routeLength="224.40" waitingTime="0.00" waitingCount="0" stopTime="0.00" timeLoss="10.23" rerouteNo="0" devices="tripinfo_flow_route_35_duration_20250327_2030.3" vType="car" speedFactor="1.02" vaporized=""/>
    <tripinfo id="flow_route_36_duration_20250327_2030.1" depart="6.00" departLane="485211947#0_0" departPos="5.53" departSpeed="0.00" departDelay="0.55" arrival="37.00" arrivalLane="137415945#0_1" arrivalPos="9.73" arrivalSpeed="16.09" duration="31.00" routeLength="348.74" waitingTime="0.00" waitingCount="0" stopTime="0.00" timeLoss="9.53" rerouteNo="0" devices="tripinfo_flow_route_36_duration_20250327_2030.1" vType="car" speedFactor="0.99" vaporized=""/>
    <tripinfo id="flow_route_37_duration_20250327_2030.2" depart="21.00" departLane="485211947#0_0" departPos="171.38" departSpeed="0.00" departDelay="1.00" arrival="38.00" arrivalLane="-430406005#1_1" arrivalPos="65.22" arrivalSpeed="12.68" duration="17.00" routeLength="106.82" waitingTime="0.00" waitingCount="0" stopTime="0.00" timeLoss="9.01" rerouteNo="0" devices="tripinfo_flow_route_37_duration_20250327_2030.2" vType="car" speedFactor="0.97" vaporized=""/>
    <tripinfo id="flow_route_36_duration_20250327_2030.4" depart="23.00" departLane="485211947#0_0" departPos="180.01" departSpeed="0.00" departDelay="1.18" arrival="44.00" arrivalLane="137415945#0_0" arrivalPos="5.41" arrivalSpeed="16.15" duration="21.00" routeLength="169.93" waitingTime="0.00" waitingCount="0" stopTime="0.00" timeLoss="10.04" rerouteNo="0" devices="tripinfo_flow_route_36_duration_20250327_2030.4" vType="car" speedFactor="1.10" vaporized=""/>
    <tripinfo id="flow_route_35_duration_20250327_2030.0" depart="0.00" departLane="485211947#0_0" departPos="11.17" departSpeed="0.00" departDelay="0.00" arrival="45.00" arrivalLane="1369578054_0" arrivalPos="74.16" arrivalSpeed="12.43" duration="45.00" routeLength="260.46" waitingTime="0.00" waitingCount="0" stopTime="0.00" timeLoss="26.00" rerouteNo="0" devices="tripinfo_flow_route_35_duration_20250327_2030.0" vType="car" speedFactor="0.89" vaporized=""/>
    <tripinfo id="flow_route_37_duration_20250327_2030.1" depart="10.00" departLane="485211947#0_0" departPos="16.50" departSpeed="0.00" departDelay="0.00" arrival="46.00" arrivalLane="-430406005#1_1" arrivalPos="102.08" arrivalSpeed="14.56" duration="36.00" routeLength="298.57" waitingTime="0.00" waitingCount="0" stopTime="0.00" timeLoss="16.95" rerouteNo="0" devices="tripinfo_flow_route_37_duration_20250327_2030.1" vType="car" speedFactor="1.16" vaporized=""/>
    <tripinfo id="flow_route_36_duration_20250327_2030.2" depart="13.00" departLane="485211947#0_0" departPos="118.89" departSpeed="0.00" departDelay="2.09" arrival="47.00" arrivalLane="137415945#0_0" arrivalPos="9.11" arrivalSpeed="15.76" duration="34.00" routeLength="234.75" waitingTime="0.00" waitingCount="0" stopTime="0.00" timeLoss="19.42" rerouteNo="0" devices="tripinfo_flow_route_36_duration_20250327_2030.2" vType="car" speedFactor="1.01" vaporized=""/>
    <tripinfo id="flow_route_36_duration_20250327_2030.3" depart="17.00" departLane="485211947#0_0" departPos="53.74" departSpeed="0.00" departDelay="0.64" arrival="48.00" arrivalLane="137415945#0_1" arrivalPos="9.19" arrivalSpeed="16.40" duration="31.00" routeLength="299.98" waitingTime="0.00" waitingCount="0" stopTime="0.00" timeLoss="12.74" rerouteNo="0" devices="tripinfo_flow_route_36_duration_20250327_2030.3" vType="car" speedFactor="1.18" vaporized=""/>
    <tripinfo id="flow_route_37_duration_20250327_2030.3" depart="32.00" departLane="485211947#0_0" departPos="164.39" departSpeed="0.00" departDelay="2.00" arrival="49.00" arrivalLane="-430406005#1_1" arrivalPos="49.52" arrivalSpeed="11.93" duration="17.00" routeLength="98.11" waitingTime="1.00" waitingCount="1" stopTime="0.00" timeLoss="9.77" rerouteNo="0" devices="tripinfo_flow_route_37_duration_20250327_2030.3" vType="car" speedFactor="1.02" vaporized=""/>
    <tripinfo id="flow_route_30_duration_20250327_2030.0" depart="0.00" departLane="1235147073.116_0" departPos="7.14" departSpeed="0.00" departDelay="0.00" arrival="56.00" arrivalLane="133126030#0_0" arrivalPos="8.43" arrivalSpeed="6.63" duration="56.00" routeLength="175.81" waitingTime="24.00" waitingCount="1" stopTime="0.00" timeLoss="45.39" rerouteNo="0" devices="tripinfo_flow_route_30_duration_20250327_2030.0" vType="car" speedFactor="1.01" vaporized=""/>
    <tripinfo id="flow_route_35_duration_20250327_2030.1" depart="5.00" departLane="485211947#0_0" departPos="43.86" departSpeed="0.00" departDelay="1.47" arrival="56.00" arrivalLane="1369578054_0" arrivalPos="281.37" arrivalSpeed="16.51" duration="51.00" routeLength="434.97" waitingTime="0.00" waitingCount="0" stopTime="0.00" timeLoss="23.51" rerouteNo="0" devices="tripinfo_flow_route_35_duration_20250327_2030.1" vType="car" speedFactor="1.03" vaporized=""/>
    <tripinfo id="flow_route_35_duration_20250327_2030.6" depart="23.00" departLane="485211947#0_0" departPos="106.29" departSpeed="0.00" departDelay="1.83" arrival="57.00" arrivalLane="1369578054_0" arrivalPos="147.63" arrivalSpeed="16.12" duration="34.00" routeLength="238.79" waitingTime="0.00" waitingCount="0" stopTime="0.00" timeLoss="18.49" rerouteNo="0" devices="tripinfo_flow_route_35_duration_20250327_2030.6" vType="car" speedFactor="1.18" vaporized=""/>
    <tripinfo id="flow_route_30_duration_20250327_2030.1" depart="21.00" departLane="1235147073.116_0" departPos="13.40" departSpeed="0.00" departDelay="12.43" arrival="60.00" arrivalLane="133126030#0_0" arrivalPos="48.93" arrivalSpeed="10.69" duration="39.00" routeLength="210.05" waitingTime="5.00" waitingCount="1" stopTime="0.00" timeLoss="25.20" rerouteNo="0" devices="tripinfo_flow_route_30_duration_20250327_2030.1" vType="car" speedFactor="0.94" vaporized=""/>
    <tripinfo id="flow_route_30_duration_20250327_2030.2" depart="33.00" departLane="1235147073.116_0" departPos="5.29" departSpeed="0.00" departDelay="15.86" arrival="61.00" arrivalLane="133126030#0_1" arrivalPos="39.35" arrivalSpeed="10.84" duration="28.00" routeLength="208.57" waitingTime="0.00" waitingCount="0" stopTime="0.00" timeLoss="14.90" rerouteNo="0" devices="tripinfo_flow_route_30_duration_20250327_2030.2" vType="car" speedFactor="1.15" vaporized=""/>
    <tripinfo id="flow_route_31_duration_20250327_2030.1" depart="14.00" departLane="1235147073.116_0" departPos="0.43" departSpeed="0.00" departDelay="8.00" arrival="64.00" arrivalLane="-430406005#1_0" arrivalPos="53.89" arrivalSpeed="10.67" duration="50.00" routeLength="216.43" waitingTime="14.00" waitingCount="1" stopTime="0.00" timeLoss="36.12" rerouteNo="0" devices="tripinfo_flow_route_31_duration_20250327_2030.1" vType="car" speedFactor="1.12" vaporized=""/>
    <tripinfo id="flow_route_31_duration_20250327_2030.0" depart="2.00" departLane="1235147073.116_0" departPos="0.71" departSpeed="0.00" departDelay="2.00" arrival="65.00" arrivalLane="-430406005#1_0" arrivalPos="87.77" arrivalSpeed="12.87" duration="63.00" routeLength="250.02" waitingTime="23.00" waitingCount="1" stopTime="0.00" timeLoss="46.76" rerouteNo="0" devices="tripinfo_flow_route_31_duration_20250327_2030.0" vType="car" speedFactor="1.08" vaporized=""/>
    <tripinfo id="flow_route_35_duration_20250327_2030.8" depart="31.00" departLane="485211947#0_0" departPos="152.14" departSpeed="0.00" departDelay="2.77" arrival="65.00" arrivalLane="1369578054_0" arrivalPos="293.11" arrivalSpeed="14.60" duration="34.00" routeLength="338.43" waitingTime="0.00" waitingCount="0" stopTime="0.00" timeLoss="9.63" rerouteNo="0" devices="tripinfo_flow_route_35_duration_20250327_2030.8" vType="car" speedFactor="0.90" vaporized=""/>
    <tripinfo id="flow_route_31_duration_20250327_2030.2" depart="25.00" departLane="1235147073.116_0" departPos="10.13" departSpeed="0.00" departDelay="13.00" arrival="66.00" arrivalLane="-430406005#1_0" arrivalPos="54.97" arrivalSpeed="11.22" duration="41.00" routeLength="207.80" waitingTime="4.00" waitingCount="1" stopTime="0.00" timeLoss="27.35" rerouteNo="0" devices="tripinfo_flow_route_31_duration_20250327_2030.2" vType="car" speedFactor="0.97" vaporized=""/>
    <tripinfo id="flow_route_32_duration_20250327_2030.2" depart="21.00" departLane="1235147073.116_0" departPos="1.60" departSpeed="0.00" departDelay="13.00" arrival="68.00" arrivalLane="1369578054_1" arrivalPos="99.27" arrivalSpeed="14.15" duration="47.00" routeLength="277.40" waitingTime="6.00" waitingCount="1" stopTime="0.00" timeLoss="28.02" rerouteNo="0" devices="tripinfo_flow_route_32_duration_20250327_2030.2" vType="car" speedFactor="0.93" vaporized=""/>
    <tripinfo id="flow_route_32_duration_20250327_2030.0" depart="8.00" departLane="1235147073.116_0" departPos="1.92" departSpeed="0.00" departDelay="8.00" arrival="69.00" arrivalLane="1369578054_1" arrivalPos="176.77" arrivalSpeed="16.29" duration="61.00" routeLength="354.58" waitingTime="17.00" waitingCount="1" stopTime="0.00" timeLoss="38.51" rerouteNo="0" devices="tripinfo_flow_route_32_duration_20250327_2030.0" vType="car" speedFactor="1.03" vaporized=""/>
    <tripinfo id="flow_route_32_duration_20250327_2030.4" depart="30.00" departLane="1235147073.116_0" departPos="5.81" departSpeed="0.00" departDelay="14.00" arrival="69.00" arrivalLane="1369578054_1" arrivalPos="54.13" arrivalSpeed="12.71" duration="39.00" routeLength="228.05" waitingTime="1.00" waitingCount="1" stopTime="0.00" timeLoss="22.94" rerouteNo="0" devices="tripinfo_flow_route_32_duration_20250327_2030.4" vType="car" speedFactor="0.93" vaporized=""/>
    <tripinfo id="flow_route_32_duration_20250327_2030.1" depart="12.00" departLane="1235147073.116_0" departPos="8.88" departSpeed="0.00" departDelay="8.00" arrival="72.00" arrivalLane="1369578054_1" arrivalPos="189.81" arrivalSpeed="16.16" duration="60.00" routeLength="360.66" waitingTime="14.00" waitingCount="1" stopTime="0.00" timeLoss="37.30" rerouteNo="0" devices="tripinfo_flow_route_32_duration_20250327_2030.1" vType="car" speedFactor="1.09" vaporized=""/>
    <tripinfo id="flow_route_31_duration_20250327_2030.3" depart="39.00" departLane="1235147073.116_0" departPos="7.09" departSpeed="0.00" departDelay="21.00" arrival="73.00" arrivalLane="-430406005#1_0" arrivalPos="121.21" arrivalSpeed="15.16" duration="34.00" routeLength="277.08" waitingTime="0.00" waitingCount="0" stopTime="0.00" timeLoss="16.39" rerouteNo="0" devices="tripinfo_flow_route_31_duration_20250327_2030.3" vType="car" speedFactor="1.01" vaporized=""/>
    <tripinfo id="flow_route_31_duration_20250327_2030.4" depart="44.00" departLane="1235147073.116_0" departPos="2.92" departSpeed="0.00" departDelay="20.00" arrival="73.00" arrivalLane="-430406005#1_0" arrivalPos="73.41" arrivalSpeed="14.12" duration="29.00" routeLength="233.46" waitingTime="0.00" waitingCount="0" stopTime="0.00" timeLoss="13.84" rerouteNo="0" devices="tripinfo_flow_route_31_duration_20250327_2030.4" vType="car" speedFactor="1.03" vaporized=""/>
    <tripinfo id="flow_route_32_duration_20250327_2030.3" depart="26.00" departLane="1235147073.116_0" departPos="1.90" departSpeed="0.00" departDelay="14.00" arrival="74.00" arrivalLane="1369578054_1" arrivalPos="147.59" arrivalSpeed="14.79" duration="48.00" routeLength="325.42" waitingTime="3.00" waitingCount="1" stopTime="0.00" timeLoss="24.56" rerouteNo="0" devices="tripinfo_flow_route_32_duration_20250327_2030.3" vType="car" speedFactor="0.89" vaporized=""/>
    <tripinfo id="flow_route_32_duration_20250327_2030.5" depart="42.00" departLane="1235147073.116_0" departPos="1.98" departSpeed="0.00" departDelay="22.00" arrival="76.00" arrivalLane="1369578054_1" arrivalPos="125.00" arrivalSpeed="16.52" duration="34.00" routeLength="302.75" waitingTime="0.00" waitingCount="0" stopTime="0.00" timeLoss="14.49" rerouteNo="0" devices="tripinfo_flow_route_32_duration_20250327_2030.5" vType="car" speedFactor="1.02" vaporized=""/>
    <tripinfo id="flow_route_30_duration_20250327_2030.3" depart="50.00" departLane="1235147073.116_0" departPos="8.87" departSpeed="0.00" departDelay="24.29" arrival="79.00" arrivalLane="133126030#0_0" arrivalPos="131.97" arrivalSpeed="16.48" duration="29.00" routeLength="297.62" waitingTime="0.00" waitingCount="0" stopTime="0.00" timeLoss="10.69" rerouteNo="0" devices="tripinfo_flow_route_30_duration_20250327_2030.3" vType="car" speedFactor="1.04" vaporized=""/>
    <tripinfo id="flow_route_32_duration_20250327_2030.6" depart="50.00" departLane="1235147073.116_0" departPos="0.18" departSpeed="0.00" departDelay="26.00" arrival="85.00" arrivalLane="1369578054_1" arrivalPos="102.74" arrivalSpeed="15.23" duration="35.00" routeLength="282.29" waitingTime="0.00" waitingCount="0" stopTime="0.00" timeLoss="15.61" rerouteNo="0" devices="tripinfo_flow_route_32_duration_20250327_2030.6" vType="car" speedFactor="0.96" vaporized=""/>
    <tripinfo id="flow_route_32_duration_20250327_2030.7" depart="54.00" departLane="1235147073.116_0" departPos="5.60" departSpeed="0.00" departDelay="26.00" arrival="87.00" arrivalLane="1369578054_1" arrivalPos="111.35" arrivalSpeed="16.31" duration="33.00" routeLength="285.48" waitingTime="0.00" waitingCount="0" stopTime="0.00" timeLoss="14.67" rerouteNo="0" devices="tripinfo_flow_route_32_duration_20250327_2030.7" vType="car" speedFactor="1.09" vaporized=""/>
    <tripinfo id="flow_route_31_duration_20250327_2030.6" depart="64.00" departLane="1235147073.116_0" departPos="0.74" departSpeed="0.00" departDelay="28.00" arrival="87.00" arrivalLane="-430406005#1_0" arrivalPos="2.08" arrivalSpeed="8.10" duration="23.00" routeLength="164.30" waitingTime="0.00" waitingCount="0" stopTime="0.00" timeLoss="12.02" rerouteNo="0" devices="tripinfo_flow_route_31_duration_20250327_2030.6" vType="car" speedFactor="1.02" vaporized=""/>
    <tripinfo id="flow_route_31_duration_20250327_2030.5" depart="57.00" departLane="1235147073.116_0" departPos="8.34" departSpeed="0.00" departDelay="27.00" arrival="91.00" arrivalLane="-430406005#1_0" arrivalPos="118.46" arrivalSpeed="14.22" duration="34.00" routeLength="273.08" waitingTime="0.00" waitingCount="0" stopTime="0.00" timeLoss="14.75" rerouteNo="0" devices="tripinfo_flow_route_31_duration_20250327_2030.5" vType="car" speedFactor="0.85" vaporized=""/>
    <tripinfo id="flow_route_30_duration_20250327_2030.4" depart="64.00" departLane="1235147073.116_0" departPos="10.04" departSpeed="0.00" departDelay="29.72" arrival="92.00" arrivalLane="133126030#0_0" arrivalPos="122.04" arrivalSpeed="16.53" duration="28.00" routeLength="286.52" waitingTime="0.00" waitingCount="0" stopTime="0.00" timeLoss="10.26" rerouteNo="0" devices="tripinfo_flow_route_30_duration_20250327_2030.4" vType="car" speedFactor="1.14" vaporized=""/>
    <tripinfo id="flow_route_32_duration_20250327_2030.8" depart="61.00" departLane="1235147073.116_0" departPos="4.49" departSpeed="0.00" departDelay="29.00" arrival="96.00" arrivalLane="1369578054_1" arrivalPos="164.57" arrivalSpeed="16.48" duration="35.00" routeLength="339.81" waitingTime="0.00" waitingCount="0" stopTime="0.00" timeLoss="13.35" rerouteNo="0" devices="tripinfo_flow_route_32_duration_20250327_2030.8" vType="car" speedFactor="1.10" vaporized=""/>
    <tripinfo id="flow_route_33_duration_20250327_2030.0" depart="0.00" departLane="133126008#0_0" departPos="101.07" departSpeed="0.00" departDelay="0.00" arrival="103.00" arrivalLane="1369578054_0" arrivalPos="13.07" arrivalSpeed="8.36" duration="103.00" routeLength="125.36" waitingTime="76.00" waitingCount="1" stopTime="0.00" timeLoss="95.14" rerouteNo="0" devices="tripinfo_flow_route_33_duration_20250327_2030.0" vType="car" speedFactor="0.83" vaporized=""/>
    <tripinfo id="flow_route_33_duration_20250327_2030.1" depart="15.00" departLane="133126008#0_0" departPos="15.35" departSpeed="0.00" departDelay="0.00" arrival="105.00" arrivalLane="1369578054_1" arrivalPos="20.07" arrivalSpeed="9.00" duration="90.00" routeLength="218.08" waitingTime="55.00" waitingCount="1" stopTime="0.00" timeLoss="76.37" rerouteNo="0" devices="tripinfo_flow_route_33_duration_20250327_2030.1" vType="car" speedFactor="0.92" vaporized=""/>
    <tripinfo id="flow_route_34_duration_20250327_2030.1" depart="15.00" departLane="133126008#0_0" departPos="101.22" departSpeed="0.00" departDelay="0.00" arrival="107.00" arrivalLane="133126030#0_0" arrivalPos="33.16" arrivalSpeed="9.12" duration="92.00" routeLength="119.46" waitingTime="65.00" waitingCount="1" stopTime="0.00" timeLoss="83.77" rerouteNo="0" devices="tripinfo_flow_route_34_duration_20250327_2030.1" vType="car" speedFactor="0.95" vaporized=""/>
    <tripinfo id="flow_route_29_duration_20250327_2030.1" depart="6.00" departLane="-422986370#2_0" departPos="286.55" departSpeed="0.00" departDelay="1.39" arrival="112.00" arrivalLane="137415945#0_0" arrivalPos="5.05" arrivalSpeed="15.22" duration="106.00" routeLength="164.32" waitingTime="79.00" waitingCount="1" stopTime="0.00" timeLoss="95.35" rerouteNo="0" devices="tripinfo_flow_route_29_duration_20250327_2030.1" vType="car" speedFactor="1.05" vaporized=""/>
    <tripinfo id="flow_route_34_duration_20250327_2030.0" depart="0.00" departLane="133126008#0_0" departPos="47.21" departSpeed="0.00" departDelay="0.00" arrival="113.00" arrivalLane="133126030#0_0" arrivalPos="137.72" arrivalSpeed="15.90" duration="113.00" routeLength="278.03" waitingTime="72.00" waitingCount="1" stopTime="0.00" timeLoss="94.77" rerouteNo="0" devices="tripinfo_flow_route_34_duration_20250327_2030.0" vType="car" speedFactor="1.05" vaporized=""/>
    <tripinfo id="flow_route_28_duration_20250327_2030.2" depart="30.00" departLane="-422986370#2_0" departPos="171.74" departSpeed="0.00" departDelay="0.00" arrival="113.00" arrivalLane="-430406005#1_1" arrivalPos="61.53" arrivalSpeed="13.11" duration="83.00" routeLength="224.22" waitingTime="45.00" waitingCount="1" stopTime="0.00" timeLoss="67.88" rerouteNo="0" devices="tripinfo_flow_route_28_duration_20250327_2030.2" vType="car" speedFactor="0.88" vaporized=""/>
    <tripinfo id="flow_route_28_duration_20250327_2030.3" depart="46.00" departLane="-422986370#2_0" departPos="35.77" departSpeed="0.00" departDelay="1.00" arrival="113.00" arrivalLane="-430406005#1_1" arrivalPos="39.40" arrivalSpeed="11.50" duration="67.00" routeLength="338.06" waitingTime="19.00" waitingCount="1" stopTime="0.00" timeLoss="45.39" rerouteNo="0" devices="tripinfo_flow_route_28_duration_20250327_2030.3" vType="car" speedFactor="0.94" vaporized=""/>
    <tripinfo id="flow_route_29_duration_20250327_2030.0" depart="0.00" departLane="-422986370#2_0" departPos="201.60" departSpeed="0.00" departDelay="0.00" arrival="115.00" arrivalLane="137415945#0_0" arrivalPos="9.07" arrivalSpeed="15.48" duration="115.00" routeLength="253.29" waitingTime="76.00" waitingCount="1" stopTime="0.00" timeLoss="97.04" rerouteNo="0" devices="tripinfo_flow_route_29_duration_20250327_2030.0" vType="car" speedFactor="0.94" vaporized=""/>
    <tripinfo id="flow_route_33_duration_20250327_2030.2" depart="30.00" departLane="133126008#0_0" departPos="18.36" departSpeed="0.00" departDelay="0.00" arrival="115.00" arrivalLane="1369578054_1" arrivalPos="129.10" arrivalSpeed="13.94" duration="85.00" routeLength="324.10" waitingTime="43.00" waitingCount="1" stopTime="0.00" timeLoss="64.14" rerouteNo="0" devices="tripinfo_flow_route_33_duration_20250327_2030.2" vType="car" speedFactor="0.85" vaporized=""/>
    <tripinfo id="flow_route_34_duration_20250327_2030.2" depart="30.00" departLane="133126008#0_0" departPos="152.88" departSpeed="0.00" departDelay="0.00" arrival="115.00" arrivalLane="133126030#0_0" arrivalPos="109.15" arrivalSpeed="13.15" duration="85.00" routeLength="143.79" waitingTime="62.00" waitingCount="1" stopTime="0.00" timeLoss="75.40" rerouteNo="0" devices="tripinfo_flow_route_34_duration_20250327_2030.2" vType="car" speedFactor="1.17" vaporized=""/>
    <tripinfo id="flow_route_28_duration_20250327_2030.0" depart="0.00" departLane="-422986370#2_0" departPos="1.81" departSpeed="0.00" departDelay="0.00" arrival="116.00" arrivalLane="-430406005#1_0" arrivalPos="159.13" arrivalSpeed="16.25" duration="116.00" routeLength="491.75" waitingTime="60.00" waitingCount="1" stopTime="0.00" timeLoss="86.04" rerouteNo="0" devices="tripinfo_flow_route_28_duration_20250327_2030.0" vType="car" speedFactor="1.06" vaporized=""/>
    <tripinfo id="flow_route_29_duration_20250327_2030.2" depart="11.00" departLane="-422986370#2_0" departPos="207.17" departSpeed="0.00" departDelay="1.77" arrival="116.00" arrivalLane="137415945#0_0" arrivalPos="2.14" arrivalSpeed="15.15" duration="105.00" routeLength="240.79" waitingTime="68.00" waitingCount="1" stopTime="0.00" timeLoss="87.99" rerouteNo="0" devices="tripinfo_flow_route_29_duration_20250327_2030.2" vType="car" speedFactor="0.94" vaporized=""/>
    <tripinfo id="flow_route_28_duration_20250327_2030.1" depart="16.00" departLane="-422986370#2_0" departPos="23.96" departSpeed="0.00" departDelay="1.00" arrival="118.00" arrivalLane="-430406005#1_1" arrivalPos="165.75" arrivalSpeed="16.48" duration="102.00" routeLength="476.22" waitingTime="47.00" waitingCount="1" stopTime="0.00" timeLoss="70.42" rerouteNo="0" devices="tripinfo_flow_route_28_duration_20250327_2030.1" vType="car" speedFactor="0.87" vaporized=""/>
    <tripinfo id="flow_route_34_duration_20250327_2030.3" depart="46.00" departLane="133126008#0_0" departPos="81.33" departSpeed="0.00" departDelay="1.00" arrival="118.00" arrivalLane="133126030#0_0" arrivalPos="105.35" arrivalSpeed="13.59" duration="72.00" routeLength="211.54" waitingTime="35.00" waitingCount="1" stopTime="0.00" timeLoss="57.77" rerouteNo="0" devices="tripinfo_flow_route_34_duration_20250327_2030.3" vType="car" speedFactor="0.96" vaporized=""/>
    <tripinfo id="flow_route_29_duration_20250327_2030.3" depart="14.00" departLane="-422986370#2_0" departPos="163.78" departSpeed="0.00" departDelay="0.16" arrival="120.00" arrivalLane="137415945#0_0" arrivalPos="1.93" arrivalSpeed="13.70" duration="106.00" routeLength="283.97" waitingTime="61.00" waitingCount="1" stopTime="0.00" timeLoss="83.26" rerouteNo="0" devices="tripinfo_flow_route_29_duration_20250327_2030.3" vType="car" speedFactor="0.83" vaporized=""/>
    <tripinfo id="flow_route_29_duration_20250327_2030.4" depart="20.00" departLane="-422986370#2_0" departPos="7.14" departSpeed="0.00" departDelay="1.54" arrival="121.00" arrivalLane="137415945#0_0" arrivalPos="6.53" arrivalSpeed="14.26" duration="101.00" routeLength="445.21" waitingTime="46.00" waitingCount="1" stopTime="0.00" timeLoss="73.13" rerouteNo="0" devices="tripinfo_flow_route_29_duration_20250327_2030.4" vType="car" speedFactor="0.99" vaporized=""/>
    <tripinfo id="flow_route_29_duration_20250327_2030.7" depart="33.00" departLane="-422986370#2_0" departPos="140.87" departSpeed="0.00" departDelay="0.70" arrival="124.00" arrivalLane="137415945#0_0" arrivalPos="11.50" arrivalSpeed="15.31" duration="91.00" routeLength="316.45" waitingTime="43.00" waitingCount="1" stopTime="0.00" timeLoss="70.57" rerouteNo="0" devices="tripinfo_flow_route_29_duration_20250327_2030.7" vType="car" speedFactor="1.00" vaporized=""/>
    <tripinfo id="flow_route_29_duration_20250327_2030.6" depart="28.00" departLane="-422986370#2_0" departPos="117.02" departSpeed="0.00" departDelay="0.31" arrival="126.00" arrivalLane="137415945#0_0" arrivalPos="11.23" arrivalSpeed="15.32" duration="98.00" routeLength="340.03" waitingTime="42.00" waitingCount="1" stopTime="0.00" timeLoss="76.36" rerouteNo="0" devices="tripinfo_flow_route_29_duration_20250327_2030.6" vType="car" speedFactor="1.04" vaporized=""/>
    <tripinfo id="flow_route_33_duration_20250327_2030.3" depart="45.00" departLane="133126008#0_0" departPos="6.18" departSpeed="0.00" departDelay="0.00" arrival="126.00" arrivalLane="1369578054_1" arrivalPos="275.07" arrivalSpeed="16.23" duration="81.00" routeLength="482.25" waitingTime="26.00" waitingCount="1" stopTime="0.00" timeLoss="51.64" rerouteNo="0" devices="tripinfo_flow_route_33_duration_20250327_2030.3" vType="car" speedFactor="1.06" vaporized=""/>
    <tripinfo id="flow_route_29_duration_20250327_2030.5" depart="24.00" departLane="-422986370#2_0" departPos="30.41" departSpeed="0.00" departDelay="0.93" arrival="129.00" arrivalLane="137415945#0_0" arrivalPos="3.77" arrivalSpeed="14.51" duration="105.00" routeLength="419.18" waitingTime="42.00" waitingCount="1" stopTime="0.00" timeLoss="75.77" rerouteNo="0" devices="tripinfo_flow_route_29_duration_20250327_2030.5" vType="car" speedFactor="0.90" vaporized=""/>
    <tripinfo id="flow_route_29_duration_20250327_2030.8" depart="39.00" departLane="-422986370#2_0" departPos="99.70" departSpeed="0.00" departDelay="2.08" arrival="131.00" arrivalLane="137415945#0_0" arrivalPos="10.84" arrivalSpeed="15.33" duration="92.00" routeLength="356.96" waitingTime="41.00" waitingCount="1" stopTime="0.00" timeLoss="69.28" rerouteNo="0" devices="tripinfo_flow_route_29_duration_20250327_2030.8" vType="car" speedFactor="1.12" vaporized=""/>
    <tripinfo id="flow_route_29_duration_20250327_2030.9" depart="42.00" departLane="-422986370#2_0" departPos="67.69" departSpeed="0.00" departDelay="0.47" arrival="134.00" arrivalLane="137415945#0_0" arrivalPos="2.01" arrivalSpeed="14.78" duration="92.00" routeLength="380.13" waitingTime="38.00" waitingCount="1" stopTime="0.00" timeLoss="65.57" rerouteNo="0" devices="tripinfo_flow_route_29_duration_20250327_2030.9" vType="car" speedFactor="0.91" vaporized=""/>
    <tripinfo id="flow_route_29_duration_20250327_2030.11" depart="52.00" departLane="-422986370#2_0" departPos="90.57" departSpeed="0.00" departDelay="1.24" arrival="136.00" arrivalLane="137415945#0_0" arrivalPos="11.52" arrivalSpeed="16.25" duration="84.00" routeLength="366.77" waitingTime="31.00" waitingCount="1" stopTime="0.00" timeLoss="60.26" rerouteNo="0" devices="tripinfo_flow_route_29_duration_20250327_2030.11" vType="car" speedFactor="1.02" vaporized=""/>
    <tripinfo id="flow_route_29_duration_20250327_2030.10" depart="48.00" departLane="-422986370#2_0" departPos="57.09" departSpeed="0.00" departDelay="1.85" arrival="138.00" arrivalLane="137415945#0_0" arrivalPos="7.49" arrivalSpeed="15.73" duration="90.00" routeLength="396.22" waitingTime="30.00" waitingCount="1" stopTime="0.00" timeLoss="64.34" rerouteNo="0" devices="tripinfo_flow_route_29_duration_20250327_2030.10" vType="car" speedFactor="1.03" vaporized=""/>
    <tripinfo id="flow_route_35_duration_20250327_2030.9" depart="32.00" departLane="485211947#0_0" departPos="89.44" departSpeed="0.00" departDelay="0.24" arrival="140.00" arrivalLane="1369578054_0" arrivalPos="4.38" arrivalSpeed="6.49" duration="108.00" routeLength="112.40" waitingTime="80.00" waitingCount="1" stopTime="0.00" timeLoss="100.35" rerouteNo="0" devices="tripinfo_flow_route_35_duration_20250327_2030.9" vType="car" speedFactor="1.00" vaporized=""/>
    <tripinfo id="flow_route_37_duration_20250327_2030.4" depart="43.00" departLane="485211947#0_0" departPos="59.45" departSpeed="0.00" departDelay="3.00" arrival="143.00" arrivalLane="-430406005#1_1" arrivalPos="57.76" arrivalSpeed="11.72" duration="100.00" routeLength="211.29" waitingTime="65.00" waitingCount="1" stopTime="0.00" timeLoss="84.60" rerouteNo="0" devices="tripinfo_flow_route_37_duration_20250327_2030.4" vType="car" speedFactor="0.88" vaporized=""/>