<?xml version="1.0" encoding="UTF-8"?>

<!-- generated on 2025-05-06 21:08:04 by Eclipse SUMO sumo Version 1.20.0
<configuration xmlns:xsi="http://www.w3.org/2001/XMLSchema-instance" xsi:noNamespaceSchemaLocation="http://sumo.dlr.de/xsd/sumoConfiguration.xsd">

    <input>
        <net-file value="osm.net.xml"/>
        <route-files value="xml/route_static_11644940310_2.rou.xml"/>
    </input>

    <output>
        <tripinfo-output value="xml/tripinfo_static_11644940310_2.xml"/>
    </output>

    <traci_server>
        <remote-port value="53363"/>
    </traci_server>

</configuration>
-->

<tripinfos xmlns:xsi="http://www.w3.org/2001/XMLSchema-instance" xsi:noNamespaceSchemaLocation="http://sumo.dlr.de/xsd/tripinfo_file.xsd">
    <tripinfo id="flow_route_27_duration_20250327_2140.0" depart="0.00" departLane="1254771874#0_0" departPos="190.47" departSpeed="0.00" departDelay="0.00" arrival="15.00" arrivalLane="138002006#0_1" arrivalPos="4.04" arrivalSpeed="9.09" duration="15.00" routeLength="85.46" waitingTime="0.00" waitingCount="0" stopTime="0.00" timeLoss="8.80" rerouteNo="0" devices="tripinfo_flow_route_27_duration_20250327_2140.0" vType="car" speedFactor="1.01" vaporized=""/>
    <tripinfo id="flow_route_27_duration_20250327_2140.1" depart="7.00" departLane="1254771874#0_0" departPos="223.82" departSpeed="0.00" departDelay="0.33" arrival="19.00" arrivalLane="138002006#0_1" arrivalPos="5.35" arrivalSpeed="7.67" duration="12.00" routeLength="53.42" waitingTime="0.00" waitingCount="0" stopTime="0.00" timeLoss="7.28" rerouteNo="0" devices="tripinfo_flow_route_27_duration_20250327_2140.1" vType="car" speedFactor="0.89" vaporized=""/>
    <tripinfo id="flow_route_25_duration_20250327_2140.0" depart="0.00" departLane="1254771874#0_0" departPos="63.27" departSpeed="0.00" departDelay="0.00" arrival="34.00" arrivalLane="1341093415#0_0" arrivalPos="158.81" arrivalSpeed="16.18" duration="34.00" routeLength="373.33" waitingTime="0.00" waitingCount="0" stopTime="0.00" timeLoss="10.92" rerouteNo="0" devices="tripinfo_flow_route_25_duration_20250327_2140.0" vType="car" speedFactor="1.06" vaporized=""/>
    <tripinfo id="flow_route_50_duration_20250327_2140.0" depart="0.00" departLane="-138002006#3_0" departPos="41.39" departSpeed="0.00" departDelay="0.00" arrival="35.00" arrivalLane="-422986370#2_0" arrivalPos="13.06" arrivalSpeed="7.06" duration="35.00" routeLength="82.72" waitingTime="13.00" waitingCount="1" stopTime="0.00" timeLoss="28.84" rerouteNo="0" devices="tripinfo_flow_route_50_duration_20250327_2140.0" vType="car" speedFactor="0.83" vaporized=""/>
    <tripinfo id="flow_route_26_duration_20250327_2140.0" depart="0.00" departLane="1254771874#0_0" departPos="139.38" departSpeed="0.00" departDelay="0.00" arrival="38.00" arrivalLane="-422986370#2_0" arrivalPos="213.43" arrivalSpeed="15.21" duration="38.00" routeLength="338.64" waitingTime="0.00" waitingCount="0" stopTime="0.00" timeLoss="16.07" rerouteNo="0" devices="tripinfo_flow_route_26_duration_20250327_2140.0" vType="car" speedFactor="0.94" vaporized=""/>
    <tripinfo id="flow_route_41_duration_20250327_2140.0" depart="0.00" departLane="1369578054_0" departPos="201.66" departSpeed="0.00" departDelay="0.00" arrival="38.00" arrivalLane="138002006#0_0" arrivalPos="52.37" arrivalSpeed="10.95" duration="38.00" routeLength="172.64" waitingTime="8.00" waitingCount="1" stopTime="0.00" timeLoss="27.49" rerouteNo="0" devices="tripinfo_flow_route_41_duration_20250327_2140.0" vType="car" speedFactor="1.03" vaporized=""/>
    <tripinfo id="flow_route_40_duration_20250327_2140.0" depart="0.00" departLane="1369578054_0" departPos="1.81" departSpeed="0.00" departDelay="0.00" arrival="40.00" arrivalLane="1341093415#0_0" arrivalPos="87.60" arrivalSpeed="13.73" duration="40.00" routeLength="396.71" waitingTime="0.00" waitingCount="0" stopTime="0.00" timeLoss="15.42" rerouteNo="0" devices="tripinfo_flow_route_40_duration_20250327_2140.0" vType="car" speedFactor="1.08" vaporized=""/>
    <tripinfo id="flow_route_51_duration_20250327_2140.0" depart="2.00" departLane="-138002006#3_0" departPos="23.48" departSpeed="0.00" departDelay="2.00" arrival="52.00" arrivalLane="1341093415#0_3" arrivalPos="132.48" arrivalSpeed="14.38" duration="50.00" routeLength="212.67" waitingTime="14.00" waitingCount="2" stopTime="0.00" timeLoss="36.21" rerouteNo="0" devices="tripinfo_flow_route_51_duration_20250327_2140.0" vType="car" speedFactor="1.05" vaporized=""/>
    <tripinfo id="flow_route_41_duration_20250327_2140.1" depart="20.00" departLane="1369578054_0" departPos="9.71" departSpeed="0.00" departDelay="0.00" arrival="55.00" arrivalLane="138002006#0_0" arrivalPos="78.79" arrivalSpeed="16.46" duration="35.00" routeLength="391.01" waitingTime="0.00" waitingCount="0" stopTime="0.00" timeLoss="10.58" rerouteNo="0" devices="tripinfo_flow_route_41_duration_20250327_2140.1" vType="car" speedFactor="1.12" vaporized=""/>
    <tripinfo id="flow_route_51_duration_20250327_2140.1" depart="30.00" departLane="-138002006#3_0" departPos="60.82" departSpeed="0.00" departDelay="0.00" arrival="56.00" arrivalLane="1341093415#0_3" arrivalPos="170.50" arrivalSpeed="16.14" duration="26.00" routeLength="213.36" waitingTime="0.00" waitingCount="0" stopTime="0.00" timeLoss="11.49" rerouteNo="0" devices="tripinfo_flow_route_51_duration_20250327_2140.1" vType="car" speedFactor="0.88" vaporized=""/>
    <tripinfo id="flow_route_40_duration_20250327_2140.1" depart="20.00" departLane="1369578054_0" departPos="70.93" departSpeed="0.00" departDelay="0.00" arrival="59.00" arrivalLane="1341093415#0_0" arrivalPos="146.92" arrivalSpeed="16.50" duration="39.00" routeLength="386.91" waitingTime="0.00" waitingCount="0" stopTime="0.00" timeLoss="14.85" rerouteNo="0" devices="tripinfo_flow_route_40_duration_20250327_2140.1" vType="car" speedFactor="1.05" vaporized=""/>
    <tripinfo id="flow_route_27_duration_20250327_2140.4" depart="27.00" departLane="1254771874#0_0" departPos="195.42" departSpeed="0.00" departDelay="0.34" arrival="73.00" arrivalLane="138002006#0_1" arrivalPos="26.79" arrivalSpeed="8.11" duration="46.00" routeLength="103.26" waitingTime="21.00" waitingCount="1" stopTime="0.00" timeLoss="38.75" rerouteNo="0" devices="tripinfo_flow_route_27_duration_20250327_2140.4" vType="car" speedFactor="0.99" vaporized=""/>
    <tripinfo id="flow_route_27_duration_20250327_2140.2" depart="14.00" departLane="1254771874#0_0" departPos="78.49" departSpeed="0.00" departDelay="0.67" arrival="79.00" arrivalLane="138002006#0_1" arrivalPos="45.54" arrivalSpeed="11.12" duration="65.00" routeLength="238.93" waitingTime="20.00" waitingCount="1" stopTime="0.00" timeLoss="48.43" rerouteNo="0" devices="tripinfo_flow_route_27_duration_20250327_2140.2" vType="car" speedFactor="0.86" vaporized=""/>
    <tripinfo id="flow_route_26_duration_20250327_2140.3" depart="30.00" departLane="1254771874#0_0" departPos="7.62" departSpeed="0.00" departDelay="0.00" arrival="79.00" arrivalLane="-422986370#2_0" arrivalPos="47.66" arrivalSpeed="9.85" duration="49.00" routeLength="304.64" waitingTime="6.00" waitingCount="1" stopTime="0.00" timeLoss="29.10" rerouteNo="0" devices="tripinfo_flow_route_26_duration_20250327_2140.3" vType="car" speedFactor="0.93" vaporized=""/>
    <tripinfo id="flow_route_27_duration_20250327_2140.3" depart="20.00" departLane="1254771874#0_0" departPos="139.14" departSpeed="0.00" departDelay="0.00" arrival="80.00" arrivalLane="138002006#0_1" arrivalPos="83.36" arrivalSpeed="12.57" duration="60.00" routeLength="216.11" waitingTime="20.00" waitingCount="1" stopTime="0.00" timeLoss="46.15" rerouteNo="0" devices="tripinfo_flow_route_27_duration_20250327_2140.3" vType="car" speedFactor="1.03" vaporized=""/>
    <tripinfo id="flow_route_26_duration_20250327_2140.1" depart="11.00" departLane="1254771874#0_0" departPos="11.81" departSpeed="0.00" departDelay="1.00" arrival="81.00" arrivalLane="-422986370#2_0" arrivalPos="96.44" arrivalSpeed="12.97" duration="70.00" routeLength="349.24" waitingTime="20.00" waitingCount="1" stopTime="0.00" timeLoss="47.45" rerouteNo="0" devices="tripinfo_flow_route_26_duration_20250327_2140.1" vType="car" speedFactor="0.94" vaporized=""/>
    <tripinfo id="flow_route_26_duration_20250327_2140.4" depart="42.00" departLane="1254771874#0_0" departPos="22.76" departSpeed="0.00" departDelay="2.00" arrival="84.00" arrivalLane="-422986370#2_0" arrivalPos="37.56" arrivalSpeed="9.06" duration="42.00" routeLength="279.40" waitingTime="0.00" waitingCount="0" stopTime="0.00" timeLoss="23.39" rerouteNo="0" devices="tripinfo_flow_route_26_duration_20250327_2140.4" vType="car" speedFactor="0.94" vaporized=""/>
    <tripinfo id="flow_route_27_duration_20250327_2140.6" depart="42.00" departLane="1254771874#0_0" departPos="170.79" departSpeed="0.00" departDelay="2.00" arrival="85.00" arrivalLane="138002006#0_1" arrivalPos="36.52" arrivalSpeed="10.17" duration="43.00" routeLength="137.62" waitingTime="9.00" waitingCount="1" stopTime="0.00" timeLoss="33.75" rerouteNo="0" devices="tripinfo_flow_route_27_duration_20250327_2140.6" vType="car" speedFactor="1.16" vaporized=""/>
    <tripinfo id="flow_route_27_duration_20250327_2140.7" depart="47.00" departLane="1254771874#0_0" departPos="239.02" departSpeed="0.00" departDelay="0.34" arrival="85.00" arrivalLane="138002006#0_1" arrivalPos="61.39" arrivalSpeed="11.19" duration="38.00" routeLength="94.27" waitingTime="18.00" waitingCount="2" stopTime="0.00" timeLoss="31.29" rerouteNo="0" devices="tripinfo_flow_route_27_duration_20250327_2140.7" vType="car" speedFactor="0.97" vaporized=""/>
    <tripinfo id="flow_route_26_duration_20250327_2140.2" depart="20.00" departLane="1254771874#0_0" departPos="101.37" departSpeed="0.00" departDelay="0.00" arrival="86.00" arrivalLane="-422986370#2_0" arrivalPos="189.76" arrivalSpeed="16.11" duration="66.00" routeLength="352.98" waitingTime="21.00" waitingCount="1" stopTime="0.00" timeLoss="43.28" rerouteNo="0" devices="tripinfo_flow_route_26_duration_20250327_2140.2" vType="car" speedFactor="1.09" vaporized=""/>
    <tripinfo id="flow_route_27_duration_20250327_2140.5" depart="34.00" departLane="1254771874#0_0" departPos="33.07" departSpeed="0.00" departDelay="0.67" arrival="86.00" arrivalLane="138002006#0_1" arrivalPos="29.41" arrivalSpeed="9.77" duration="52.00" routeLength="268.23" waitingTime="7.00" waitingCount="1" stopTime="0.00" timeLoss="34.60" rerouteNo="0" devices="tripinfo_flow_route_27_duration_20250327_2140.5" vType="car" speedFactor="0.94" vaporized=""/>
    <tripinfo id="flow_route_27_duration_20250327_2140.8" depart="54.00" departLane="1254771874#0_0" departPos="148.28" departSpeed="0.00" departDelay="0.67" arrival="90.00" arrivalLane="138002006#0_1" arrivalPos="43.73" arrivalSpeed="11.20" duration="36.00" routeLength="167.34" waitingTime="0.00" waitingCount="0" stopTime="0.00" timeLoss="23.84" rerouteNo="0" devices="tripinfo_flow_route_27_duration_20250327_2140.8" vType="car" speedFactor="0.83" vaporized=""/>
    <tripinfo id="flow_route_41_duration_20250327_2140.2" depart="43.00" departLane="1369578054_0" departPos="178.65" departSpeed="0.00" departDelay="3.00" arrival="99.00" arrivalLane="138002006#0_0" arrivalPos="23.44" arrivalSpeed="7.99" duration="56.00" routeLength="166.72" waitingTime="25.00" waitingCount="1" stopTime="0.00" timeLoss="45.90" rerouteNo="0" devices="tripinfo_flow_route_41_duration_20250327_2140.2" vType="car" speedFactor="1.01" vaporized=""/>
    <tripinfo id="flow_route_26_duration_20250327_2140.5" depart="50.00" departLane="1254771874#0_0" departPos="78.68" departSpeed="0.00" departDelay="0.00" arrival="100.00" arrivalLane="-422986370#2_0" arrivalPos="287.55" arrivalSpeed="14.80" duration="50.00" routeLength="473.47" waitingTime="0.00" waitingCount="0" stopTime="0.00" timeLoss="17.37" rerouteNo="0" devices="tripinfo_flow_route_26_duration_20250327_2140.5" vType="car" speedFactor="0.89" vaporized=""/>
    <tripinfo id="flow_route_40_duration_20250327_2140.2" depart="40.00" departLane="1369578054_0" departPos="50.33" departSpeed="0.00" departDelay="0.00" arrival="113.00" arrivalLane="1341093415#0_0" arrivalPos="171.92" arrivalSpeed="16.40" duration="73.00" routeLength="432.52" waitingTime="22.00" waitingCount="1" stopTime="0.00" timeLoss="45.15" rerouteNo="0" devices="tripinfo_flow_route_40_duration_20250327_2140.2" vType="car" speedFactor="1.02" vaporized=""/>
</tripinfos>
