<?xml version="1.0" encoding="UTF-8"?>

<!-- generated on 2025-05-06 21:08:44 by Eclipse SUMO sumo Version 1.20.0
<configuration xmlns:xsi="http://www.w3.org/2001/XMLSchema-instance" xsi:noNamespaceSchemaLocation="http://sumo.dlr.de/xsd/sumoConfiguration.xsd">

    <input>
        <net-file value="osm.net.xml"/>
        <route-files value="xml/route_rl_632031937_6.rou.xml"/>
    </input>

    <output>
        <tripinfo-output value="xml/tripinfo_rl_632031937_6.xml"/>
    </output>

    <traci_server>
        <remote-port value="53307"/>
    </traci_server>

</configuration>
-->

<tripinfos xmlns:xsi="http://www.w3.org/2001/XMLSchema-instance" xsi:noNamespaceSchemaLocation="http://sumo.dlr.de/xsd/tripinfo_file.xsd">
    <tripinfo id="flow_route_53_duration_20250327_1920.1" depart="2.00" departLane="138002006#0_0" departPos="77.73" departSpeed="0.00" departDelay="0.00" arrival="16.00" arrivalLane="1369578052#0_0" arrivalPos="48.76" arrivalSpeed="10.48" duration="14.00" routeLength="78.95" waitingTime="0.00" waitingCount="0" stopTime="0.00" timeLoss="8.58" rerouteNo="0" devices="tripinfo_flow_route_53_duration_20250327_1920.1" vType="car" speedFactor="0.89" vaporized=""/>
    <tripinfo id="flow_route_66_duration_20250327_1920.0" depart="0.00" departLane="-138002002#2_0" departPos="85.87" departSpeed="0.00" departDelay="0.00" arrival="20.00" arrivalLane="-138002006#3_1" arrivalPos="3.87" arrivalSpeed="12.63" duration="20.00" routeLength="121.39" waitingTime="0.00" waitingCount="0" stopTime="0.00" timeLoss="10.82" rerouteNo="0" devices="tripinfo_flow_route_66_duration_20250327_1920.0" vType="car" speedFactor="0.83" vaporized=""/>
    <tripinfo id="flow_route_53_duration_20250327_1920.0" depart="0.00" departLane="138002006#0_0" departPos="48.40" departSpeed="0.00" departDelay="0.00" arrival="24.00" arrivalLane="1369578052#0_1" arrivalPos="131.33" arrivalSpeed="15.27" duration="24.00" routeLength="190.85" waitingTime="0.00" waitingCount="0" stopTime="0.00" timeLoss="11.12" rerouteNo="0" devices="tripinfo_flow_route_53_duration_20250327_1920.0" vType="car" speedFactor="0.94" vaporized=""/>
    <tripinfo id="flow_route_53_duration_20250327_1920.3" depart="8.00" departLane="138002006#0_0" departPos="29.41" departSpeed="0.00" departDelay="2.00" arrival="26.00" arrivalLane="1369578052#0_0" arrivalPos="5.98" arrivalSpeed="7.61" duration="18.00" routeLength="84.49" waitingTime="0.00" waitingCount="0" stopTime="0.00" timeLoss="12.91" rerouteNo="0" devices="tripinfo_flow_route_53_duration_20250327_1920.3" vType="car" speedFactor="1.12" vaporized=""/>
    <tripinfo id="flow_route_52_duration_20250327_1920.0" depart="0.00" departLane="138002006#0_0" departPos="21.97" departSpeed="0.00" departDelay="0.00" arrival="30.00" arrivalLane="380351865#0_1" arrivalPos="15.21" arrivalSpeed="11.55" duration="30.00" routeLength="234.80" waitingTime="0.00" waitingCount="0" stopTime="0.00" timeLoss="10.47" rerouteNo="0" devices="tripinfo_flow_route_52_duration_20250327_1920.0" vType="car" speedFactor="1.06" vaporized=""/>
    <tripinfo id="flow_route_67_duration_20250327_1920.0" depart="1.00" departLane="-138002002#2_0" departPos="104.31" departSpeed="0.00" departDelay="1.00" arrival="32.00" arrivalLane="380351865#0_0" arrivalPos="12.69" arrivalSpeed="11.37" duration="31.00" routeLength="241.42" waitingTime="0.00" waitingCount="0" stopTime="0.00" timeLoss="11.21" rerouteNo="0" devices="tripinfo_flow_route_67_duration_20250327_1920.0" vType="car" speedFactor="1.05" vaporized=""/>
    <tripinfo id="flow_route_53_duration_20250327_1920.4" depart="8.00" departLane="138002006#0_0" departPos="11.48" departSpeed="0.00" departDelay="0.00" arrival="32.00" arrivalLane="1369578052#0_1" arrivalPos="5.50" arrivalSpeed="7.03" duration="24.00" routeLength="101.93" waitingTime="1.00" waitingCount="1" stopTime="0.00" timeLoss="17.38" rerouteNo="0" devices="tripinfo_flow_route_53_duration_20250327_1920.4" vType="car" speedFactor="0.93" vaporized=""/>
    <tripinfo id="flow_route_53_duration_20250327_1920.5" depart="11.00" departLane="138002006#0_0" departPos="63.52" departSpeed="0.00" departDelay="1.00" arrival="33.00" arrivalLane="1369578052#0_0" arrivalPos="105.36" arrivalSpeed="13.86" duration="22.00" routeLength="149.76" waitingTime="0.00" waitingCount="0" stopTime="0.00" timeLoss="12.92" rerouteNo="0" devices="tripinfo_flow_route_53_duration_20250327_1920.5" vType="car" speedFactor="1.02" vaporized=""/>
    <tripinfo id="flow_route_53_duration_20250327_1920.6" depart="13.00" departLane="138002006#0_0" departPos="84.77" departSpeed="0.00" departDelay="1.00" arrival="33.00" arrivalLane="1369578052#0_0" arrivalPos="127.48" arrivalSpeed="14.54" duration="20.00" routeLength="150.64" waitingTime="0.00" waitingCount="0" stopTime="0.00" timeLoss="10.64" rerouteNo="0" devices="tripinfo_flow_route_53_duration_20250327_1920.6" vType="car" speedFactor="0.97" vaporized=""/>
    <tripinfo id="flow_route_53_duration_20250327_1920.9" depart="18.00" departLane="138002006#0_0" departPos="54.60" departSpeed="0.00" departDelay="0.00" arrival="35.00" arrivalLane="1369578052#0_0" arrivalPos="53.46" arrivalSpeed="12.86" duration="17.00" routeLength="106.78" waitingTime="0.00" waitingCount="0" stopTime="0.00" timeLoss="9.84" rerouteNo="0" devices="tripinfo_flow_route_53_duration_20250327_1920.9" vType="car" speedFactor="1.15" vaporized=""/>
    <tripinfo id="flow_route_53_duration_20250327_1920.2" depart="5.00" departLane="138002006#0_0" departPos="35.20" departSpeed="0.00" departDelay="1.00" arrival="39.00" arrivalLane="1369578052#0_1" arrivalPos="94.56" arrivalSpeed="13.95" duration="34.00" routeLength="167.27" waitingTime="2.00" waitingCount="1" stopTime="0.00" timeLoss="23.12" rerouteNo="0" devices="tripinfo_flow_route_53_duration_20250327_1920.2" vType="car" speedFactor="1.09" vaporized=""/>
    <tripinfo id="flow_route_53_duration_20250327_1920.8" depart="16.00" departLane="138002006#0_0" departPos="7.10" departSpeed="0.00" departDelay="0.00" arrival="39.00" arrivalLane="1369578052#0_0" arrivalPos="62.49" arrivalSpeed="14.55" duration="23.00" routeLength="163.31" waitingTime="0.00" waitingCount="0" stopTime="0.00" timeLoss="11.56" rerouteNo="0" devices="tripinfo_flow_route_53_duration_20250327_1920.8" vType="car" speedFactor="0.93" vaporized=""/>
    <tripinfo id="flow_route_67_duration_20250327_1920.1" depart="5.00" departLane="-138002002#2_0" departPos="43.61" departSpeed="0.00" departDelay="0.72" arrival="40.00" arrivalLane="380351865#0_0" arrivalPos="14.07" arrivalSpeed="11.59" duration="35.00" routeLength="303.52" waitingTime="0.00" waitingCount="0" stopTime="0.00" timeLoss="11.67" rerouteNo="0" devices="tripinfo_flow_route_67_duration_20250327_1920.1" vType="car" speedFactor="1.05" vaporized=""/>
    <tripinfo id="flow_route_52_duration_20250327_1920.1" depart="10.00" departLane="138002006#0_0" departPos="72.05" departSpeed="0.00" departDelay="0.00" arrival="40.00" arrivalLane="380351865#0_1" arrivalPos="2.87" arrivalSpeed="12.53" duration="30.00" routeLength="172.37" waitingTime="2.00" waitingCount="1" stopTime="0.00" timeLoss="16.34" rerouteNo="0" devices="tripinfo_flow_route_52_duration_20250327_1920.1" vType="car" speedFactor="1.16" vaporized=""/>
    <tripinfo id="flow_route_53_duration_20250327_1920.7" depart="16.00" departLane="138002006#0_0" departPos="18.39" departSpeed="0.00" departDelay="2.00" arrival="41.00" arrivalLane="1369578052#0_0" arrivalPos="118.27" arrivalSpeed="15.12" duration="25.00" routeLength="207.80" waitingTime="0.00" waitingCount="0" stopTime="0.00" timeLoss="10.53" rerouteNo="0" devices="tripinfo_flow_route_53_duration_20250327_1920.7" vType="car" speedFactor="0.92" vaporized=""/>
    <tripinfo id="flow_route_67_duration_20250327_1920.4" depart="19.00" departLane="-138002002#2_0" departPos="107.77" departSpeed="0.00" departDelay="1.86" arrival="46.00" arrivalLane="380351865#0_0" arrivalPos="11.59" arrivalSpeed="12.98" duration="27.00" routeLength="236.87" waitingTime="0.00" waitingCount="0" stopTime="0.00" timeLoss="9.66" rerouteNo="0" devices="tripinfo_flow_route_67_duration_20250327_1920.4" vType="car" speedFactor="1.17" vaporized=""/>
    <tripinfo id="flow_route_53_duration_20250327_1920.10" depart="28.00" departLane="138002006#0_0" departPos="30.59" departSpeed="0.00" departDelay="8.00" arrival="50.00" arrivalLane="1369578052#0_1" arrivalPos="67.31" arrivalSpeed="13.49" duration="22.00" routeLength="144.65" waitingTime="0.00" waitingCount="0" stopTime="0.00" timeLoss="12.44" rerouteNo="0" devices="tripinfo_flow_route_53_duration_20250327_1920.10" vType="car" speedFactor="0.97" vaporized=""/>
    <tripinfo id="flow_route_53_duration_20250327_1920.13" depart="33.00" departLane="138002006#0_0" departPos="81.55" departSpeed="0.00" departDelay="7.00" arrival="54.00" arrivalLane="1369578052#0_0" arrivalPos="131.48" arrivalSpeed="14.29" duration="21.00" routeLength="157.85" waitingTime="0.00" waitingCount="0" stopTime="0.00" timeLoss="11.32" rerouteNo="0" devices="tripinfo_flow_route_53_duration_20250327_1920.13" vType="car" speedFactor="1.09" vaporized=""/>
    <tripinfo id="flow_route_52_duration_20250327_1920.2" depart="24.00" departLane="138002006#0_0" departPos="9.01" departSpeed="0.00" departDelay="4.00" arrival="56.00" arrivalLane="380351865#0_1" arrivalPos="7.12" arrivalSpeed="11.32" duration="32.00" routeLength="239.67" waitingTime="0.00" waitingCount="0" stopTime="0.00" timeLoss="11.67" rerouteNo="0" devices="tripinfo_flow_route_52_duration_20250327_1920.2" vType="car" speedFactor="1.02" vaporized=""/>
    <tripinfo id="flow_route_53_duration_20250327_1920.12" depart="31.00" departLane="138002006#0_0" departPos="1.30" departSpeed="0.00" departDelay="7.00" arrival="57.00" arrivalLane="1369578052#0_0" arrivalPos="63.20" arrivalSpeed="14.51" duration="26.00" routeLength="169.82" waitingTime="0.00" waitingCount="0" stopTime="0.00" timeLoss="14.97" rerouteNo="0" devices="tripinfo_flow_route_53_duration_20250327_1920.12" vType="car" speedFactor="1.04" vaporized=""/>
    <tripinfo id="flow_route_53_duration_20250327_1920.11" depart="30.00" departLane="138002006#0_0" departPos="56.91" departSpeed="0.00" departDelay="8.00" arrival="59.00" arrivalLane="1369578052#0_0" arrivalPos="170.49" arrivalSpeed="14.72" duration="29.00" routeLength="221.50" waitingTime="0.00" waitingCount="0" stopTime="0.00" timeLoss="13.57" rerouteNo="0" devices="tripinfo_flow_route_53_duration_20250327_1920.11" vType="car" speedFactor="0.90" vaporized=""/>
    <tripinfo id="flow_route_53_duration_20250327_1920.15" depart="38.00" departLane="138002006#0_0" departPos="10.18" departSpeed="0.00" departDelay="8.00" arrival="62.00" arrivalLane="1369578052#0_0" arrivalPos="125.50" arrivalSpeed="16.38" duration="24.00" routeLength="223.24" waitingTime="0.00" waitingCount="0" stopTime="0.00" timeLoss="10.42" rerouteNo="0" devices="tripinfo_flow_route_53_duration_20250327_1920.15" vType="car" speedFactor="1.02" vaporized=""/>
    <tripinfo id="flow_route_53_duration_20250327_1920.14" depart="36.00" departLane="138002006#0_0" departPos="39.64" departSpeed="0.00" departDelay="8.00" arrival="63.00" arrivalLane="1369578052#0_0" arrivalPos="180.31" arrivalSpeed="14.27" duration="27.00" routeLength="248.60" waitingTime="0.00" waitingCount="0" stopTime="0.00" timeLoss="9.37" rerouteNo="0" devices="tripinfo_flow_route_53_duration_20250327_1920.14" vType="car" speedFactor="0.88" vaporized=""/>
    <tripinfo id="flow_route_52_duration_20250327_1920.3" depart="36.00" departLane="138002006#0_0" departPos="28.71" departSpeed="0.00" departDelay="6.00" arrival="63.00" arrivalLane="380351865#0_1" arrivalPos="6.48" arrivalSpeed="12.87" duration="27.00" routeLength="219.33" waitingTime="0.00" waitingCount="0" stopTime="0.00" timeLoss="10.22" rerouteNo="0" devices="tripinfo_flow_route_52_duration_20250327_1920.3" vType="car" speedFactor="1.17" vaporized=""/>
    <tripinfo id="flow_route_53_duration_20250327_1920.16" depart="42.00" departLane="138002006#0_0" departPos="3.07" departSpeed="0.00" departDelay="10.00" arrival="66.00" arrivalLane="1369578052#0_0" arrivalPos="88.97" arrivalSpeed="14.87" duration="24.00" routeLength="193.82" waitingTime="0.00" waitingCount="0" stopTime="0.00" timeLoss="10.51" rerouteNo="0" devices="tripinfo_flow_route_53_duration_20250327_1920.16" vType="car" speedFactor="0.90" vaporized=""/>
    <tripinfo id="flow_route_53_duration_20250327_1920.17" depart="49.00" departLane="138002006#0_0" departPos="1.18" departSpeed="0.00" departDelay="15.00" arrival="73.00" arrivalLane="1369578052#0_1" arrivalPos="75.92" arrivalSpeed="15.65" duration="24.00" routeLength="182.66" waitingTime="0.00" waitingCount="0" stopTime="0.00" timeLoss="11.83" rerouteNo="0" devices="tripinfo_flow_route_53_duration_20250327_1920.17" vType="car" speedFactor="0.97" vaporized=""/>
    <tripinfo id="flow_route_53_duration_20250327_1920.21" depart="57.00" departLane="138002006#0_0" departPos="70.85" departSpeed="0.00" departDelay="15.00" arrival="75.00" arrivalLane="1369578052#0_0" arrivalPos="74.34" arrivalSpeed="12.13" duration="18.00" routeLength="111.41" waitingTime="0.00" waitingCount="0" stopTime="0.00" timeLoss="10.37" rerouteNo="0" devices="tripinfo_flow_route_53_duration_20250327_1920.21" vType="car" speedFactor="0.94" vaporized=""/>
    <tripinfo id="flow_route_53_duration_20250327_1920.18" depart="50.00" departLane="138002006#0_0" departPos="17.93" departSpeed="0.00" departDelay="14.00" arrival="76.00" arrivalLane="1369578052#0_1" arrivalPos="155.51" arrivalSpeed="16.14" duration="26.00" routeLength="245.51" waitingTime="0.00" waitingCount="0" stopTime="0.00" timeLoss="10.70" rerouteNo="0" devices="tripinfo_flow_route_53_duration_20250327_1920.18" vType="car" speedFactor="1.02" vaporized=""/>
    <tripinfo id="flow_route_53_duration_20250327_1920.19" depart="53.00" departLane="138002006#0_0" departPos="34.17" departSpeed="0.00" departDelay="15.00" arrival="79.00" arrivalLane="1369578052#0_0" arrivalPos="106.83" arrivalSpeed="14.37" duration="26.00" routeLength="180.58" waitingTime="0.00" waitingCount="0" stopTime="0.00" timeLoss="13.94" rerouteNo="0" devices="tripinfo_flow_route_53_duration_20250327_1920.19" vType="car" speedFactor="0.94" vaporized=""/>
    <tripinfo id="flow_route_53_duration_20250327_1920.20" depart="56.00" departLane="138002006#0_0" departPos="31.69" departSpeed="0.00" departDelay="16.00" arrival="84.00" arrivalLane="1369578052#0_0" arrivalPos="156.82" arrivalSpeed="16.16" duration="28.00" routeLength="233.05" waitingTime="1.00" waitingCount="1" stopTime="0.00" timeLoss="13.20" rerouteNo="0" devices="tripinfo_flow_route_53_duration_20250327_1920.20" vType="car" speedFactor="1.02" vaporized=""/>
    <tripinfo id="flow_route_58_duration_20250327_1920.0" depart="0.00" departLane="186407685_0" departPos="1.07" departSpeed="0.00" departDelay="0.00" arrival="85.00" arrivalLane="-138002006#3_1" arrivalPos="43.63" arrivalSpeed="10.30" duration="85.00" routeLength="235.82" waitingTime="49.00" waitingCount="1" stopTime="0.00" timeLoss="69.65" rerouteNo="0" devices="tripinfo_flow_route_58_duration_20250327_1920.0" vType="car" speedFactor="1.08" vaporized=""/>
    <tripinfo id="flow_route_59_duration_20250327_1920.1" depart="2.00" departLane="186407685_0" departPos="57.01" departSpeed="0.00" departDelay="0.57" arrival="87.00" arrivalLane="1369578052#0_0" arrivalPos="11.11" arrivalSpeed="6.56" duration="85.00" routeLength="140.21" waitingTime="55.00" waitingCount="1" stopTime="0.00" timeLoss="75.66" rerouteNo="0" devices="tripinfo_flow_route_59_duration_20250327_1920.1" vType="car" speedFactor="0.94" vaporized=""/>
    <tripinfo id="flow_route_59_duration_20250327_1920.2" depart="5.00" departLane="186407685_0" departPos="157.17" departSpeed="0.00" departDelay="2.14" arrival="91.00" arrivalLane="1369578052#0_0" arrivalPos="126.01" arrivalSpeed="13.91" duration="86.00" routeLength="154.95" waitingTime="59.00" waitingCount="1" stopTime="0.00" timeLoss="74.06" rerouteNo="0" devices="tripinfo_flow_route_59_duration_20250327_1920.2" vType="car" speedFactor="0.86" vaporized=""/>
    <tripinfo id="flow_route_59_duration_20250327_1920.0" depart="0.00" departLane="186407685_0" departPos="119.17" departSpeed="0.00" departDelay="0.00" arrival="92.00" arrivalLane="1369578052#0_0" arrivalPos="108.75" arrivalSpeed="13.63" duration="92.00" routeLength="175.69" waitingTime="59.00" waitingCount="1" stopTime="0.00" timeLoss="80.16" rerouteNo="0" devices="tripinfo_flow_route_59_duration_20250327_1920.0" vType="car" speedFactor="1.03" vaporized=""/>
    <tripinfo id="flow_route_57_duration_20250327_1920.0" depart="0.00" departLane="186407685_0" departPos="131.94" departSpeed="0.00" departDelay="0.00" arrival="94.00" arrivalLane="380351865#0_0" arrivalPos="0.78" arrivalSpeed="11.17" duration="94.00" routeLength="205.45" waitingTime="60.00" waitingCount="1" stopTime="0.00" timeLoss="76.95" rerouteNo="0" devices="tripinfo_flow_route_57_duration_20250327_1920.0" vType="car" speedFactor="1.01" vaporized=""/>
    <tripinfo id="flow_route_57_duration_20250327_1920.1" depart="34.00" departLane="186407685_0" departPos="20.25" departSpeed="0.00" departDelay="14.00" arrival="96.00" arrivalLane="380351865#0_1" arrivalPos="16.67" arrivalSpeed="12.94" duration="62.00" routeLength="333.04" waitingTime="18.00" waitingCount="1" stopTime="0.00" timeLoss="39.32" rerouteNo="0" devices="tripinfo_flow_route_57_duration_20250327_1920.1" vType="car" speedFactor="1.18" vaporized=""/>
    <tripinfo id="flow_route_59_duration_20250327_1920.3" depart="5.00" departLane="186407685_0" departPos="96.38" departSpeed="0.00" departDelay="0.72" arrival="98.00" arrivalLane="1369578052#0_0" arrivalPos="173.09" arrivalSpeed="16.59" duration="93.00" routeLength="262.82" waitingTime="56.00" waitingCount="1" stopTime="0.00" timeLoss="75.38" rerouteNo="0" devices="tripinfo_flow_route_59_duration_20250327_1920.3" vType="car" speedFactor="1.03" vaporized=""/>
    <tripinfo id="flow_route_59_duration_20250327_1920.9" depart="16.00" departLane="186407685_0" departPos="100.42" departSpeed="0.00" departDelay="3.15" arrival="101.00" arrivalLane="1369578052#0_0" arrivalPos="90.80" arrivalSpeed="11.79" duration="85.00" routeLength="176.48" waitingTime="51.00" waitingCount="1" stopTime="0.00" timeLoss="72.23" rerouteNo="0" devices="tripinfo_flow_route_59_duration_20250327_1920.9" vType="car" speedFactor="0.83" vaporized=""/>
    <tripinfo id="flow_route_59_duration_20250327_1920.4" depart="6.00" departLane="186407685_0" departPos="28.17" departSpeed="0.00" departDelay="0.29" arrival="102.00" arrivalLane="1369578052#0_0" arrivalPos="55.62" arrivalSpeed="11.35" duration="96.00" routeLength="213.56" waitingTime="49.00" waitingCount="1" stopTime="0.00" timeLoss="82.09" rerouteNo="0" devices="tripinfo_flow_route_59_duration_20250327_1920.4" vType="car" speedFactor="0.99" vaporized=""/>
    <tripinfo id="flow_route_59_duration_20250327_1920.6" depart="9.00" departLane="186407685_0" departPos="46.76" departSpeed="0.00" departDelay="0.43" arrival="102.00" arrivalLane="1369578052#0_0" arrivalPos="75.82" arrivalSpeed="12.37" duration="93.00" routeLength="215.17" waitingTime="50.00" waitingCount="1" stopTime="0.00" timeLoss="78.17" rerouteNo="0" devices="tripinfo_flow_route_59_duration_20250327_1920.6" vType="car" speedFactor="0.94" vaporized=""/>
    <tripinfo id="flow_route_59_duration_20250327_1920.10" depart="17.00" departLane="186407685_0" departPos="127.82" departSpeed="0.00" departDelay="2.72" arrival="103.00" arrivalLane="1369578052#0_0" arrivalPos="171.08" arrivalSpeed="15.77" duration="86.00" routeLength="229.37" waitingTime="53.00" waitingCount="1" stopTime="0.00" timeLoss="69.67" rerouteNo="0" devices="tripinfo_flow_route_59_duration_20250327_1920.10" vType="car" speedFactor="0.95" vaporized=""/>
    <tripinfo id="flow_route_59_duration_20250327_1920.7" depart="14.00" departLane="186407685_0" departPos="26.88" departSpeed="0.00" departDelay="4.00" arrival="106.00" arrivalLane="1369578052#0_0" arrivalPos="44.50" arrivalSpeed="9.91" duration="92.00" routeLength="203.72" waitingTime="47.00" waitingCount="1" stopTime="0.00" timeLoss="78.87" rerouteNo="0" devices="tripinfo_flow_route_59_duration_20250327_1920.7" vType="car" speedFactor="1.01" vaporized=""/>
    <tripinfo id="flow_route_59_duration_20250327_1920.11" depart="28.00" departLane="186407685_0" departPos="27.19" departSpeed="0.00" departDelay="12.29" arrival="110.00" arrivalLane="1369578052#0_0" arrivalPos="15.86" arrivalSpeed="8.44" duration="82.00" routeLength="174.77" waitingTime="39.00" waitingCount="1" stopTime="0.00" timeLoss="70.16" rerouteNo="0" devices="tripinfo_flow_route_59_duration_20250327_1920.11" vType="car" speedFactor="1.18" vaporized=""/>
    <tripinfo id="flow_route_59_duration_20250327_1920.12" depart="33.00" departLane="186407685_0" departPos="60.00" departSpeed="0.00" departDelay="15.86" arrival="110.00" arrivalLane="1369578052#0_0" arrivalPos="39.15" arrivalSpeed="9.78" duration="77.00" routeLength="165.25" waitingTime="41.00" waitingCount="1" stopTime="0.00" timeLoss="66.40" rerouteNo="0" devices="tripinfo_flow_route_59_duration_20250327_1920.12" vType="car" speedFactor="1.01" vaporized=""/>
    <tripinfo id="flow_route_59_duration_20250327_1920.5" depart="8.00" departLane="186407685_0" departPos="22.20" departSpeed="0.00" departDelay="0.86" arrival="111.00" arrivalLane="1369578052#0_0" arrivalPos="126.28" arrivalSpeed="14.27" duration="103.00" routeLength="290.19" waitingTime="49.00" waitingCount="1" stopTime="0.00" timeLoss="82.48" rerouteNo="0" devices="tripinfo_flow_route_59_duration_20250327_1920.5" vType="car" speedFactor="0.88" vaporized=""/>
    <tripinfo id="flow_route_66_duration_20250327_1920.1" depart="16.00" departLane="-138002002#2_0" departPos="8.63" departSpeed="0.00" departDelay="1.00" arrival="117.00" arrivalLane="-138002006#3_0" arrivalPos="5.95" arrivalSpeed="6.34" duration="101.00" routeLength="200.71" waitingTime="70.00" waitingCount="1" stopTime="0.00" timeLoss="88.69" rerouteNo="0" devices="tripinfo_flow_route_66_duration_20250327_1920.1" vType="car" speedFactor="1.13" vaporized=""/>
    <tripinfo id="flow_route_59_duration_20250327_1920.8" depart="14.00" departLane="186407685_0" departPos="4.93" departSpeed="0.00" departDelay="2.58" arrival="119.00" arrivalLane="1369578052#0_0" arrivalPos="172.36" arrivalSpeed="14.78" duration="105.00" routeLength="353.54" waitingTime="47.00" waitingCount="1" stopTime="0.00" timeLoss="80.47" rerouteNo="0" devices="tripinfo_flow_route_59_duration_20250327_1920.8" vType="car" speedFactor="0.89" vaporized=""/>
    <tripinfo id="flow_route_53_duration_20250327_1920.22" depart="59.00" departLane="138002006#0_0" departPos="21.36" departSpeed="0.00" departDelay="15.00" arrival="119.00" arrivalLane="1369578052#0_0" arrivalPos="15.68" arrivalSpeed="7.72" duration="60.00" routeLength="102.24" waitingTime="35.00" waitingCount="1" stopTime="0.00" timeLoss="53.51" rerouteNo="0" devices="tripinfo_flow_route_53_duration_20250327_1920.22" vType="car" speedFactor="1.03" vaporized=""/>
    <tripinfo id="flow_route_66_duration_20250327_1920.2" depart="33.00" departLane="-138002002#2_0" departPos="89.60" departSpeed="0.00" departDelay="3.00" arrival="124.00" arrivalLane="-138002006#3_1" arrivalPos="50.90" arrivalSpeed="10.58" duration="91.00" routeLength="164.69" waitingTime="60.00" waitingCount="1" stopTime="0.00" timeLoss="81.04" rerouteNo="0" devices="tripinfo_flow_route_66_duration_20250327_1920.2" vType="car" speedFactor="1.00" vaporized=""/>
    <tripinfo id="flow_route_53_duration_20250327_1920.25" depart="68.00" departLane="138002006#0_0" departPos="22.14" departSpeed="0.00" departDelay="18.00" arrival="125.00" arrivalLane="1369578052#0_0" arrivalPos="9.03" arrivalSpeed="8.53" duration="57.00" routeLength="94.81" waitingTime="30.00" waitingCount="1" stopTime="0.00" timeLoss="51.23" rerouteNo="0" devices="tripinfo_flow_route_53_duration_20250327_1920.25" vType="car" speedFactor="1.00" vaporized=""/>
    <tripinfo id="flow_route_53_duration_20250327_1920.27" depart="68.00" departLane="138002006#0_0" departPos="47.97" departSpeed="0.00" departDelay="14.00" arrival="128.00" arrivalLane="1369578052#0_0" arrivalPos="54.09" arrivalSpeed="10.53" duration="60.00" routeLength="114.04" waitingTime="31.00" waitingCount="1" stopTime="0.00" timeLoss="51.49" rerouteNo="0" devices="tripinfo_flow_route_53_duration_20250327_1920.27" vType="car" speedFactor="0.83" vaporized=""/>
    <tripinfo id="flow_route_66_duration_20250327_1920.3" depart="47.00" departLane="-138002002#2_0" departPos="34.63" departSpeed="0.00" departDelay="2.00" arrival="129.00" arrivalLane="-138002006#3_1" arrivalPos="87.21" arrivalSpeed="13.84" duration="82.00" routeLength="255.97" waitingTime="43.00" waitingCount="1" stopTime="0.00" timeLoss="66.21" rerouteNo="0" devices="tripinfo_flow_route_66_duration_20250327_1920.3" vType="car" speedFactor="1.01" vaporized=""/>
    <tripinfo id="flow_route_53_duration_20250327_1920.28" depart="73.00" departLane="138002006#0_0" departPos="72.42" departSpeed="0.00" departDelay="17.00" arrival="132.00" arrivalLane="1369578052#0_0" arrivalPos="120.83" arrivalSpeed="14.23" duration="59.00" routeLength="156.33" waitingTime="32.00" waitingCount="1" stopTime="0.00" timeLoss="48.98" rerouteNo="0" devices="tripinfo_flow_route_53_duration_20250327_1920.28" vType="car" speedFactor="1.09" vaporized=""/>
    <tripinfo id="flow_route_67_duration_20250327_1920.2" depart="9.00" departLane="-138002002#2_0" departPos="41.10" departSpeed="0.00" departDelay="0.43" arrival="133.00" arrivalLane="380351865#0_0" arrivalPos="16.46" arrivalSpeed="10.32" duration="124.00" routeLength="308.41" waitingTime="73.00" waitingCount="1" stopTime="0.00" timeLoss="97.58" rerouteNo="0" devices="tripinfo_flow_route_67_duration_20250327_1920.2" vType="car" speedFactor="0.94" vaporized=""/>
    <tripinfo id="flow_route_53_duration_20250327_1920.23" depart="65.00" departLane="138002006#0_0" departPos="28.54" departSpeed="0.00" departDelay="19.00" arrival="134.00" arrivalLane="1369578052#0_1" arrivalPos="2.15" arrivalSpeed="6.91" duration="69.00" routeLength="81.52" waitingTime="41.00" waitingCount="2" stopTime="0.00" timeLoss="63.77" rerouteNo="0" devices="tripinfo_flow_route_53_duration_20250327_1920.23" vType="car" speedFactor="1.09" vaporized=""/>
    <tripinfo id="flow_route_67_duration_20250327_1920.3" depart="13.00" departLane="-138002002#2_0" departPos="33.78" departSpeed="0.00" departDelay="0.15" arrival="135.00" arrivalLane="380351865#0_0" arrivalPos="9.90" arrivalSpeed="9.25" duration="122.00" routeLength="309.18" waitingTime="73.00" waitingCount="1" stopTime="0.00" timeLoss="94.47" rerouteNo="0" devices="tripinfo_flow_route_67_duration_20250327_1920.3" vType="car" speedFactor="0.87" vaporized=""/>
    <tripinfo id="flow_route_67_duration_20250327_1920.9" depart="41.00" departLane="-138002002#2_0" departPos="146.08" departSpeed="0.00" departDelay="2.44" arrival="136.00" arrivalLane="380351865#0_0" arrivalPos="3.89" arrivalSpeed="9.98" duration="95.00" routeLength="190.86" waitingTime="62.00" waitingCount="1" stopTime="0.00" timeLoss="76.60" rerouteNo="0" devices="tripinfo_flow_route_67_duration_20250327_1920.9" vType="car" speedFactor="0.91" vaporized=""/>
    <tripinfo id="flow_route_67_duration_20250327_1920.7" depart="34.00" departLane="-138002002#2_0" departPos="72.48" departSpeed="0.00" departDelay="4.01" arrival="138.00" arrivalLane="380351865#0_0" arrivalPos="1.76" arrivalSpeed="10.85" duration="104.00" routeLength="262.32" waitingTime="60.00" waitingCount="1" stopTime="0.00" timeLoss="82.38" rerouteNo="0" devices="tripinfo_flow_route_67_duration_20250327_1920.7" vType="car" speedFactor="1.00" vaporized=""/>
    <tripinfo id="flow_route_53_duration_20250327_1920.26" depart="68.00" departLane="138002006#0_0" departPos="3.83" departSpeed="0.00" departDelay="16.00" arrival="138.00" arrivalLane="1369578052#0_0" arrivalPos="146.54" arrivalSpeed="16.14" duration="70.00" routeLength="250.64" waitingTime="31.00" waitingCount="2" stopTime="0.00" timeLoss="54.63" rerouteNo="0" devices="tripinfo_flow_route_53_duration_20250327_1920.26" vType="car" speedFactor="1.01" vaporized=""/>
    <tripinfo id="flow_route_67_duration_20250327_1920.5" depart="25.00" departLane="-138002002#2_0" departPos="22.90" departSpeed="0.00" departDelay="3.58" arrival="140.00" arrivalLane="380351865#0_0" arrivalPos="7.26" arrivalSpeed="10.22" duration="115.00" routeLength="317.41" waitingTime="59.00" waitingCount="1" stopTime="0.00" timeLoss="89.60" rerouteNo="0" devices="tripinfo_flow_route_67_duration_20250327_1920.5" vType="car" speedFactor="0.96" vaporized=""/>
    <tripinfo id="flow_route_53_duration_20250327_1920.24" depart="65.00" departLane="138002006#0_0" departPos="6.96" departSpeed="0.00" departDelay="17.00" arrival="142.00" arrivalLane="1369578052#0_0" arrivalPos="63.91" arrivalSpeed="13.23" duration="77.00" routeLength="164.87" waitingTime="39.00" waitingCount="2" stopTime="0.00" timeLoss="66.40" rerouteNo="0" devices="tripinfo_flow_route_53_duration_20250327_1920.24" vType="car" speedFactor="1.00" vaporized=""/>
    <tripinfo id="flow_route_52_duration_20250327_1920.5" depart="65.00" departLane="138002006#0_0" departPos="75.66" departSpeed="0.00" departDelay="15.00" arrival="143.00" arrivalLane="380351865#0_1" arrivalPos="9.82" arrivalSpeed="10.59" duration="78.00" routeLength="175.72" waitingTime="46.00" waitingCount="2" stopTime="0.00" timeLoss="61.45" rerouteNo="0" devices="tripinfo_flow_route_52_duration_20250327_1920.5" vType="car" speedFactor="0.98" vaporized=""/>