<?xml version="1.0" encoding="UTF-8"?>

<!-- generated on 2025-05-06 21:09:15 by Eclipse SUMO sumo Version 1.20.0
<configuration xmlns:xsi="http://www.w3.org/2001/XMLSchema-instance" xsi:noNamespaceSchemaLocation="http://sumo.dlr.de/xsd/sumoConfiguration.xsd">

    <input>
        <net-file value="osm.net.xml"/>
        <route-files value="xml/route_rl_cluster3839130731_cluster_11644940326_11644940327_11648561426_9.rou.xml"/>
    </input>

    <output>
        <tripinfo-output value="xml/tripinfo_rl_cluster3839130731_cluster_11644940326_11644940327_11648561426_9.xml"/>
    </output>

    <traci_server>
        <remote-port value="54301"/>
    </traci_server>

</configuration>
-->

<tripinfos xmlns:xsi="http://www.w3.org/2001/XMLSchema-instance" xsi:noNamespaceSchemaLocation="http://sumo.dlr.de/xsd/tripinfo_file.xsd">
    <tripinfo id="flow_route_123_duration_20250327_2000.0" depart="0.00" departLane="189240000#0-AddedOnRampEdge_0" departPos="5.69" departSpeed="0.00" departDelay="0.00" arrival="22.00" arrivalLane="1254519229#0_1" arrivalPos="19.69" arrivalSpeed="12.20" duration="22.00" routeLength="159.84" waitingTime="0.00" waitingCount="0" stopTime="0.00" timeLoss="10.58" rerouteNo="0" devices="tripinfo_flow_route_123_duration_20250327_2000.0" vType="car" speedFactor="0.89" vaporized=""/>
    <tripinfo id="flow_route_95_duration_20250327_2000.2" depart="4.00" departLane="1341093416#0_0" departPos="243.38" departSpeed="0.00" departDelay="0.84" arrival="26.00" arrivalLane="1254519225#0.109_0" arrivalPos="51.43" arrivalSpeed="16.47" duration="22.00" routeLength="190.42" waitingTime="0.00" waitingCount="0" stopTime="0.00" timeLoss="9.46" rerouteNo="0" devices="tripinfo_flow_route_95_duration_20250327_2000.2" vType="car" speedFactor="1.05" vaporized=""/>
    <tripinfo id="flow_route_123_duration_20250327_2000.2" depart="12.00" departLane="189240000#0-AddedOnRampEdge_0" departPos="60.58" departSpeed="0.00" departDelay="0.00" arrival="28.00" arrivalLane="1254519229#0_0" arrivalPos="13.40" arrivalSpeed="12.33" duration="16.00" routeLength="95.15" waitingTime="0.00" waitingCount="0" stopTime="0.00" timeLoss="8.67" rerouteNo="0" devices="tripinfo_flow_route_123_duration_20250327_2000.2" vType="car" speedFactor="0.93" vaporized=""/>
    <tripinfo id="flow_route_123_duration_20250327_2000.1" depart="6.00" departLane="189240000#0-AddedOnRampEdge_0" departPos="2.82" departSpeed="0.00" departDelay="0.00" arrival="32.00" arrivalLane="1254519229#0_1" arrivalPos="60.83" arrivalSpeed="14.55" duration="26.00" routeLength="203.86" waitingTime="0.00" waitingCount="0" stopTime="0.00" timeLoss="11.13" rerouteNo="0" devices="tripinfo_flow_route_123_duration_20250327_2000.1" vType="car" speedFactor="0.88" vaporized=""/>
    <tripinfo id="flow_route_95_duration_20250327_2000.7" depart="12.00" departLane="1341093416#0_0" departPos="261.83" departSpeed="0.00" departDelay="0.95" arrival="33.00" arrivalLane="1254519225#0.109_0" arrivalPos="30.73" arrivalSpeed="15.12" duration="21.00" routeLength="151.28" waitingTime="0.00" waitingCount="0" stopTime="0.00" timeLoss="9.83" rerouteNo="0" devices="tripinfo_flow_route_95_duration_20250327_2000.7" vType="car" speedFactor="0.95" vaporized=""/>
    <tripinfo id="flow_route_124_duration_20250327_2000.0" depart="0.00" departLane="189240000#0-AddedOnRampEdge_0" departPos="82.66" departSpeed="0.00" departDelay="0.00" arrival="37.00" arrivalLane="1254519225#0.109_3" arrivalPos="34.02" arrivalSpeed="15.00" duration="37.00" routeLength="196.39" waitingTime="5.00" waitingCount="1" stopTime="0.00" timeLoss="22.49" rerouteNo="0" devices="tripinfo_flow_route_124_duration_20250327_2000.0" vType="car" speedFactor="0.94" vaporized=""/>
    <tripinfo id="flow_route_124_duration_20250327_2000.1" depart="3.00" departLane="189240000#0-AddedOnRampEdge_0" departPos="88.65" departSpeed="0.00" departDelay="0.27" arrival="38.00" arrivalLane="1254519225#0.109_3" arrivalPos="19.16" arrivalSpeed="15.06" duration="35.00" routeLength="175.53" waitingTime="4.00" waitingCount="2" stopTime="0.00" timeLoss="22.85" rerouteNo="0" devices="tripinfo_flow_route_124_duration_20250327_2000.1" vType="car" speedFactor="1.03" vaporized=""/>
    <tripinfo id="flow_route_94_duration_20250327_2000.0" depart="0.00" departLane="1341093416#0_0" departPos="204.30" departSpeed="0.00" departDelay="0.00" arrival="39.00" arrivalLane="799091563#0_0" arrivalPos="338.33" arrivalSpeed="16.38" duration="39.00" routeLength="440.38" waitingTime="0.00" waitingCount="0" stopTime="0.00" timeLoss="11.76" rerouteNo="0" devices="tripinfo_flow_route_94_duration_20250327_2000.0" vType="car" speedFactor="1.06" vaporized=""/>
    <tripinfo id="flow_route_124_duration_20250327_2000.2" depart="6.00" departLane="189240000#0-AddedOnRampEdge_0" departPos="64.68" departSpeed="0.00" departDelay="0.55" arrival="39.00" arrivalLane="1254519225#0.109_3" arrivalPos="9.93" arrivalSpeed="14.55" duration="33.00" routeLength="190.28" waitingTime="0.00" waitingCount="0" stopTime="0.00" timeLoss="19.37" rerouteNo="0" devices="tripinfo_flow_route_124_duration_20250327_2000.2" vType="car" speedFactor="0.94" vaporized=""/>
    <tripinfo id="flow_route_96_duration_20250327_2000.0" depart="0.00" departLane="1341093416#0_0" departPos="184.53" departSpeed="0.00" departDelay="0.00" arrival="41.00" arrivalLane="1254519229#0_1" arrivalPos="3.62" arrivalSpeed="2.81" duration="41.00" routeLength="114.10" waitingTime="19.00" waitingCount="1" stopTime="0.00" timeLoss="32.96" rerouteNo="0" devices="tripinfo_flow_route_96_duration_20250327_2000.0" vType="car" speedFactor="1.01" vaporized=""/>
    <tripinfo id="flow_route_124_duration_20250327_2000.3" depart="10.00" departLane="189240000#0-AddedOnRampEdge_0" departPos="56.29" departSpeed="0.00" departDelay="1.82" arrival="41.00" arrivalLane="1254519225#0.109_3" arrivalPos="15.06" arrivalSpeed="14.51" duration="31.00" routeLength="203.80" waitingTime="0.00" waitingCount="0" stopTime="0.00" timeLoss="15.70" rerouteNo="0" devices="tripinfo_flow_route_124_duration_20250327_2000.3" vType="car" speedFactor="0.89" vaporized=""/>
    <tripinfo id="flow_route_95_duration_20250327_2000.6" depart="10.00" departLane="1341093416#0_0" departPos="189.63" departSpeed="0.00" departDelay="0.53" arrival="41.00" arrivalLane="1254519225#0.109_0" arrivalPos="41.68" arrivalSpeed="13.45" duration="31.00" routeLength="234.42" waitingTime="0.00" waitingCount="0" stopTime="0.00" timeLoss="13.14" rerouteNo="0" devices="tripinfo_flow_route_95_duration_20250327_2000.6" vType="car" speedFactor="0.83" vaporized=""/>
    <tripinfo id="flow_route_123_duration_20250327_2000.3" depart="18.00" departLane="189240000#0-AddedOnRampEdge_0" departPos="2.25" departSpeed="0.00" departDelay="0.00" arrival="41.00" arrivalLane="1254519229#0_1" arrivalPos="65.69" arrivalSpeed="16.60" duration="23.00" routeLength="209.28" waitingTime="0.00" waitingCount="0" stopTime="0.00" timeLoss="10.02" rerouteNo="0" devices="tripinfo_flow_route_123_duration_20250327_2000.3" vType="car" speedFactor="1.09" vaporized=""/>
    <tripinfo id="flow_route_95_duration_20250327_2000.9" depart="16.00" departLane="1341093416#0_0" departPos="197.93" departSpeed="0.00" departDelay="1.80" arrival="43.00" arrivalLane="1254519225#0.109_0" arrivalPos="21.15" arrivalSpeed="14.94" duration="27.00" routeLength="205.59" waitingTime="1.00" waitingCount="1" stopTime="0.00" timeLoss="13.97" rerouteNo="0" devices="tripinfo_flow_route_95_duration_20250327_2000.9" vType="car" speedFactor="0.99" vaporized=""/>
    <tripinfo id="flow_route_94_duration_20250327_2000.1" depart="7.00" departLane="1341093416#0_0" departPos="34.38" departSpeed="0.00" departDelay="0.33" arrival="44.00" arrivalLane="799091563#0_1" arrivalPos="125.80" arrivalSpeed="15.58" duration="37.00" routeLength="397.78" waitingTime="0.00" waitingCount="0" stopTime="0.00" timeLoss="11.65" rerouteNo="0" devices="tripinfo_flow_route_94_duration_20250327_2000.1" vType="car" speedFactor="0.94" vaporized=""/>
    <tripinfo id="flow_route_95_duration_20250327_2000.0" depart="0.00" departLane="1341093416#0_0" departPos="1.65" departSpeed="0.00" departDelay="0.00" arrival="47.00" arrivalLane="1254519225#0.109_0" arrivalPos="44.45" arrivalSpeed="15.14" duration="47.00" routeLength="425.17" waitingTime="0.00" waitingCount="0" stopTime="0.00" timeLoss="19.91" rerouteNo="0" devices="tripinfo_flow_route_95_duration_20250327_2000.0" vType="car" speedFactor="0.94" vaporized=""/>
    <tripinfo id="flow_route_111_duration_20250327_2000.0" depart="0.00" departLane="1253188486#8_0" departPos="138.93" departSpeed="0.00" departDelay="0.00" arrival="51.00" arrivalLane="1254519229#0_1" arrivalPos="3.47" arrivalSpeed="6.77" duration="51.00" routeLength="140.76" waitingTime="18.00" waitingCount="1" stopTime="0.00" timeLoss="42.50" rerouteNo="0" devices="tripinfo_flow_route_111_duration_20250327_2000.0" vType="car" speedFactor="0.83" vaporized=""/>
    <tripinfo id="flow_route_111_duration_20250327_2000.5" depart="14.00" departLane="1253188486#8_0" departPos="243.44" departSpeed="0.00" departDelay="1.50" arrival="55.00" arrivalLane="1254519229#0_0" arrivalPos="2.22" arrivalSpeed="6.57" duration="41.00" routeLength="34.99" waitingTime="29.00" waitingCount="1" stopTime="0.00" timeLoss="38.62" rerouteNo="0" devices="tripinfo_flow_route_111_duration_20250327_2000.5" vType="car" speedFactor="1.15" vaporized=""/>
    <tripinfo id="flow_route_124_duration_20250327_2000.4" depart="11.00" departLane="189240000#0-AddedOnRampEdge_0" departPos="29.06" departSpeed="0.00" departDelay="0.09" arrival="56.00" arrivalLane="1254519225#0.109_3" arrivalPos="59.89" arrivalSpeed="15.11" duration="45.00" routeLength="275.86" waitingTime="3.00" waitingCount="1" stopTime="0.00" timeLoss="25.63" rerouteNo="0" devices="tripinfo_flow_route_124_duration_20250327_2000.4" vType="car" speedFactor="0.92" vaporized=""/>
    <tripinfo id="flow_route_124_duration_20250327_2000.6" depart="17.00" departLane="189240000#0-AddedOnRampEdge_0" departPos="64.07" departSpeed="0.00" departDelay="0.64" arrival="56.00" arrivalLane="1254519225#0.109_3" arrivalPos="18.10" arrivalSpeed="14.27" duration="39.00" routeLength="199.05" waitingTime="3.00" waitingCount="1" stopTime="0.00" timeLoss="25.56" rerouteNo="0" devices="tripinfo_flow_route_124_duration_20250327_2000.6" vType="car" speedFactor="1.18" vaporized=""/>
    <tripinfo id="flow_route_111_duration_20250327_2000.2" depart="5.00" departLane="1253188486#8_0" departPos="7.95" departSpeed="0.00" departDelay="0.00" arrival="58.00" arrivalLane="1254519229#0_1" arrivalPos="43.31" arrivalSpeed="11.35" duration="53.00" routeLength="311.58" waitingTime="7.00" waitingCount="1" stopTime="0.00" timeLoss="33.75" rerouteNo="0" devices="tripinfo_flow_route_111_duration_20250327_2000.2" vType="car" speedFactor="0.99" vaporized=""/>
    <tripinfo id="flow_route_111_duration_20250327_2000.3" depart="8.00" departLane="1253188486#8_0" departPos="41.21" departSpeed="0.00" departDelay="0.50" arrival="58.00" arrivalLane="1254519229#0_1" arrivalPos="21.01" arrivalSpeed="9.99" duration="50.00" routeLength="256.03" waitingTime="3.00" waitingCount="1" stopTime="0.00" timeLoss="34.38" rerouteNo="0" devices="tripinfo_flow_route_111_duration_20250327_2000.3" vType="car" speedFactor="1.01" vaporized=""/>
    <tripinfo id="flow_route_104_duration_20250327_2000.0" depart="0.00" departLane="189240001_0" departPos="36.52" departSpeed="0.00" departDelay="0.00" arrival="59.00" arrivalLane="1254519225#0.109_2" arrivalPos="30.66" arrivalSpeed="15.84" duration="59.00" routeLength="198.30" waitingTime="25.00" waitingCount="1" stopTime="0.00" timeLoss="46.18" rerouteNo="0" devices="tripinfo_flow_route_104_duration_20250327_2000.0" vType="car" speedFactor="1.08" vaporized=""/>
    <tripinfo id="flow_route_104_duration_20250327_2000.1" depart="6.00" departLane="189240001_0" departPos="74.95" departSpeed="0.00" departDelay="0.00" arrival="59.00" arrivalLane="1254519225#0.109_0" arrivalPos="18.83" arrivalSpeed="14.36" duration="53.00" routeLength="148.04" waitingTime="28.00" waitingCount="1" stopTime="0.00" timeLoss="42.93" rerouteNo="0" devices="tripinfo_flow_route_104_duration_20250327_2000.1" vType="car" speedFactor="0.93" vaporized=""/>
    <tripinfo id="flow_route_111_duration_20250327_2000.4" depart="10.00" departLane="1253188486#8_0" departPos="229.41" departSpeed="0.00" departDelay="0.00" arrival="59.00" arrivalLane="1254519229#0_0" arrivalPos="56.94" arrivalSpeed="10.93" duration="49.00" routeLength="103.75" waitingTime="20.00" waitingCount="1" stopTime="0.00" timeLoss="42.15" rerouteNo="0" devices="tripinfo_flow_route_111_duration_20250327_2000.4" vType="car" speedFactor="0.87" vaporized=""/>
    <tripinfo id="flow_route_111_duration_20250327_2000.1" depart="3.00" departLane="1253188486#8_0" departPos="155.42" departSpeed="0.00" departDelay="0.50" arrival="61.00" arrivalLane="1254519229#0_0" arrivalPos="40.82" arrivalSpeed="10.43" duration="58.00" routeLength="161.62" waitingTime="23.00" waitingCount="2" stopTime="0.00" timeLoss="48.10" rerouteNo="0" devices="tripinfo_flow_route_111_duration_20250327_2000.1" vType="car" speedFactor="1.09" vaporized=""/>
    <tripinfo id="flow_route_111_duration_20250327_2000.7" depart="19.00" departLane="1253188486#8_0" departPos="153.39" departSpeed="0.00" departDelay="1.50" arrival="61.00" arrivalLane="1254519229#0_1" arrivalPos="31.01" arrivalSpeed="11.10" duration="42.00" routeLength="153.84" waitingTime="3.00" waitingCount="1" stopTime="0.00" timeLoss="32.46" rerouteNo="0" devices="tripinfo_flow_route_111_duration_20250327_2000.7" vType="car" speedFactor="1.03" vaporized=""/>
    <tripinfo id="flow_route_111_duration_20250327_2000.6" depart="15.00" departLane="1253188486#8_0" departPos="50.83" departSpeed="0.00" departDelay="0.00" arrival="62.00" arrivalLane="1254519229#0_0" arrivalPos="6.84" arrivalSpeed="9.20" duration="47.00" routeLength="232.24" waitingTime="6.00" waitingCount="2" stopTime="0.00" timeLoss="32.63" rerouteNo="0" devices="tripinfo_flow_route_111_duration_20250327_2000.6" vType="car" speedFactor="1.02" vaporized=""/>
    <tripinfo id="flow_route_104_duration_20250327_2000.3" depart="19.00" departLane="189240001_0" departPos="68.60" departSpeed="0.00" departDelay="1.00" arrival="62.00" arrivalLane="1254519225#0.109_0" arrivalPos="38.38" arrivalSpeed="15.00" duration="43.00" routeLength="173.94" waitingTime="16.00" waitingCount="1" stopTime="0.00" timeLoss="30.98" rerouteNo="0" devices="tripinfo_flow_route_104_duration_20250327_2000.3" vType="car" speedFactor="0.90" vaporized=""/>
    <tripinfo id="flow_route_111_duration_20250327_2000.8" depart="21.00" departLane="1253188486#8_0" departPos="84.12" departSpeed="0.00" departDelay="1.00" arrival="63.00" arrivalLane="1254519229#0_1" arrivalPos="33.83" arrivalSpeed="11.44" duration="42.00" routeLength="225.93" waitingTime="0.00" waitingCount="0" stopTime="0.00" timeLoss="28.20" rerouteNo="0" devices="tripinfo_flow_route_111_duration_20250327_2000.8" vType="car" speedFactor="1.09" vaporized=""/>
    <tripinfo id="flow_route_104_duration_20250327_2000.2" depart="12.00" departLane="189240001_0" departPos="14.37" departSpeed="0.00" departDelay="0.00" arrival="64.00" arrivalLane="1254519225#0.109_0" arrivalPos="36.19" arrivalSpeed="16.09" duration="52.00" routeLength="225.98" waitingTime="15.00" waitingCount="1" stopTime="0.00" timeLoss="37.86" rerouteNo="0" devices="tripinfo_flow_route_104_duration_20250327_2000.2" vType="car" speedFactor="1.13" vaporized=""/>
    <tripinfo id="flow_route_104_duration_20250327_2000.5" depart="30.00" departLane="189240001_0" departPos="0.07" departSpeed="0.00" departDelay="0.00" arrival="64.00" arrivalLane="1254519225#0.109_0" arrivalPos="10.45" arrivalSpeed="14.24" duration="34.00" routeLength="214.54" waitingTime="0.00" waitingCount="0" stopTime="0.00" timeLoss="18.82" rerouteNo="0" devices="tripinfo_flow_route_104_duration_20250327_2000.5" vType="car" speedFactor="0.88" vaporized=""/>
    <tripinfo id="flow_route_111_duration_20250327_2000.11" depart="29.00" departLane="1253188486#8_0" departPos="217.67" departSpeed="0.00" departDelay="1.50" arrival="65.00" arrivalLane="1254519229#0_0" arrivalPos="68.16" arrivalSpeed="12.40" duration="36.00" routeLength="126.71" waitingTime="7.00" waitingCount="2" stopTime="0.00" timeLoss="28.25" rerouteNo="0" devices="tripinfo_flow_route_111_duration_20250327_2000.11" vType="car" speedFactor="1.08" vaporized=""/>
    <tripinfo id="flow_route_104_duration_20250327_2000.7" depart="42.00" departLane="189240001_0" departPos="33.71" departSpeed="0.00" departDelay="0.00" arrival="65.00" arrivalLane="1254519225#0.109_0" arrivalPos="0.46" arrivalSpeed="15.04" duration="23.00" routeLength="170.91" waitingTime="0.00" waitingCount="0" stopTime="0.00" timeLoss="12.05" rerouteNo="0" devices="tripinfo_flow_route_104_duration_20250327_2000.7" vType="car" speedFactor="1.02" vaporized=""/>
    <tripinfo id="flow_route_111_duration_20250327_2000.12" depart="30.00" departLane="1253188486#8_0" departPos="161.59" departSpeed="0.00" departDelay="0.00" arrival="66.00" arrivalLane="1254519229#0_0" arrivalPos="27.52" arrivalSpeed="11.88" duration="36.00" routeLength="142.15" waitingTime="3.00" waitingCount="1" stopTime="0.00" timeLoss="26.81" rerouteNo="0" devices="tripinfo_flow_route_111_duration_20250327_2000.12" vType="car" speedFactor="0.91" vaporized=""/>
    <tripinfo id="flow_route_111_duration_20250327_2000.9" depart="23.00" departLane="1253188486#8_0" departPos="30.50" departSpeed="0.00" departDelay="0.50" arrival="68.00" arrivalLane="1254519229#0_1" arrivalPos="62.14" arrivalSpeed="13.71" duration="45.00" routeLength="307.87" waitingTime="0.00" waitingCount="0" stopTime="0.00" timeLoss="25.80" rerouteNo="0" devices="tripinfo_flow_route_111_duration_20250327_2000.9" vType="car" speedFactor="0.85" vaporized=""/>
    <tripinfo id="flow_route_111_duration_20250327_2000.13" depart="33.00" departLane="1253188486#8_0" departPos="96.53" departSpeed="0.00" departDelay="0.50" arrival="68.00" arrivalLane="1254519229#0_0" arrivalPos="9.10" arrivalSpeed="10.85" duration="35.00" routeLength="188.78" waitingTime="0.00" waitingCount="0" stopTime="0.00" timeLoss="23.14" rerouteNo="0" devices="tripinfo_flow_route_111_duration_20250327_2000.13" vType="car" speedFactor="1.02" vaporized=""/>
    <tripinfo id="flow_route_104_duration_20250327_2000.6" depart="40.00" departLane="189240001_0" departPos="2.71" departSpeed="0.00" departDelay="4.00" arrival="68.00" arrivalLane="1254519225#0.109_0" arrivalPos="27.74" arrivalSpeed="16.15" duration="28.00" routeLength="229.19" waitingTime="0.00" waitingCount="0" stopTime="0.00" timeLoss="13.62" rerouteNo="0" devices="tripinfo_flow_route_104_duration_20250327_2000.6" vType="car" speedFactor="0.98" vaporized=""/>
    <tripinfo id="flow_route_111_duration_20250327_2000.16" depart="40.00" departLane="1253188486#8_0" departPos="183.90" departSpeed="0.00" departDelay="0.00" arrival="68.00" arrivalLane="1254519229#0_0" arrivalPos="32.09" arrivalSpeed="11.54" duration="28.00" routeLength="124.41" waitingTime="0.00" waitingCount="0" stopTime="0.00" timeLoss="20.19" rerouteNo="0" devices="tripinfo_flow_route_111_duration_20250327_2000.16" vType="car" speedFactor="1.00" vaporized=""/>
    <tripinfo id="flow_route_111_duration_20250327_2000.10" depart="26.00" departLane="1253188486#8_0" departPos="68.03" departSpeed="0.00" departDelay="1.00" arrival="69.00" arrivalLane="1254519229#0_1" arrivalPos="53.74" arrivalSpeed="13.99" duration="43.00" routeLength="261.93" waitingTime="0.00" waitingCount="0" stopTime="0.00" timeLoss="26.55" rerouteNo="0" devices="tripinfo_flow_route_111_duration_20250327_2000.10" vType="car" speedFactor="1.00" vaporized=""/>
    <tripinfo id="flow_route_112_duration_20250327_2000.1" depart="9.00" departLane="1253188486#8_0" departPos="199.14" departSpeed="0.00" departDelay="0.43" arrival="70.00" arrivalLane="799091563#0_0" arrivalPos="217.05" arrivalSpeed="16.02" duration="61.00" routeLength="272.62" waitingTime="25.00" waitingCount="1" stopTime="0.00" timeLoss="42.82" rerouteNo="0" devices="tripinfo_flow_route_112_duration_20250327_2000.1" vType="car" speedFactor="0.97" vaporized=""/>
    <tripinfo id="flow_route_111_duration_20250327_2000.14" depart="35.00" departLane="1253188486#8_0" departPos="79.35" departSpeed="0.00" departDelay="0.00" arrival="71.00" arrivalLane="1254519229#0_1" arrivalPos="67.13" arrivalSpeed="14.78" duration="36.00" routeLength="264.00" waitingTime="0.00" waitingCount="0" stopTime="0.00" timeLoss="19.92" rerouteNo="0" devices="tripinfo_flow_route_111_duration_20250327_2000.14" vType="car" speedFactor="0.98" vaporized=""/>
    <tripinfo id="flow_route_112_duration_20250327_2000.4" depart="36.00" departLane="1253188486#8_0" departPos="142.19" departSpeed="0.00" departDelay="1.72" arrival="71.00" arrivalLane="799091563#0_0" arrivalPos="126.38" arrivalSpeed="14.63" duration="35.00" routeLength="238.90" waitingTime="0.00" waitingCount="0" stopTime="0.00" timeLoss="19.95" rerouteNo="0" devices="tripinfo_flow_route_112_duration_20250327_2000.4" vType="car" speedFactor="1.03" vaporized=""/>
    <tripinfo id="flow_route_111_duration_20250327_2000.17" depart="47.00" departLane="1253188486#8_0" departPos="89.68" departSpeed="0.00" departDelay="4.50" arrival="72.00" arrivalLane="1254519229#0_0" arrivalPos="48.10" arrivalSpeed="16.49" duration="25.00" routeLength="234.64" waitingTime="0.00" waitingCount="0" stopTime="0.00" timeLoss="10.76" rerouteNo="0" devices="tripinfo_flow_route_111_duration_20250327_2000.17" vType="car" speedFactor="0.83" vaporized=""/>
    <tripinfo id="flow_route_111_duration_20250327_2000.15" depart="39.00" departLane="1253188486#8_0" departPos="54.13" departSpeed="0.00" departDelay="1.50" arrival="73.00" arrivalLane="1254519229#0_1" arrivalPos="73.17" arrivalSpeed="15.20" duration="34.00" routeLength="295.26" waitingTime="0.00" waitingCount="0" stopTime="0.00" timeLoss="16.14" rerouteNo="0" devices="tripinfo_flow_route_111_duration_20250327_2000.15" vType="car" speedFactor="1.02" vaporized=""/>
    <tripinfo id="flow_route_112_duration_20250327_2000.2" depart="21.00" departLane="1253188486#8_0" departPos="100.85" departSpeed="0.00" departDelay="3.86" arrival="74.00" arrivalLane="799091563#0_0" arrivalPos="194.73" arrivalSpeed="15.92" duration="53.00" routeLength="348.58" waitingTime="3.00" waitingCount="1" stopTime="0.00" timeLoss="29.82" rerouteNo="0" devices="tripinfo_flow_route_112_duration_20250327_2000.2" vType="car" speedFactor="0.96" vaporized=""/>
    <tripinfo id="flow_route_111_duration_20250327_2000.18" depart="47.00" departLane="1253188486#8_0" departPos="51.94" departSpeed="0.00" departDelay="2.00" arrival="75.00" arrivalLane="1254519229#0_1" arrivalPos="72.86" arrivalSpeed="16.27" duration="28.00" routeLength="297.14" waitingTime="0.00" waitingCount="0" stopTime="0.00" timeLoss="9.88" rerouteNo="0" devices="tripinfo_flow_route_111_duration_20250327_2000.18" vType="car" speedFactor="1.01" vaporized=""/>
    <tripinfo id="flow_route_112_duration_20250327_2000.0" depart="0.00" departLane="1253188486#8_0" departPos="64.90" departSpeed="0.00" departDelay="0.00" arrival="76.00" arrivalLane="799091563#0_0" arrivalPos="282.23" arrivalSpeed="16.24" duration="76.00" routeLength="472.04" waitingTime="24.00" waitingCount="1" stopTime="0.00" timeLoss="45.53" rerouteNo="0" devices="tripinfo_flow_route_112_duration_20250327_2000.0" vType="car" speedFactor="1.05" vaporized=""/>
    <tripinfo id="flow_route_104_duration_20250327_2000.9" depart="54.00" departLane="189240001_0" departPos="31.08" departSpeed="0.00" departDelay="0.00" arrival="78.00" arrivalLane="1254519225#0.109_0" arrivalPos="48.31" arrivalSpeed="16.55" duration="24.00" routeLength="221.39" waitingTime="0.00" waitingCount="0" stopTime="0.00" timeLoss="9.80" rerouteNo="0" devices="tripinfo_flow_route_104_duration_20250327_2000.9" vType="car" speedFactor="1.10" vaporized=""/>
    <tripinfo id="flow_route_112_duration_20250327_2000.3" depart="27.00" departLane="1253188486#8_0" departPos="25.24" departSpeed="0.00" departDelay="1.29" arrival="81.00" arrivalLane="799091563#0_0" arrivalPos="251.87" arrivalSpeed="16.36" duration="54.00" routeLength="481.34" waitingTime="0.00" waitingCount="0" stopTime="0.00" timeLoss="23.69" rerouteNo="0" devices="tripinfo_flow_route_112_duration_20250327_2000.3" vType="car" speedFactor="1.14" vaporized=""/>
    <tripinfo id="flow_route_104_duration_20250327_2000.8" depart="51.00" departLane="189240001_0" departPos="12.03" departSpeed="0.00" departDelay="3.00" arrival="84.00" arrivalLane="1254519225#0.109_0" arrivalPos="1.97" arrivalSpeed="13.85" duration="33.00" routeLength="194.09" waitingTime="1.00" waitingCount="1" stopTime="0.00" timeLoss="20.53" rerouteNo="0" devices="tripinfo_flow_route_104_duration_20250327_2000.8" vType="car" speedFactor="0.96" vaporized=""/>
    <tripinfo id="flow_route_112_duration_20250327_2000.6" depart="54.00" departLane="1253188486#8_0" departPos="141.43" departSpeed="0.00" departDelay="2.57" arrival="85.00" arrivalLane="799091563#0_0" arrivalPos="121.16" arrivalSpeed="14.86" duration="31.00" routeLength="234.44" waitingTime="0.00" waitingCount="0" stopTime="0.00" timeLoss="15.73" rerouteNo="0" devices="tripinfo_flow_route_112_duration_20250327_2000.6" vType="car" speedFactor="1.06" vaporized=""/>
    <tripinfo id="flow_route_123_duration_20250327_2000.6" depart="36.00" departLane="189240000#0-AddedOnRampEdge_0" departPos="74.54" departSpeed="0.00" departDelay="0.00" arrival="86.00" arrivalLane="1254519229#0_0" arrivalPos="29.16" arrivalSpeed="8.44" duration="50.00" routeLength="96.95" waitingTime="26.00" waitingCount="1" stopTime="0.00" timeLoss="43.55" rerouteNo="0" devices="tripinfo_flow_route_123_duration_20250327_2000.6" vType="car" speedFactor="1.01" vaporized=""/>
    <tripinfo id="flow_route_123_duration_20250327_2000.5" depart="30.00" departLane="189240000#0-AddedOnRampEdge_0" departPos="86.73" departSpeed="0.00" departDelay="0.00" arrival="89.00" arrivalLane="1254519229#0_0" arrivalPos="63.49" arrivalSpeed="11.52" duration="59.00" routeLength="122.61" waitingTime="33.00" waitingCount="1" stopTime="0.00" timeLoss="50.65" rerouteNo="0" devices="tripinfo_flow_route_123_duration_20250327_2000.5" vType="car" speedFactor="0.91" vaporized=""/>
    <tripinfo id="flow_route_95_duration_20250327_2000.4" depart="7.00" departLane="1341093416#0_0" departPos="112.79" departSpeed="0.00" departDelay="0.69" arrival="91.00" arrivalLane="1254519225#0.109_0" arrivalPos="8.07" arrivalSpeed="12.82" duration="84.00" routeLength="277.66" waitingTime="37.00" waitingCount="1" stopTime="0.00" timeLoss="66.34" rerouteNo="0" devices="tripinfo_flow_route_95_duration_20250327_2000.4" vType="car" speedFactor="1.16" vaporized=""/>
    <tripinfo id="flow_route_95_duration_20250327_2000.10" depart="18.00" departLane="1341093416#0_0" departPos="160.41" departSpeed="0.00" departDelay="2.22" arrival="94.00" arrivalLane="1254519225#0.109_0" arrivalPos="11.27" arrivalSpeed="14.50" duration="76.00" routeLength="233.24" waitingTime="36.00" waitingCount="1" stopTime="0.00" timeLoss="60.32" rerouteNo="0" devices="tripinfo_flow_route_95_duration_20250327_2000.10" vType="car" speedFactor="0.97" vaporized=""/>
    <tripinfo id="flow_route_95_duration_20250327_2000.3" depart="5.00" departLane="1341093416#0_0" departPos="64.91" departSpeed="0.00" departDelay="0.27" arrival="96.00" arrivalLane="1254519225#0.109_0" arrivalPos="24.74" arrivalSpeed="13.91" duration="91.00" routeLength="342.21" waitingTime="35.00" waitingCount="1" stopTime="0.00" timeLoss="69.74" rerouteNo="0" devices="tripinfo_flow_route_95_duration_20250327_2000.3" vType="car" speedFactor="1.12" vaporized=""/>
    <tripinfo id="flow_route_96_duration_20250327_2000.1" depart="45.00" departLane="1341093416#0_0" departPos="63.34" departSpeed="0.00" departDelay="15.00" arrival="97.00" arrivalLane="1254519229#0_1" arrivalPos="71.88" arrivalSpeed="11.22" duration="52.00" routeLength="303.56" waitingTime="0.00" waitingCount="0" stopTime="0.00" timeLoss="32.12" rerouteNo="0" devices="tripinfo_flow_route_96_duration_20250327_2000.1" vType="car" speedFactor="0.94" vaporized=""/>
    <tripinfo id="flow_route_105_duration_20250327_2000.0" depart="1.00" departLane="189240001_0" departPos="25.23" departSpeed="0.00" departDelay="1.00" arrival="98.00" arrivalLane="799091563#0_1" arrivalPos="224.02" arrivalSpeed="16.52" duration="97.00" routeLength="308.35" waitingTime="50.00" waitingCount="2" stopTime="0.00" timeLoss="77.45" rerouteNo="0" devices="tripinfo_flow_route_105_duration_20250327_2000.0" vType="car" speedFactor="1.03" vaporized=""/>
    <tripinfo id="flow_route_94_duration_20250327_2000.3" depart="26.00" departLane="1341093416#0_0" departPos="118.14" departSpeed="0.00" departDelay="6.00" arrival="99.00" arrivalLane="799091563#0_2" arrivalPos="187.08" arrivalSpeed="16.58" duration="73.00" routeLength="375.29" waitingTime="27.00" waitingCount="1" stopTime="0.00" timeLoss="49.81" rerouteNo="0" devices="tripinfo_flow_route_94_duration_20250327_2000.3" vType="car" speedFactor="1.04" vaporized=""/>
    <tripinfo id="flow_route_95_duration_20250327_2000.5" depart="8.00" departLane="1341093416#0_0" departPos="61.18" departSpeed="0.00" departDelay="0.11" arrival="100.00" arrivalLane="1254519225#0.109_0" arrivalPos="60.18" arrivalSpeed="15.97" duration="92.00" routeLength="381.37" waitingTime="35.00" waitingCount="1" stopTime="0.00" timeLoss="68.18" rerouteNo="0" devices="tripinfo_flow_route_95_duration_20250327_2000.5" vType="car" speedFactor="1.02" vaporized=""/>