<?xml version="1.0" encoding="UTF-8"?>

<!-- generated on 2025-05-06 16:33:56 by Eclipse SUMO sumo Version 1.20.0
<configuration xmlns:xsi="http://www.w3.org/2001/XMLSchema-instance" xsi:noNamespaceSchemaLocation="http://sumo.dlr.de/xsd/sumoConfiguration.xsd">

    <input>
        <net-file value="osm.net.xml"/>
        <route-files value="xml/routes_ddpg_cluster_11648561428_407729599.rou.xml"/>
    </input>

    <output>
        <tripinfo-output value="xml/tripinfo_42372.xml"/>
    </output>

    <traci_server>
        <remote-port value="44495"/>
    </traci_server>

</configuration>
-->

<tripinfos xmlns:xsi="http://www.w3.org/2001/XMLSchema-instance" xsi:noNamespaceSchemaLocation="http://sumo.dlr.de/xsd/tripinfo_file.xsd">
    <tripinfo id="flow_route_106_duration_20250327_2010.0" depart="0.00" departLane="1254519229#0_0" departPos="19.69" departSpeed="0.00" departDelay="0.00" arrival="17.00" arrivalLane="430416184_1" arrivalPos="13.15" arrivalSpeed="9.10" duration="17.00" routeLength="94.14" waitingTime="0.00" waitingCount="0" stopTime="0.00" timeLoss="10.55" rerouteNo="0" devices="tripinfo_flow_route_106_duration_20250327_2010.0" vType="car" speedFactor="1.01" vaporized=""/>
    <tripinfo id="flow_route_107_duration_20250327_2010.0" depart="0.00" departLane="1254519229#0_0" departPos="43.39" departSpeed="0.00" departDelay="0.00" arrival="20.00" arrivalLane="1342963997_0" arrivalPos="88.24" arrivalSpeed="15.39" duration="20.00" routeLength="145.44" waitingTime="0.00" waitingCount="0" stopTime="0.00" timeLoss="10.57" rerouteNo="0" devices="tripinfo_flow_route_107_duration_20250327_2010.0" vType="car" speedFactor="1.08" vaporized=""/>
    <tripinfo id="flow_route_101_duration_20250327_2010.1" depart="7.00" departLane="186409193_0" departPos="51.15" departSpeed="0.00" departDelay="2.00" arrival="24.00" arrivalLane="430416184_0" arrivalPos="1.75" arrivalSpeed="5.62" duration="17.00" routeLength="85.09" waitingTime="0.00" waitingCount="0" stopTime="0.00" timeLoss="10.07" rerouteNo="0" devices="tripinfo_flow_route_101_duration_20250327_2010.1" vType="car" speedFactor="0.83" vaporized=""/>
    <tripinfo id="flow_route_107_duration_20250327_2010.1" depart="6.00" departLane="1254519229#0_0" departPos="4.79" departSpeed="0.00" departDelay="0.00" arrival="32.00" arrivalLane="1342963997_1" arrivalPos="101.68" arrivalSpeed="15.69" duration="26.00" routeLength="197.47" waitingTime="0.00" waitingCount="0" stopTime="0.00" timeLoss="13.60" rerouteNo="0" devices="tripinfo_flow_route_107_duration_20250327_2010.1" vType="car" speedFactor="0.89" vaporized=""/>
    <tripinfo id="flow_route_107_duration_20250327_2010.2" depart="12.00" departLane="1254519229#0_0" departPos="65.59" departSpeed="0.00" departDelay="0.00" arrival="32.00" arrivalLane="1342963997_0" arrivalPos="113.75" arrivalSpeed="14.69" duration="20.00" routeLength="148.74" waitingTime="0.00" waitingCount="0" stopTime="0.00" timeLoss="10.86" rerouteNo="0" devices="tripinfo_flow_route_107_duration_20250327_2010.2" vType="car" speedFactor="1.03" vaporized=""/>
    <tripinfo id="flow_route_107_duration_20250327_2010.3" depart="19.00" departLane="1254519229#0_0" departPos="54.51" departSpeed="0.00" departDelay="1.00" arrival="33.00" arrivalLane="1342963997_0" arrivalPos="28.57" arrivalSpeed="10.89" duration="14.00" routeLength="74.64" waitingTime="0.00" waitingCount="0" stopTime="0.00" timeLoss="9.24" rerouteNo="0" devices="tripinfo_flow_route_107_duration_20250327_2010.3" vType="car" speedFactor="0.99" vaporized=""/>
    <tripinfo id="flow_route_101_duration_20250327_2010.0" depart="0.00" departLane="186409193_0" departPos="43.42" departSpeed="0.00" departDelay="0.00" arrival="34.00" arrivalLane="430416184_0" arrivalPos="206.05" arrivalSpeed="16.53" duration="34.00" routeLength="297.12" waitingTime="0.00" waitingCount="0" stopTime="0.00" timeLoss="14.80" rerouteNo="0" devices="tripinfo_flow_route_101_duration_20250327_2010.0" vType="car" speedFactor="0.94" vaporized=""/>
    <tripinfo id="flow_route_106_duration_20250327_2010.1" depart="5.00" departLane="1254519229#0_0" departPos="35.97" departSpeed="0.00" departDelay="0.39" arrival="37.00" arrivalLane="430416184_1" arrivalPos="194.63" arrivalSpeed="16.27" duration="32.00" routeLength="259.33" waitingTime="1.00" waitingCount="1" stopTime="0.00" timeLoss="15.69" rerouteNo="0" devices="tripinfo_flow_route_106_duration_20250327_2010.1" vType="car" speedFactor="1.05" vaporized=""/>
    <tripinfo id="flow_route_106_duration_20250327_2010.4" depart="19.00" departLane="1254519229#0_0" departPos="26.36" departSpeed="0.00" departDelay="0.54" arrival="39.00" arrivalLane="430416184_1" arrivalPos="8.62" arrivalSpeed="6.26" duration="20.00" routeLength="82.94" waitingTime="0.00" waitingCount="0" stopTime="0.00" timeLoss="14.14" rerouteNo="0" devices="tripinfo_flow_route_106_duration_20250327_2010.4" vType="car" speedFactor="0.93" vaporized=""/>
    <tripinfo id="flow_route_107_duration_20250327_2010.4" depart="25.00" departLane="1254519229#0_0" departPos="56.94" departSpeed="0.00" departDelay="1.00" arrival="39.00" arrivalLane="1342963997_0" arrivalPos="30.16" arrivalSpeed="10.70" duration="14.00" routeLength="73.80" waitingTime="0.00" waitingCount="0" stopTime="0.00" timeLoss="9.12" rerouteNo="0" devices="tripinfo_flow_route_107_duration_20250327_2010.4" vType="car" speedFactor="1.02" vaporized=""/>
    <tripinfo id="flow_route_101_duration_20250327_2010.3" depart="16.00" departLane="186409193_0" departPos="44.66" departSpeed="0.00" departDelay="1.00" arrival="40.00" arrivalLane="430416184_0" arrivalPos="68.46" arrivalSpeed="12.18" duration="24.00" routeLength="158.29" waitingTime="0.00" waitingCount="0" stopTime="0.00" timeLoss="13.23" rerouteNo="0" devices="tripinfo_flow_route_101_duration_20250327_2010.3" vType="car" speedFactor="1.12" vaporized=""/>
    <tripinfo id="flow_route_100_duration_20250327_2010.1" depart="13.00" departLane="186409193_0" departPos="51.86" departSpeed="0.00" departDelay="1.00" arrival="41.00" arrivalLane="1254519229#0_1" arrivalPos="24.43" arrivalSpeed="7.43" duration="28.00" routeLength="204.20" waitingTime="0.00" waitingCount="0" stopTime="0.00" timeLoss="14.79" rerouteNo="0" devices="tripinfo_flow_route_100_duration_20250327_2010.1" vType="car" speedFactor="1.09" vaporized=""/>
    <tripinfo id="flow_route_101_duration_20250327_2010.4" depart="20.00" departLane="186409193_0" departPos="24.03" departSpeed="0.00" departDelay="0.00" arrival="44.00" arrivalLane="430416184_0" arrivalPos="37.41" arrivalSpeed="8.67" duration="24.00" routeLength="147.88" waitingTime="0.00" waitingCount="0" stopTime="0.00" timeLoss="13.26" rerouteNo="0" devices="tripinfo_flow_route_101_duration_20250327_2010.4" vType="car" speedFactor="0.88" vaporized=""/>
    <tripinfo id="flow_route_101_duration_20250327_2010.2" depart="10.00" departLane="186409193_0" departPos="2.70" departSpeed="0.00" departDelay="0.00" arrival="46.00" arrivalLane="430416184_0" arrivalPos="93.11" arrivalSpeed="12.87" duration="36.00" routeLength="224.91" waitingTime="0.00" waitingCount="0" stopTime="0.00" timeLoss="20.68" rerouteNo="0" devices="tripinfo_flow_route_101_duration_20250327_2010.2" vType="car" speedFactor="0.94" vaporized=""/>
    <tripinfo id="flow_route_106_duration_20250327_2010.5" depart="24.00" departLane="1254519229#0_0" departPos="19.21" departSpeed="0.00" departDelay="0.93" arrival="49.00" arrivalLane="430416184_1" arrivalPos="64.53" arrivalSpeed="11.65" duration="25.00" routeLength="146.00" waitingTime="1.00" waitingCount="1" stopTime="0.00" timeLoss="15.79" rerouteNo="0" devices="tripinfo_flow_route_106_duration_20250327_2010.5" vType="car" speedFactor="1.16" vaporized=""/>
    <tripinfo id="flow_route_106_duration_20250327_2010.2" depart="10.00" departLane="1254519229#0_0" departPos="40.82" departSpeed="0.00" departDelay="0.77" arrival="52.00" arrivalLane="430416184_1" arrivalPos="197.69" arrivalSpeed="16.38" duration="42.00" routeLength="257.56" waitingTime="4.00" waitingCount="2" stopTime="0.00" timeLoss="25.51" rerouteNo="0" devices="tripinfo_flow_route_106_duration_20250327_2010.2" vType="car" speedFactor="0.86" vaporized=""/>
    <tripinfo id="flow_route_106_duration_20250327_2010.3" depart="15.00" departLane="1254519229#0_0" departPos="2.58" departSpeed="0.00" departDelay="1.16" arrival="52.00" arrivalLane="430416184_1" arrivalPos="114.69" arrivalSpeed="14.70" duration="37.00" routeLength="212.79" waitingTime="0.00" waitingCount="0" stopTime="0.00" timeLoss="22.89" rerouteNo="0" devices="tripinfo_flow_route_106_duration_20250327_2010.3" vType="car" speedFactor="1.05" vaporized=""/>
    <tripinfo id="flow_route_101_duration_20250327_2010.5" depart="30.00" departLane="186409193_0" departPos="10.71" departSpeed="0.00" departDelay="5.00" arrival="53.00" arrivalLane="430416184_0" arrivalPos="25.74" arrivalSpeed="8.72" duration="23.00" routeLength="149.53" waitingTime="0.00" waitingCount="0" stopTime="0.00" timeLoss="13.10" rerouteNo="0" devices="tripinfo_flow_route_101_duration_20250327_2010.5" vType="car" speedFactor="1.01" vaporized=""/>
    <tripinfo id="flow_route_100_duration_20250327_2010.0" depart="0.00" departLane="186409193_0" departPos="2.55" departSpeed="0.00" departDelay="0.00" arrival="56.00" arrivalLane="1254519229#0_0" arrivalPos="70.90" arrivalSpeed="3.08" duration="56.00" routeLength="299.97" waitingTime="0.00" waitingCount="0" stopTime="0.00" timeLoss="37.14" rerouteNo="0" devices="tripinfo_flow_route_100_duration_20250327_2010.0" vType="car" speedFactor="1.06" vaporized=""/>
    <tripinfo id="flow_route_101_duration_20250327_2010.6" depart="31.00" departLane="186409193_0" departPos="1.63" departSpeed="0.00" departDelay="1.00" arrival="59.00" arrivalLane="430416184_0" arrivalPos="48.70" arrivalSpeed="10.48" duration="28.00" routeLength="181.57" waitingTime="0.00" waitingCount="0" stopTime="0.00" timeLoss="15.01" rerouteNo="0" devices="tripinfo_flow_route_101_duration_20250327_2010.6" vType="car" speedFactor="0.89" vaporized=""/>
    <tripinfo id="flow_route_107_duration_20250327_2010.5" depart="30.00" departLane="1254519229#0_0" departPos="12.08" departSpeed="0.00" departDelay="0.00" arrival="63.00" arrivalLane="1342963997_0" arrivalPos="171.46" arrivalSpeed="16.52" duration="33.00" routeLength="259.96" waitingTime="0.00" waitingCount="0" stopTime="0.00" timeLoss="16.78" rerouteNo="0" devices="tripinfo_flow_route_107_duration_20250327_2010.5" vType="car" speedFactor="0.83" vaporized=""/>
    <tripinfo id="flow_route_106_duration_20250327_2010.7" depart="33.00" departLane="1254519229#0_0" departPos="43.51" departSpeed="0.00" departDelay="0.70" arrival="63.00" arrivalLane="430416184_1" arrivalPos="80.64" arrivalSpeed="12.36" duration="30.00" routeLength="137.81" waitingTime="2.00" waitingCount="1" stopTime="0.00" timeLoss="20.10" rerouteNo="0" devices="tripinfo_flow_route_106_duration_20250327_2010.7" vType="car" speedFactor="0.87" vaporized=""/>
    <tripinfo id="flow_route_107_duration_20250327_2010.6" depart="37.00" departLane="1254519229#0_0" departPos="16.48" departSpeed="0.00" departDelay="1.00" arrival="65.00" arrivalLane="1342963997_0" arrivalPos="178.17" arrivalSpeed="16.48" duration="28.00" routeLength="262.27" waitingTime="0.00" waitingCount="0" stopTime="0.00" timeLoss="11.66" rerouteNo="0" devices="tripinfo_flow_route_107_duration_20250327_2010.6" vType="car" speedFactor="1.13" vaporized=""/>
    <tripinfo id="flow_route_106_duration_20250327_2010.8" depart="38.00" departLane="1254519229#0_0" departPos="57.44" departSpeed="0.00" departDelay="1.08" arrival="70.00" arrivalLane="430416184_1" arrivalPos="24.88" arrivalSpeed="7.29" duration="32.00" routeLength="68.12" waitingTime="7.00" waitingCount="3" stopTime="0.00" timeLoss="27.20" rerouteNo="0" devices="tripinfo_flow_route_106_duration_20250327_2010.8" vType="car" speedFactor="0.93" vaporized=""/>
    <tripinfo id="flow_route_107_duration_20250327_2010.8" depart="50.00" departLane="1254519229#0_0" departPos="37.11" departSpeed="0.00" departDelay="2.00" arrival="78.00" arrivalLane="1342963997_0" arrivalPos="156.91" arrivalSpeed="16.37" duration="28.00" routeLength="220.38" waitingTime="0.00" waitingCount="0" stopTime="0.00" timeLoss="14.03" rerouteNo="0" devices="tripinfo_flow_route_107_duration_20250327_2010.8" vType="car" speedFactor="1.18" vaporized=""/>
    <tripinfo id="flow_route_107_duration_20250327_2010.9" depart="54.00" departLane="1254519229#0_0" departPos="11.23" departSpeed="0.00" departDelay="0.00" arrival="79.00" arrivalLane="1342963997_0" arrivalPos="128.08" arrivalSpeed="16.51" duration="25.00" routeLength="217.42" waitingTime="0.00" waitingCount="0" stopTime="0.00" timeLoss="11.09" rerouteNo="0" devices="tripinfo_flow_route_107_duration_20250327_2010.9" vType="car" speedFactor="1.03" vaporized=""/>
    <tripinfo id="flow_route_101_duration_20250327_2010.7" depart="38.00" departLane="186409193_0" departPos="2.74" departSpeed="0.00" departDelay="3.00" arrival="83.00" arrivalLane="430416184_0" arrivalPos="268.40" arrivalSpeed="16.21" duration="45.00" routeLength="400.16" waitingTime="0.00" waitingCount="0" stopTime="0.00" timeLoss="18.07" rerouteNo="0" devices="tripinfo_flow_route_101_duration_20250327_2010.7" vType="car" speedFactor="0.92" vaporized=""/>
    <tripinfo id="flow_route_100_duration_20250327_2010.2" depart="29.00" departLane="186409193_0" departPos="28.78" departSpeed="0.00" departDelay="5.00" arrival="86.00" arrivalLane="1254519229#0_1" arrivalPos="21.01" arrivalSpeed="5.93" duration="57.00" routeLength="223.86" waitingTime="24.00" waitingCount="1" stopTime="0.00" timeLoss="41.62" rerouteNo="0" devices="tripinfo_flow_route_100_duration_20250327_2010.2" vType="car" speedFactor="0.94" vaporized=""/>
    <tripinfo id="flow_route_106_duration_20250327_2010.10" depart="48.00" departLane="1254519229#0_0" departPos="45.65" departSpeed="0.00" departDelay="1.85" arrival="86.00" arrivalLane="430416184_1" arrivalPos="142.48" arrivalSpeed="16.26" duration="38.00" routeLength="197.51" waitingTime="4.00" waitingCount="2" stopTime="0.00" timeLoss="24.67" rerouteNo="0" devices="tripinfo_flow_route_106_duration_20250327_2010.10" vType="car" speedFactor="1.02" vaporized=""/>
    <tripinfo id="flow_route_100_duration_20250327_2010.3" depart="44.00" departLane="186409193_0" departPos="57.07" departSpeed="0.00" departDelay="8.00" arrival="88.00" arrivalLane="1254519229#0_1" arrivalPos="14.24" arrivalSpeed="6.21" duration="44.00" routeLength="188.80" waitingTime="11.00" waitingCount="1" stopTime="0.00" timeLoss="31.29" rerouteNo="0" devices="tripinfo_flow_route_100_duration_20250327_2010.3" vType="car" speedFactor="0.95" vaporized=""/>
    <tripinfo id="flow_route_106_duration_20250327_2010.11" depart="51.00" departLane="1254519229#0_0" departPos="56.67" departSpeed="0.00" departDelay="0.24" arrival="89.00" arrivalLane="430416184_1" arrivalPos="225.86" arrivalSpeed="16.17" duration="38.00" routeLength="269.87" waitingTime="2.00" waitingCount="2" stopTime="0.00" timeLoss="20.53" rerouteNo="0" devices="tripinfo_flow_route_106_duration_20250327_2010.11" vType="car" speedFactor="0.90" vaporized=""/>
    <tripinfo id="flow_route_149_duration_20250327_2010.1" depart="20.00" departLane="186410975#0_0" departPos="248.96" departSpeed="0.00" departDelay="0.00" arrival="90.00" arrivalLane="430416184_1" arrivalPos="36.26" arrivalSpeed="10.01" duration="70.00" routeLength="332.97" waitingTime="24.00" waitingCount="1" stopTime="0.00" timeLoss="46.69" rerouteNo="0" devices="tripinfo_flow_route_149_duration_20250327_2010.1" vType="car" speedFactor="0.94" vaporized=""/>
    <tripinfo id="flow_route_106_duration_20250327_2010.6" depart="28.00" departLane="1254519229#0_0" departPos="24.49" departSpeed="0.00" departDelay="0.31" arrival="90.00" arrivalLane="430416184_1" arrivalPos="270.41" arrivalSpeed="16.21" duration="62.00" routeLength="346.60" waitingTime="6.00" waitingCount="2" stopTime="0.00" timeLoss="40.13" rerouteNo="0" devices="tripinfo_flow_route_106_duration_20250327_2010.6" vType="car" speedFactor="0.97" vaporized=""/>
    <tripinfo id="flow_route_149_duration_20250327_2010.2" depart="40.00" departLane="186410975#0_0" departPos="109.24" departSpeed="0.00" departDelay="0.00" arrival="95.00" arrivalLane="430416184_1" arrivalPos="61.41" arrivalSpeed="12.13" duration="55.00" routeLength="497.85" waitingTime="0.00" waitingCount="0" stopTime="0.00" timeLoss="20.31" rerouteNo="0" devices="tripinfo_flow_route_149_duration_20250327_2010.2" vType="car" speedFactor="1.15" vaporized=""/>
    <tripinfo id="flow_route_149_duration_20250327_2010.0" depart="0.00" departLane="186410975#0_0" departPos="192.32" departSpeed="0.00" departDelay="0.00" arrival="98.00" arrivalLane="430416184_1" arrivalPos="170.61" arrivalSpeed="16.54" duration="98.00" routeLength="523.96" waitingTime="41.00" waitingCount="1" stopTime="0.00" timeLoss="62.15" rerouteNo="0" devices="tripinfo_flow_route_149_duration_20250327_2010.0" vType="car" speedFactor="1.03" vaporized=""/>
    <tripinfo id="flow_route_107_duration_20250327_2010.7" depart="44.00" departLane="1254519229#0_0" departPos="8.33" departSpeed="0.00" departDelay="2.00" arrival="113.00" arrivalLane="1342963997_0" arrivalPos="92.08" arrivalSpeed="13.04" duration="69.00" routeLength="184.33" waitingTime="21.00" waitingCount="2" stopTime="0.00" timeLoss="57.72" rerouteNo="0" devices="tripinfo_flow_route_107_duration_20250327_2010.7" vType="car" speedFactor="1.17" vaporized=""/>
    <tripinfo id="flow_route_101_duration_20250327_2010.8" depart="44.00" departLane="186409193_0" departPos="1.39" departSpeed="0.00" departDelay="4.00" arrival="114.00" arrivalLane="430416184_0" arrivalPos="83.88" arrivalSpeed="11.60" duration="70.00" routeLength="216.98" waitingTime="31.00" waitingCount="1" stopTime="0.00" timeLoss="56.14" rerouteNo="0" devices="tripinfo_flow_route_101_duration_20250327_2010.8" vType="car" speedFactor="1.18" vaporized=""/>
    <tripinfo id="flow_route_106_duration_20250327_2010.9" depart="44.00" departLane="1254519229#0_0" departPos="24.09" departSpeed="0.00" departDelay="2.47" arrival="121.00" arrivalLane="430416184_1" arrivalPos="112.71" arrivalSpeed="13.97" duration="77.00" routeLength="189.30" waitingTime="28.00" waitingCount="3" stopTime="0.00" timeLoss="64.72" rerouteNo="0" devices="tripinfo_flow_route_106_duration_20250327_2010.9" vType="car" speedFactor="1.01" vaporized=""/>
    <tripinfo id="flow_route_101_duration_20250327_2010.9" depart="47.00" departLane="186409193_0" departPos="24.83" departSpeed="0.00" departDelay="2.00" arrival="123.00" arrivalLane="430416184_0" arrivalPos="253.20" arrivalSpeed="16.28" duration="76.00" routeLength="362.86" waitingTime="32.00" waitingCount="1" stopTime="0.00" timeLoss="52.82" rerouteNo="0" devices="tripinfo_flow_route_101_duration_20250327_2010.9" vType="car" speedFactor="0.99" vaporized=""/>
    <tripinfo id="flow_route_101_duration_20250327_2010.10" depart="52.00" departLane="186409193_0" departPos="7.26" departSpeed="0.00" departDelay="2.00" arrival="124.00" arrivalLane="430416184_0" arrivalPos="202.28" arrivalSpeed="16.17" duration="72.00" routeLength="329.52" waitingTime="29.00" waitingCount="1" stopTime="0.00" timeLoss="50.98" rerouteNo="0" devices="tripinfo_flow_route_101_duration_20250327_2010.10" vType="car" speedFactor="1.10" vaporized=""/>
    <tripinfo id="flow_route_106_duration_20250327_2010.12" depart="56.00" departLane="1254519229#0_0" departPos="31.09" departSpeed="0.00" departDelay="0.62" arrival="125.00" arrivalLane="430416184_1" arrivalPos="138.82" arrivalSpeed="15.20" duration="69.00" routeLength="208.41" waitingTime="22.00" waitingCount="3" stopTime="0.00" timeLoss="55.74" rerouteNo="0" devices="tripinfo_flow_route_106_duration_20250327_2010.12" vType="car" speedFactor="1.09" vaporized=""/>
    <tripinfo id="flow_route_101_duration_20250327_2010.11" depart="56.00" departLane="186409193_0" departPos="2.49" departSpeed="0.00" departDelay="1.00" arrival="130.00" arrivalLane="430416184_0" arrivalPos="255.07" arrivalSpeed="16.37" duration="74.00" routeLength="387.08" waitingTime="24.00" waitingCount="1" stopTime="0.00" timeLoss="49.08" rerouteNo="0" devices="tripinfo_flow_route_101_duration_20250327_2010.11" vType="car" speedFactor="0.96" vaporized=""/>
    <tripinfo id="flow_route_100_duration_20250327_2010.4" depart="50.00" departLane="186409193_0" departPos="5.93" departSpeed="0.00" departDelay="2.00" arrival="143.00" arrivalLane="1254519229#0_1" arrivalPos="36.27" arrivalSpeed="8.29" duration="93.00" routeLength="261.96" waitingTime="46.00" waitingCount="2" stopTime="0.00" timeLoss="75.95" rerouteNo="0" devices="tripinfo_flow_route_100_duration_20250327_2010.4" vType="car" speedFactor="0.97" vaporized=""/>
</tripinfos>
