<?xml version="1.0" encoding="UTF-8"?>

<!-- generated on 2025-05-06 21:09:18 by Eclipse SUMO sumo Version 1.20.0
<configuration xmlns:xsi="http://www.w3.org/2001/XMLSchema-instance" xsi:noNamespaceSchemaLocation="http://sumo.dlr.de/xsd/sumoConfiguration.xsd">

    <input>
        <net-file value="osm.net.xml"/>
        <route-files value="xml/route_static_J7_9.rou.xml"/>
    </input>

    <output>
        <tripinfo-output value="xml/tripinfo_static_J7_9.xml"/>
    </output>

    <traci_server>
        <remote-port value="47863"/>
    </traci_server>

</configuration>
-->

<tripinfos xmlns:xsi="http://www.w3.org/2001/XMLSchema-instance" xsi:noNamespaceSchemaLocation="http://sumo.dlr.de/xsd/tripinfo_file.xsd">
    <tripinfo id="flow_route_127_duration_20250327_2220.1" depart="6.00" departLane="-138000461_0" departPos="198.45" departSpeed="0.00" departDelay="0.55" arrival="24.00" arrivalLane="189240000#0-AddedOnRampEdge_0" arrivalPos="59.81" arrivalSpeed="13.53" duration="18.00" routeLength="120.47" waitingTime="0.00" waitingCount="0" stopTime="0.00" timeLoss="9.51" rerouteNo="0" devices="tripinfo_flow_route_127_duration_20250327_2220.1" vType="car" speedFactor="1.03" vaporized=""/>
    <tripinfo id="flow_route_131_duration_20250327_2220.0" depart="0.00" departLane="714011134#0_0" departPos="6.35" departSpeed="0.00" departDelay="0.00" arrival="26.00" arrivalLane="134194079#0_1" arrivalPos="73.02" arrivalSpeed="14.32" duration="26.00" routeLength="232.63" waitingTime="0.00" waitingCount="0" stopTime="0.00" timeLoss="10.06" rerouteNo="0" devices="tripinfo_flow_route_131_duration_20250327_2220.0" vType="car" speedFactor="0.89" vaporized=""/>
    <tripinfo id="flow_route_127_duration_20250327_2220.0" depart="0.00" departLane="-138000461_0" departPos="55.90" departSpeed="0.00" departDelay="0.00" arrival="31.00" arrivalLane="189240000#0-AddedOnRampEdge_0" arrivalPos="70.17" arrivalSpeed="13.78" duration="31.00" routeLength="273.38" waitingTime="0.00" waitingCount="0" stopTime="0.00" timeLoss="14.02" rerouteNo="0" devices="tripinfo_flow_route_127_duration_20250327_2220.0" vType="car" speedFactor="1.05" vaporized=""/>
    <tripinfo id="flow_route_132_duration_20250327_2220.0" depart="0.00" departLane="714011134#0_0" departPos="92.28" departSpeed="0.00" departDelay="0.00" arrival="34.00" arrivalLane="189240000#0-AddedOnRampEdge_1" arrivalPos="51.48" arrivalSpeed="15.25" duration="34.00" routeLength="375.34" waitingTime="0.00" waitingCount="0" stopTime="0.00" timeLoss="9.97" rerouteNo="0" devices="tripinfo_flow_route_132_duration_20250327_2220.0" vType="car" speedFactor="0.94" vaporized=""/>
    <tripinfo id="flow_route_121_duration_20250327_2220.0" depart="1.00" departLane="799091563#0_0" departPos="259.58" departSpeed="0.00" departDelay="1.00" arrival="36.00" arrivalLane="134194079#0_0" arrivalPos="144.99" arrivalSpeed="15.18" duration="35.00" routeLength="274.57" waitingTime="0.00" waitingCount="0" stopTime="0.00" timeLoss="17.13" rerouteNo="0" devices="tripinfo_flow_route_121_duration_20250327_2220.0" vType="car" speedFactor="1.08" vaporized=""/>
    <tripinfo id="flow_route_116_duration_20250327_2220.0" depart="0.00" departLane="177211987#1_0" departPos="0.88" departSpeed="0.00" departDelay="0.00" arrival="38.00" arrivalLane="688883939#0_0" arrivalPos="93.94" arrivalSpeed="16.57" duration="38.00" routeLength="448.08" waitingTime="0.00" waitingCount="0" stopTime="0.00" timeLoss="10.49" rerouteNo="0" devices="tripinfo_flow_route_116_duration_20250327_2220.0" vType="car" speedFactor="1.06" vaporized=""/>
    <tripinfo id="flow_route_127_duration_20250327_2220.4" depart="22.00" departLane="-138000461_0" departPos="197.60" departSpeed="0.00" departDelay="0.18" arrival="41.00" arrivalLane="189240000#0-AddedOnRampEdge_0" arrivalPos="65.29" arrivalSpeed="13.12" duration="19.00" routeLength="126.80" waitingTime="0.00" waitingCount="0" stopTime="0.00" timeLoss="9.26" rerouteNo="0" devices="tripinfo_flow_route_127_duration_20250327_2220.4" vType="car" speedFactor="0.83" vaporized=""/>
    <tripinfo id="flow_route_132_duration_20250327_2220.1" depart="7.00" departLane="714011134#0_0" departPos="93.55" departSpeed="0.00" departDelay="0.33" arrival="43.00" arrivalLane="189240000#0-AddedOnRampEdge_1" arrivalPos="77.82" arrivalSpeed="16.35" duration="36.00" routeLength="400.42" waitingTime="0.00" waitingCount="0" stopTime="0.00" timeLoss="10.92" rerouteNo="0" devices="tripinfo_flow_route_132_duration_20250327_2220.1" vType="car" speedFactor="1.05" vaporized=""/>
    <tripinfo id="flow_route_127_duration_20250327_2220.5" depart="28.00" departLane="-138000461_0" departPos="196.14" departSpeed="0.00" departDelay="0.73" arrival="44.00" arrivalLane="189240000#0-AddedOnRampEdge_0" arrivalPos="26.33" arrivalSpeed="11.43" duration="16.00" routeLength="89.30" waitingTime="0.00" waitingCount="0" stopTime="0.00" timeLoss="9.77" rerouteNo="0" devices="tripinfo_flow_route_127_duration_20250327_2220.5" vType="car" speedFactor="1.18" vaporized=""/>
    <tripinfo id="flow_route_127_duration_20250327_2220.3" depart="18.00" departLane="-138000461_0" departPos="120.80" departSpeed="0.00" departDelay="1.64" arrival="45.00" arrivalLane="189240000#0-AddedOnRampEdge_0" arrivalPos="24.93" arrivalSpeed="11.42" duration="27.00" routeLength="163.24" waitingTime="0.00" waitingCount="0" stopTime="0.00" timeLoss="16.84" rerouteNo="0" devices="tripinfo_flow_route_127_duration_20250327_2220.3" vType="car" speedFactor="1.02" vaporized=""/>
    <tripinfo id="flow_route_127_duration_20250327_2220.2" depart="11.00" departLane="-138000461_0" departPos="6.85" departSpeed="0.00" departDelay="0.09" arrival="47.00" arrivalLane="189240000#0-AddedOnRampEdge_0" arrivalPos="22.35" arrivalSpeed="10.79" duration="36.00" routeLength="274.61" waitingTime="0.00" waitingCount="0" stopTime="0.00" timeLoss="18.75" rerouteNo="0" devices="tripinfo_flow_route_127_duration_20250327_2220.2" vType="car" speedFactor="0.99" vaporized=""/>
    <tripinfo id="flow_route_126_duration_20250327_2220.0" depart="0.00" departLane="-138000461_0" departPos="119.67" departSpeed="0.00" departDelay="0.00" arrival="52.00" arrivalLane="138000492#0_1" arrivalPos="18.35" arrivalSpeed="13.77" duration="52.00" routeLength="582.25" waitingTime="0.00" waitingCount="0" stopTime="0.00" timeLoss="9.29" rerouteNo="0" devices="tripinfo_flow_route_126_duration_20250327_2220.0" vType="car" speedFactor="0.83" vaporized=""/>
    <tripinfo id="flow_route_132_duration_20250327_2220.3" depart="20.00" departLane="714011134#0_0" departPos="62.84" departSpeed="0.00" departDelay="0.00" arrival="57.00" arrivalLane="189240000#0-AddedOnRampEdge_1" arrivalPos="63.08" arrivalSpeed="14.66" duration="37.00" routeLength="416.38" waitingTime="0.00" waitingCount="0" stopTime="0.00" timeLoss="8.64" rerouteNo="0" devices="tripinfo_flow_route_132_duration_20250327_2220.3" vType="car" speedFactor="0.89" vaporized=""/>
    <tripinfo id="flow_route_132_duration_20250327_2220.2" depart="14.00" departLane="714011134#0_0" departPos="13.63" departSpeed="0.00" departDelay="0.67" arrival="58.00" arrivalLane="189240000#0-AddedOnRampEdge_2" arrivalPos="64.68" arrivalSpeed="15.57" duration="44.00" routeLength="467.18" waitingTime="0.00" waitingCount="0" stopTime="0.00" timeLoss="13.88" rerouteNo="0" devices="tripinfo_flow_route_132_duration_20250327_2220.2" vType="car" speedFactor="0.94" vaporized=""/>
    <tripinfo id="flow_route_133_duration_20250327_2220.0" depart="0.00" departLane="714011134#0_0" departPos="33.93" departSpeed="0.00" departDelay="0.00" arrival="59.00" arrivalLane="138000492#0_0" arrivalPos="313.58" arrivalSpeed="14.16" duration="59.00" routeLength="604.48" waitingTime="0.00" waitingCount="0" stopTime="0.00" timeLoss="15.90" rerouteNo="0" devices="tripinfo_flow_route_133_duration_20250327_2220.0" vType="car" speedFactor="0.86" vaporized=""/>
    <tripinfo id="flow_route_127_duration_20250327_2220.8" depart="44.00" departLane="-138000461_0" departPos="185.03" departSpeed="0.00" departDelay="0.37" arrival="60.00" arrivalLane="189240000#0-AddedOnRampEdge_0" arrivalPos="9.89" arrivalSpeed="10.84" duration="16.00" routeLength="83.97" waitingTime="0.00" waitingCount="0" stopTime="0.00" timeLoss="9.92" rerouteNo="0" devices="tripinfo_flow_route_127_duration_20250327_2220.8" vType="car" speedFactor="1.09" vaporized=""/>
    <tripinfo id="flow_route_117_duration_20250327_2220.0" depart="0.00" departLane="177211987#1_0" departPos="98.51" departSpeed="0.00" departDelay="0.00" arrival="63.00" arrivalLane="138000492#0_0" arrivalPos="299.85" arrivalSpeed="15.18" duration="63.00" routeLength="701.60" waitingTime="0.00" waitingCount="0" stopTime="0.00" timeLoss="17.11" rerouteNo="0" devices="tripinfo_flow_route_117_duration_20250327_2220.0" vType="car" speedFactor="0.94" vaporized=""/>
    <tripinfo id="flow_route_127_duration_20250327_2220.6" depart="33.00" departLane="-138000461_0" departPos="43.78" departSpeed="0.00" departDelay="0.28" arrival="63.00" arrivalLane="189240000#0-AddedOnRampEdge_0" arrivalPos="8.12" arrivalSpeed="11.20" duration="30.00" routeLength="223.45" waitingTime="0.00" waitingCount="0" stopTime="0.00" timeLoss="16.04" rerouteNo="0" devices="tripinfo_flow_route_127_duration_20250327_2220.6" vType="car" speedFactor="1.17" vaporized=""/>
    <tripinfo id="flow_route_127_duration_20250327_2220.7" depart="39.00" departLane="-138000461_0" departPos="129.99" departSpeed="0.00" departDelay="0.82" arrival="64.00" arrivalLane="189240000#0-AddedOnRampEdge_0" arrivalPos="39.96" arrivalSpeed="13.08" duration="25.00" routeLength="169.07" waitingTime="0.00" waitingCount="0" stopTime="0.00" timeLoss="13.86" rerouteNo="0" devices="tripinfo_flow_route_127_duration_20250327_2220.7" vType="car" speedFactor="1.10" vaporized=""/>
    <tripinfo id="flow_route_122_duration_20250327_2220.1" depart="17.00" departLane="799091563#0_0" departPos="84.73" departSpeed="0.00" departDelay="2.00" arrival="65.00" arrivalLane="688883939#0_2" arrivalPos="13.22" arrivalSpeed="10.79" duration="48.00" routeLength="367.13" waitingTime="5.00" waitingCount="1" stopTime="0.00" timeLoss="25.83" rerouteNo="0" devices="tripinfo_flow_route_122_duration_20250327_2220.1" vType="car" speedFactor="1.16" vaporized=""/>
    <tripinfo id="flow_route_132_duration_20250327_2220.4" depart="27.00" departLane="714011134#0_0" departPos="16.00" departSpeed="0.00" departDelay="0.34" arrival="67.00" arrivalLane="189240000#0-AddedOnRampEdge_1" arrivalPos="60.58" arrivalSpeed="16.19" duration="40.00" routeLength="460.72" waitingTime="0.00" waitingCount="0" stopTime="0.00" timeLoss="11.35" rerouteNo="0" devices="tripinfo_flow_route_132_duration_20250327_2220.4" vType="car" speedFactor="1.13" vaporized=""/>
    <tripinfo id="flow_route_122_duration_20250327_2220.0" depart="1.00" departLane="799091563#0_0" departPos="17.54" departSpeed="0.00" departDelay="1.00" arrival="68.00" arrivalLane="688883939#0_2" arrivalPos="62.20" arrivalSpeed="13.88" duration="67.00" routeLength="483.30" waitingTime="15.00" waitingCount="1" stopTime="0.00" timeLoss="37.21" rerouteNo="0" devices="tripinfo_flow_route_122_duration_20250327_2220.0" vType="car" speedFactor="1.03" vaporized=""/>
    <tripinfo id="flow_route_122_duration_20250327_2220.2" depart="31.00" departLane="799091563#0_0" departPos="119.18" departSpeed="0.00" departDelay="1.00" arrival="68.00" arrivalLane="688883939#0_2" arrivalPos="18.87" arrivalSpeed="12.22" duration="37.00" routeLength="338.33" waitingTime="0.00" waitingCount="0" stopTime="0.00" timeLoss="16.02" rerouteNo="0" devices="tripinfo_flow_route_122_duration_20250327_2220.2" vType="car" speedFactor="1.15" vaporized=""/>
    <tripinfo id="flow_route_121_duration_20250327_2220.4" depart="19.00" departLane="799091563#0_0" departPos="308.22" departSpeed="0.00" departDelay="0.54" arrival="69.00" arrivalLane="134194079#0_0" arrivalPos="71.21" arrivalSpeed="11.31" duration="50.00" routeLength="152.16" waitingTime="19.00" waitingCount="1" stopTime="0.00" timeLoss="39.57" rerouteNo="0" devices="tripinfo_flow_route_121_duration_20250327_2220.4" vType="car" speedFactor="1.01" vaporized=""/>
    <tripinfo id="flow_route_121_duration_20250327_2220.3" depart="14.00" departLane="799091563#0_0" departPos="125.80" departSpeed="0.00" departDelay="0.16" arrival="71.00" arrivalLane="134194079#0_0" arrivalPos="8.80" arrivalSpeed="6.10" duration="57.00" routeLength="272.15" waitingTime="15.00" waitingCount="1" stopTime="0.00" timeLoss="38.08" rerouteNo="0" devices="tripinfo_flow_route_121_duration_20250327_2220.3" vType="car" speedFactor="0.94" vaporized=""/>
    <tripinfo id="flow_route_121_duration_20250327_2220.5" depart="24.00" departLane="799091563#0_0" departPos="362.60" departSpeed="0.00" departDelay="0.93" arrival="73.00" arrivalLane="134194079#0_0" arrivalPos="145.32" arrivalSpeed="15.56" duration="49.00" routeLength="171.88" waitingTime="21.00" waitingCount="1" stopTime="0.00" timeLoss="36.18" rerouteNo="0" devices="tripinfo_flow_route_121_duration_20250327_2220.5" vType="car" speedFactor="0.95" vaporized=""/>
    <tripinfo id="flow_route_127_duration_20250327_2220.9" depart="50.00" departLane="-138000461_0" departPos="139.86" departSpeed="0.00" departDelay="0.91" arrival="74.00" arrivalLane="189240000#0-AddedOnRampEdge_0" arrivalPos="44.03" arrivalSpeed="11.56" duration="24.00" routeLength="163.27" waitingTime="0.00" waitingCount="0" stopTime="0.00" timeLoss="12.13" rerouteNo="0" devices="tripinfo_flow_route_127_duration_20250327_2220.9" vType="car" speedFactor="0.88" vaporized=""/>
    <tripinfo id="flow_route_121_duration_20250327_2220.2" depart="10.00" departLane="799091563#0_0" departPos="206.69" departSpeed="0.00" departDelay="0.77" arrival="75.00" arrivalLane="134194079#0_0" arrivalPos="117.00" arrivalSpeed="14.58" duration="65.00" routeLength="299.47" waitingTime="19.00" waitingCount="1" stopTime="0.00" timeLoss="45.52" rerouteNo="0" devices="tripinfo_flow_route_121_duration_20250327_2220.2" vType="car" speedFactor="1.12" vaporized=""/>
    <tripinfo id="flow_route_121_duration_20250327_2220.6" depart="29.00" departLane="799091563#0_0" departPos="25.43" departSpeed="0.00" departDelay="1.31" arrival="79.00" arrivalLane="134194079#0_0" arrivalPos="8.21" arrivalSpeed="6.47" duration="50.00" routeLength="371.94" waitingTime="0.00" waitingCount="0" stopTime="0.00" timeLoss="24.47" rerouteNo="0" devices="tripinfo_flow_route_121_duration_20250327_2220.6" vType="car" speedFactor="0.93" vaporized=""/>
    <tripinfo id="flow_route_121_duration_20250327_2220.8" depart="37.00" departLane="799091563#0_0" departPos="257.71" departSpeed="0.00" departDelay="0.08" arrival="79.00" arrivalLane="134194079#0_0" arrivalPos="62.65" arrivalSpeed="11.72" duration="42.00" routeLength="194.10" waitingTime="5.00" waitingCount="1" stopTime="0.00" timeLoss="28.83" rerouteNo="0" devices="tripinfo_flow_route_121_duration_20250327_2220.8" vType="car" speedFactor="1.18" vaporized=""/>
    <tripinfo id="flow_route_121_duration_20250327_2220.1" depart="5.00" departLane="799091563#0_0" departPos="116.60" departSpeed="0.00" departDelay="0.39" arrival="80.00" arrivalLane="134194079#0_0" arrivalPos="151.34" arrivalSpeed="16.03" duration="75.00" routeLength="423.90" waitingTime="18.00" waitingCount="1" stopTime="0.00" timeLoss="48.39" rerouteNo="0" devices="tripinfo_flow_route_121_duration_20250327_2220.1" vType="car" speedFactor="1.09" vaporized=""/>
    <tripinfo id="flow_route_120_duration_20250327_2220.0" depart="0.00" departLane="799091563#0_0" departPos="177.01" departSpeed="0.00" departDelay="0.00" arrival="83.00" arrivalLane="138000492#0_1" arrivalPos="19.14" arrivalSpeed="11.00" duration="83.00" routeLength="440.29" waitingTime="22.00" waitingCount="3" stopTime="0.00" timeLoss="56.36" rerouteNo="0" devices="tripinfo_flow_route_120_duration_20250327_2220.0" vType="car" speedFactor="1.01" vaporized=""/>
    <tripinfo id="flow_route_122_duration_20250327_2220.3" depart="46.00" departLane="799091563#0_0" departPos="187.08" departSpeed="0.00" departDelay="1.00" arrival="84.00" arrivalLane="688883939#0_2" arrivalPos="65.92" arrivalSpeed="15.12" duration="38.00" routeLength="317.48" waitingTime="0.00" waitingCount="0" stopTime="0.00" timeLoss="18.48" rerouteNo="0" devices="tripinfo_flow_route_122_duration_20250327_2220.3" vType="car" speedFactor="1.04" vaporized=""/>
    <tripinfo id="flow_route_121_duration_20250327_2220.7" depart="33.00" departLane="799091563#0_0" departPos="215.36" departSpeed="0.00" departDelay="0.70" arrival="85.00" arrivalLane="134194079#0_0" arrivalPos="100.02" arrivalSpeed="13.12" duration="52.00" routeLength="273.82" waitingTime="4.00" waitingCount="1" stopTime="0.00" timeLoss="34.36" rerouteNo="0" devices="tripinfo_flow_route_121_duration_20250327_2220.7" vType="car" speedFactor="1.01" vaporized=""/>
    <tripinfo id="flow_route_127_duration_20250327_2220.10" depart="55.00" departLane="-138000461_0" departPos="29.83" departSpeed="0.00" departDelay="0.46" arrival="86.00" arrivalLane="189240000#0-AddedOnRampEdge_0" arrivalPos="67.34" arrivalSpeed="14.82" duration="31.00" routeLength="296.62" waitingTime="0.00" waitingCount="0" stopTime="0.00" timeLoss="12.40" rerouteNo="0" devices="tripinfo_flow_route_127_duration_20250327_2220.10" vType="car" speedFactor="1.17" vaporized=""/>
    <tripinfo id="flow_route_120_duration_20250327_2220.2" depart="24.00" departLane="799091563#0_0" departPos="63.94" departSpeed="0.00" departDelay="0.00" arrival="95.00" arrivalLane="138000492#0_2" arrivalPos="129.53" arrivalSpeed="15.19" duration="71.00" routeLength="663.74" waitingTime="0.00" waitingCount="0" stopTime="0.00" timeLoss="26.99" rerouteNo="0" devices="tripinfo_flow_route_120_duration_20250327_2220.2" vType="car" speedFactor="0.92" vaporized=""/>
    <tripinfo id="flow_route_121_duration_20250327_2220.10" depart="48.00" departLane="799091563#0_0" departPos="112.52" departSpeed="0.00" departDelay="1.85" arrival="99.00" arrivalLane="134194079#0_0" arrivalPos="125.41" arrivalSpeed="14.95" duration="51.00" routeLength="402.06" waitingTime="0.00" waitingCount="0" stopTime="0.00" timeLoss="25.38" rerouteNo="0" devices="tripinfo_flow_route_121_duration_20250327_2220.10" vType="car" speedFactor="1.04" vaporized=""/>
    <tripinfo id="flow_route_120_duration_20250327_2220.1" depart="12.00" departLane="799091563#0_0" departPos="363.24" departSpeed="0.00" departDelay="0.00" arrival="100.00" arrivalLane="138000492#0_0" arrivalPos="321.73" arrivalSpeed="14.24" duration="88.00" routeLength="556.66" waitingTime="31.00" waitingCount="1" stopTime="0.00" timeLoss="49.44" rerouteNo="0" devices="tripinfo_flow_route_120_duration_20250327_2220.1" vType="car" speedFactor="0.88" vaporized=""/>
    <tripinfo id="flow_route_121_duration_20250327_2220.9" depart="42.00" departLane="799091563#0_0" departPos="9.05" departSpeed="0.00" departDelay="0.47" arrival="103.00" arrivalLane="134194079#0_0" arrivalPos="107.73" arrivalSpeed="13.75" duration="61.00" routeLength="487.84" waitingTime="0.00" waitingCount="0" stopTime="0.00" timeLoss="28.84" rerouteNo="0" devices="tripinfo_flow_route_121_duration_20250327_2220.9" vType="car" speedFactor="0.96" vaporized=""/>
    <tripinfo id="flow_route_121_duration_20250327_2220.12" depart="57.00" departLane="799091563#0_0" departPos="182.27" departSpeed="0.00" departDelay="1.62" arrival="105.00" arrivalLane="134194079#0_0" arrivalPos="260.21" arrivalSpeed="16.35" duration="48.00" routeLength="467.09" waitingTime="0.00" waitingCount="0" stopTime="0.00" timeLoss="17.65" rerouteNo="0" devices="tripinfo_flow_route_121_duration_20250327_2220.12" vType="car" speedFactor="1.02" vaporized=""/>
    <tripinfo id="flow_route_120_duration_20250327_2220.3" depart="36.00" departLane="799091563#0_0" departPos="110.13" departSpeed="0.00" departDelay="0.00" arrival="107.00" arrivalLane="138000492#0_2" arrivalPos="303.79" arrivalSpeed="16.04" duration="71.00" routeLength="791.82" waitingTime="0.00" waitingCount="0" stopTime="0.00" timeLoss="21.91" rerouteNo="0" devices="tripinfo_flow_route_120_duration_20250327_2220.3" vType="car" speedFactor="0.97" vaporized=""/>
    <tripinfo id="flow_route_121_duration_20250327_2220.11" depart="51.00" departLane="799091563#0_0" departPos="106.78" departSpeed="0.00" departDelay="0.24" arrival="110.00" arrivalLane="134194079#0_0" arrivalPos="230.41" arrivalSpeed="13.91" duration="59.00" routeLength="512.79" waitingTime="0.00" waitingCount="0" stopTime="0.00" timeLoss="20.71" rerouteNo="0" devices="tripinfo_flow_route_121_duration_20250327_2220.11" vType="car" speedFactor="0.85" vaporized=""/>
    <tripinfo id="flow_route_120_duration_20250327_2220.4" depart="48.00" departLane="799091563#0_0" departPos="265.61" departSpeed="0.00" departDelay="0.00" arrival="117.00" arrivalLane="138000492#0_0" arrivalPos="408.84" arrivalSpeed="14.67" duration="69.00" routeLength="741.39" waitingTime="0.00" waitingCount="0" stopTime="0.00" timeLoss="18.80" rerouteNo="0" devices="tripinfo_flow_route_120_duration_20250327_2220.4" vType="car" speedFactor="0.90" vaporized=""/>
    <tripinfo id="flow_route_116_duration_20250327_2220.1" depart="20.00" departLane="177211987#1_0" departPos="104.74" departSpeed="0.00" departDelay="0.00" arrival="139.00" arrivalLane="688883939#0_0" arrivalPos="9.39" arrivalSpeed="10.47" duration="119.00" routeLength="259.67" waitingTime="80.00" waitingCount="1" stopTime="0.00" timeLoss="102.58" rerouteNo="0" devices="tripinfo_flow_route_116_duration_20250327_2220.1" vType="car" speedFactor="0.97" vaporized=""/>
    <tripinfo id="flow_route_116_duration_20250327_2220.2" depart="43.00" departLane="177211987#1_0" departPos="44.31" departSpeed="0.00" departDelay="3.00" arrival="141.00" arrivalLane="688883939#0_1" arrivalPos="41.09" arrivalSpeed="11.34" duration="98.00" routeLength="351.80" waitingTime="51.00" waitingCount="1" stopTime="0.00" timeLoss="74.53" rerouteNo="0" devices="tripinfo_flow_route_116_duration_20250327_2220.2" vType="car" speedFactor="0.90" vaporized=""/>
    <tripinfo id="flow_route_132_duration_20250327_2220.6" depart="40.00" departLane="714011134#0_0" departPos="61.65" departSpeed="0.00" departDelay="0.00" arrival="157.00" arrivalLane="189240000#0-AddedOnRampEdge_1" arrivalPos="48.42" arrivalSpeed="16.23" duration="117.00" routeLength="402.90" waitingTime="74.00" waitingCount="1" stopTime="0.00" timeLoss="92.70" rerouteNo="0" devices="tripinfo_flow_route_132_duration_20250327_2220.6" vType="car" speedFactor="1.03" vaporized=""/>
    <tripinfo id="flow_route_132_duration_20250327_2220.5" depart="34.00" departLane="714011134#0_0" departPos="4.94" departSpeed="0.00" departDelay="0.67" arrival="158.00" arrivalLane="189240000#0-AddedOnRampEdge_1" arrivalPos="17.06" arrivalSpeed="16.57" duration="124.00" routeLength="428.26" waitingTime="71.00" waitingCount="1" stopTime="0.00" timeLoss="97.33" rerouteNo="0" devices="tripinfo_flow_route_132_duration_20250327_2220.5" vType="car" speedFactor="0.99" vaporized=""/>
    <tripinfo id="flow_route_117_duration_20250327_2220.3" depart="36.00" departLane="177211987#1_0" departPos="51.50" departSpeed="0.00" departDelay="0.00" arrival="158.00" arrivalLane="138000492#0_2" arrivalPos="33.67" arrivalSpeed="12.73" duration="122.00" routeLength="482.43" waitingTime="66.00" waitingCount="1" stopTime="0.00" timeLoss="92.51" rerouteNo="0" devices="tripinfo_flow_route_117_duration_20250327_2220.3" vType="car" speedFactor="1.02" vaporized=""/>
    <tripinfo id="flow_route_117_duration_20250327_2220.1" depart="12.00" departLane="177211987#1_0" departPos="23.29" departSpeed="0.00" departDelay="0.00" arrival="161.00" arrivalLane="138000492#0_1" arrivalPos="126.99" arrivalSpeed="15.36" duration="149.00" routeLength="603.97" waitingTime="80.00" waitingCount="1" stopTime="0.00" timeLoss="109.29" rerouteNo="0" devices="tripinfo_flow_route_117_duration_20250327_2220.1" vType="car" speedFactor="0.93" vaporized=""/>
    <tripinfo id="flow_route_132_duration_20250327_2220.7" depart="48.00" departLane="714011134#0_0" departPos="43.32" departSpeed="0.00" departDelay="1.34" arrival="163.00" arrivalLane="189240000#0-AddedOnRampEdge_1" arrivalPos="67.10" arrivalSpeed="16.28" duration="115.00" routeLength="439.92" waitingTime="67.00" waitingCount="1" stopTime="0.00" timeLoss="87.60" rerouteNo="0" devices="tripinfo_flow_route_132_duration_20250327_2220.7" vType="car" speedFactor="1.09" vaporized=""/>
    <tripinfo id="flow_route_132_duration_20250327_2220.8" depart="54.00" departLane="714011134#0_0" departPos="13.10" departSpeed="0.00" departDelay="0.67" arrival="167.00" arrivalLane="189240000#0-AddedOnRampEdge_1" arrivalPos="67.24" arrivalSpeed="13.77" duration="113.00" routeLength="470.28" waitingTime="60.00" waitingCount="1" stopTime="0.00" timeLoss="79.12" rerouteNo="0" devices="tripinfo_flow_route_132_duration_20250327_2220.8" vType="car" speedFactor="0.85" vaporized=""/>
    <tripinfo id="flow_route_117_duration_20250327_2220.4" depart="49.00" departLane="177211987#1_0" departPos="14.86" departSpeed="0.00" departDelay="1.00" arrival="177.00" arrivalLane="138000492#0_1" arrivalPos="241.42" arrivalSpeed="16.56" duration="128.00" routeLength="726.82" waitingTime="52.00" waitingCount="1" stopTime="0.00" timeLoss="83.53" rerouteNo="0" devices="tripinfo_flow_route_117_duration_20250327_2220.4" vType="car" speedFactor="1.00" vaporized=""/>
    <tripinfo id="flow_route_117_duration_20250327_2220.2" depart="25.00" departLane="177211987#1_0" departPos="26.84" departSpeed="0.00" departDelay="1.00" arrival="185.00" arrivalLane="138000492#0_0" arrivalPos="403.98" arrivalSpeed="14.43" duration="160.00" routeLength="877.40" waitingTime="73.00" waitingCount="1" stopTime="0.00" timeLoss="99.26" rerouteNo="0" devices="tripinfo_flow_route_117_duration_20250327_2220.2" vType="car" speedFactor="0.87" vaporized=""/>
</tripinfos>
