<?xml version="1.0" encoding="UTF-8"?>

<!-- generated on 2025-05-06 21:08:32 by Eclipse SUMO sumo Version 1.20.0
<configuration xmlns:xsi="http://www.w3.org/2001/XMLSchema-instance" xsi:noNamespaceSchemaLocation="http://sumo.dlr.de/xsd/sumoConfiguration.xsd">

    <input>
        <net-file value="osm.net.xml"/>
        <route-files value="xml/route_rl_cluster_11648561428_407729599_5.rou.xml"/>
    </input>

    <output>
        <tripinfo-output value="xml/tripinfo_rl_cluster_11648561428_407729599_5.xml"/>
    </output>

    <traci_server>
        <remote-port value="41395"/>
    </traci_server>

</configuration>
-->

<tripinfos xmlns:xsi="http://www.w3.org/2001/XMLSchema-instance" xsi:noNamespaceSchemaLocation="http://sumo.dlr.de/xsd/tripinfo_file.xsd">
    <tripinfo id="flow_route_106_duration_20250327_2150.0" depart="0.00" departLane="1254519229#0_0" departPos="19.69" departSpeed="0.00" departDelay="0.00" arrival="17.00" arrivalLane="430416184_1" arrivalPos="13.15" arrivalSpeed="9.33" duration="17.00" routeLength="94.14" waitingTime="0.00" waitingCount="0" stopTime="0.00" timeLoss="10.50" rerouteNo="0" devices="tripinfo_flow_route_106_duration_20250327_2150.0" vType="car" speedFactor="1.01" vaporized=""/>
    <tripinfo id="flow_route_107_duration_20250327_2150.0" depart="0.00" departLane="1254519229#0_0" departPos="43.39" departSpeed="0.00" departDelay="0.00" arrival="20.00" arrivalLane="1342963997_0" arrivalPos="88.24" arrivalSpeed="14.75" duration="20.00" routeLength="145.44" waitingTime="0.00" waitingCount="0" stopTime="0.00" timeLoss="10.92" rerouteNo="0" devices="tripinfo_flow_route_107_duration_20250327_2150.0" vType="car" speedFactor="1.08" vaporized=""/>
    <tripinfo id="flow_route_101_duration_20250327_2150.0" depart="0.00" departLane="186409193_0" departPos="43.42" departSpeed="0.00" departDelay="0.00" arrival="34.00" arrivalLane="430416184_0" arrivalPos="206.05" arrivalSpeed="16.21" duration="34.00" routeLength="297.12" waitingTime="0.00" waitingCount="0" stopTime="0.00" timeLoss="14.79" rerouteNo="0" devices="tripinfo_flow_route_101_duration_20250327_2150.0" vType="car" speedFactor="0.94" vaporized=""/>
    <tripinfo id="flow_route_101_duration_20250327_2150.1" depart="15.00" departLane="186409193_0" departPos="27.23" departSpeed="0.00" departDelay="0.00" arrival="34.00" arrivalLane="430416184_0" arrivalPos="1.75" arrivalSpeed="4.90" duration="19.00" routeLength="109.01" waitingTime="0.00" waitingCount="0" stopTime="0.00" timeLoss="9.75" rerouteNo="0" devices="tripinfo_flow_route_101_duration_20250327_2150.1" vType="car" speedFactor="0.83" vaporized=""/>
    <tripinfo id="flow_route_100_duration_20250327_2150.0" depart="0.00" departLane="186409193_0" departPos="2.55" departSpeed="0.00" departDelay="0.00" arrival="37.00" arrivalLane="1254519229#0_1" arrivalPos="70.90" arrivalSpeed="10.62" duration="37.00" routeLength="299.97" waitingTime="0.00" waitingCount="0" stopTime="0.00" timeLoss="17.85" rerouteNo="0" devices="tripinfo_flow_route_100_duration_20250327_2150.0" vType="car" speedFactor="1.06" vaporized=""/>
    <tripinfo id="flow_route_106_duration_20250327_2150.1" depart="15.00" departLane="1254519229#0_0" departPos="35.97" departSpeed="0.00" departDelay="0.00" arrival="41.00" arrivalLane="430416184_1" arrivalPos="194.63" arrivalSpeed="16.37" duration="26.00" routeLength="259.33" waitingTime="0.00" waitingCount="0" stopTime="0.00" timeLoss="9.58" rerouteNo="0" devices="tripinfo_flow_route_106_duration_20250327_2150.1" vType="car" speedFactor="1.05" vaporized=""/>
    <tripinfo id="flow_route_107_duration_20250327_2150.1" depart="20.00" departLane="1254519229#0_0" departPos="21.05" departSpeed="0.00" departDelay="0.00" arrival="42.00" arrivalLane="1342963997_0" arrivalPos="101.68" arrivalSpeed="16.16" duration="22.00" routeLength="181.21" waitingTime="0.00" waitingCount="0" stopTime="0.00" timeLoss="10.84" rerouteNo="0" devices="tripinfo_flow_route_107_duration_20250327_2150.1" vType="car" speedFactor="0.89" vaporized=""/>
    <tripinfo id="flow_route_106_duration_20250327_2150.2" depart="30.00" departLane="1254519229#0_0" departPos="40.82" departSpeed="0.00" departDelay="0.00" arrival="54.00" arrivalLane="430416184_1" arrivalPos="93.11" arrivalSpeed="14.82" duration="24.00" routeLength="152.97" waitingTime="0.00" waitingCount="0" stopTime="0.00" timeLoss="13.78" rerouteNo="0" devices="tripinfo_flow_route_106_duration_20250327_2150.2" vType="car" speedFactor="1.09" vaporized=""/>
    <tripinfo id="flow_route_107_duration_20250327_2150.2" depart="40.00" departLane="1254519229#0_0" departPos="50.41" departSpeed="0.00" departDelay="0.00" arrival="56.00" arrivalLane="1342963997_0" arrivalPos="55.14" arrivalSpeed="12.31" duration="16.00" routeLength="105.31" waitingTime="0.00" waitingCount="0" stopTime="0.00" timeLoss="9.59" rerouteNo="0" devices="tripinfo_flow_route_107_duration_20250327_2150.2" vType="car" speedFactor="1.03" vaporized=""/>
    <tripinfo id="flow_route_106_duration_20250327_2150.3" depart="45.00" departLane="1254519229#0_0" departPos="31.56" departSpeed="0.00" departDelay="0.00" arrival="75.00" arrivalLane="430416184_1" arrivalPos="238.38" arrivalSpeed="16.43" duration="30.00" routeLength="307.51" waitingTime="0.00" waitingCount="0" stopTime="0.00" timeLoss="10.79" rerouteNo="0" devices="tripinfo_flow_route_106_duration_20250327_2150.3" vType="car" speedFactor="1.12" vaporized=""/>
    <tripinfo id="flow_route_149_duration_20250327_2150.0" depart="0.00" departLane="186410975#0_0" departPos="192.32" departSpeed="0.00" departDelay="0.00" arrival="97.00" arrivalLane="430416184_1" arrivalPos="170.61" arrivalSpeed="16.38" duration="97.00" routeLength="523.96" waitingTime="40.00" waitingCount="1" stopTime="0.00" timeLoss="61.27" rerouteNo="0" devices="tripinfo_flow_route_149_duration_20250327_2150.0" vType="car" speedFactor="1.03" vaporized=""/>
    <tripinfo id="flow_route_100_duration_20250327_2150.1" depart="30.00" departLane="186409193_0" departPos="39.94" departSpeed="0.00" departDelay="0.00" arrival="138.00" arrivalLane="1254519229#0_1" arrivalPos="4.79" arrivalSpeed="4.04" duration="108.00" routeLength="196.48" waitingTime="68.00" waitingCount="2" stopTime="0.00" timeLoss="94.61" rerouteNo="0" devices="tripinfo_flow_route_100_duration_20250327_2150.1" vType="car" speedFactor="0.94" vaporized=""/>
    <tripinfo id="flow_route_101_duration_20250327_2150.2" depart="30.00" departLane="186409193_0" departPos="2.70" departSpeed="0.00" departDelay="0.00" arrival="139.00" arrivalLane="430416184_0" arrivalPos="253.21" arrivalSpeed="16.16" duration="109.00" routeLength="385.01" waitingTime="62.00" waitingCount="1" stopTime="0.00" timeLoss="82.62" rerouteNo="0" devices="tripinfo_flow_route_101_duration_20250327_2150.2" vType="car" speedFactor="0.86" vaporized=""/>
    <tripinfo id="flow_route_101_duration_20250327_2150.3" depart="45.00" departLane="186409193_0" departPos="51.86" departSpeed="0.00" departDelay="0.00" arrival="141.00" arrivalLane="430416184_0" arrivalPos="271.56" arrivalSpeed="16.12" duration="96.00" routeLength="354.21" waitingTime="54.00" waitingCount="1" stopTime="0.00" timeLoss="73.56" rerouteNo="0" devices="tripinfo_flow_route_101_duration_20250327_2150.3" vType="car" speedFactor="1.05" vaporized=""/>
</tripinfos>
