<?xml version="1.0" encoding="UTF-8"?>

<!-- generated on 2025-05-06 21:01:15 by Eclipse SUMO sumo Version 1.20.0
<configuration xmlns:xsi="http://www.w3.org/2001/XMLSchema-instance" xsi:noNamespaceSchemaLocation="http://sumo.dlr.de/xsd/sumoConfiguration.xsd">

    <input>
        <net-file value="osm.net.xml"/>
        <route-files value="xml/routes_sac2_632031937.rou.xml"/>
    </input>

    <output>
        <tripinfo-output value="xml/tripinfo_9773.xml"/>
    </output>

    <traci_server>
        <remote-port value="32785"/>
    </traci_server>

</configuration>
-->

<tripinfos xmlns:xsi="http://www.w3.org/2001/XMLSchema-instance" xsi:noNamespaceSchemaLocation="http://sumo.dlr.de/xsd/tripinfo_file.xsd">
    <tripinfo id="flow_route_66_duration_20250327_1910.0" depart="0.00" departLane="-138002002#2_0" departPos="85.87" departSpeed="0.00" departDelay="0.00" arrival="20.00" arrivalLane="-138002006#3_1" arrivalPos="3.87" arrivalSpeed="12.58" duration="20.00" routeLength="121.39" waitingTime="0.00" waitingCount="0" stopTime="0.00" timeLoss="10.93" rerouteNo="0" devices="tripinfo_flow_route_66_duration_20250327_1910.0" vType="car" speedFactor="0.83" vaporized=""/>
    <tripinfo id="flow_route_53_duration_20250327_1910.5" depart="11.00" departLane="138002006#0_0" departPos="85.62" departSpeed="0.00" departDelay="0.66" arrival="22.00" arrivalLane="1369578052#0_0" arrivalPos="23.85" arrivalSpeed="8.55" duration="11.00" routeLength="46.15" waitingTime="0.00" waitingCount="0" stopTime="0.00" timeLoss="7.82" rerouteNo="0" devices="tripinfo_flow_route_53_duration_20250327_1910.5" vType="car" speedFactor="0.94" vaporized=""/>
    <tripinfo id="flow_route_53_duration_20250327_1910.0" depart="0.00" departLane="138002006#0_0" departPos="48.40" departSpeed="0.00" departDelay="0.00" arrival="23.00" arrivalLane="1369578052#0_0" arrivalPos="131.33" arrivalSpeed="15.59" duration="23.00" routeLength="190.85" waitingTime="0.00" waitingCount="0" stopTime="0.00" timeLoss="9.82" rerouteNo="0" devices="tripinfo_flow_route_53_duration_20250327_1910.0" vType="car" speedFactor="0.94" vaporized=""/>
    <tripinfo id="flow_route_53_duration_20250327_1910.1" depart="3.00" departLane="138002006#0_0" departPos="5.35" departSpeed="0.00" departDelay="0.93" arrival="25.00" arrivalLane="1369578052#0_1" arrivalPos="48.76" arrivalSpeed="13.29" duration="22.00" routeLength="151.33" waitingTime="0.00" waitingCount="0" stopTime="0.00" timeLoss="11.22" rerouteNo="0" devices="tripinfo_flow_route_53_duration_20250327_1910.1" vType="car" speedFactor="0.89" vaporized=""/>
    <tripinfo id="flow_route_53_duration_20250327_1910.6" depart="15.00" departLane="138002006#0_0" departPos="83.00" departSpeed="0.00" departDelay="2.59" arrival="28.00" arrivalLane="1369578052#0_0" arrivalPos="41.13" arrivalSpeed="9.88" duration="13.00" routeLength="66.05" waitingTime="0.00" waitingCount="0" stopTime="0.00" timeLoss="8.63" rerouteNo="0" devices="tripinfo_flow_route_53_duration_20250327_1910.6" vType="car" speedFactor="0.94" vaporized=""/>
    <tripinfo id="flow_route_53_duration_20250327_1910.2" depart="5.00" departLane="138002006#0_0" departPos="45.54" departSpeed="0.00" departDelay="0.86" arrival="29.00" arrivalLane="1369578052#0_1" arrivalPos="126.01" arrivalSpeed="13.94" duration="24.00" routeLength="188.39" waitingTime="0.00" waitingCount="0" stopTime="0.00" timeLoss="10.15" rerouteNo="0" devices="tripinfo_flow_route_53_duration_20250327_1910.2" vType="car" speedFactor="0.86" vaporized=""/>
    <tripinfo id="flow_route_52_duration_20250327_1910.0" depart="0.00" departLane="138002006#0_0" departPos="21.97" departSpeed="0.00" departDelay="0.00" arrival="30.00" arrivalLane="380351865#0_1" arrivalPos="15.21" arrivalSpeed="11.62" duration="30.00" routeLength="234.80" waitingTime="0.00" waitingCount="0" stopTime="0.00" timeLoss="10.40" rerouteNo="0" devices="tripinfo_flow_route_52_duration_20250327_1910.0" vType="car" speedFactor="1.06" vaporized=""/>
    <tripinfo id="flow_route_53_duration_20250327_1910.4" depart="10.00" departLane="138002006#0_0" departPos="2.65" departSpeed="0.00" departDelay="1.73" arrival="30.00" arrivalLane="1369578052#0_0" arrivalPos="43.63" arrivalSpeed="11.52" duration="20.00" routeLength="148.91" waitingTime="0.00" waitingCount="0" stopTime="0.00" timeLoss="10.88" rerouteNo="0" devices="tripinfo_flow_route_53_duration_20250327_1910.4" vType="car" speedFactor="1.12" vaporized=""/>
    <tripinfo id="flow_route_67_duration_20250327_1910.0" depart="1.00" departLane="-138002002#2_0" departPos="104.31" departSpeed="0.00" departDelay="1.00" arrival="32.00" arrivalLane="380351865#0_0" arrivalPos="12.69" arrivalSpeed="11.37" duration="31.00" routeLength="241.42" waitingTime="0.00" waitingCount="0" stopTime="0.00" timeLoss="11.19" rerouteNo="0" devices="tripinfo_flow_route_67_duration_20250327_1910.0" vType="car" speedFactor="1.05" vaporized=""/>
    <tripinfo id="flow_route_53_duration_20250327_1910.3" depart="8.00" departLane="138002006#0_0" departPos="35.20" departSpeed="0.00" departDelay="1.80" arrival="34.00" arrivalLane="1369578052#0_1" arrivalPos="116.77" arrivalSpeed="15.95" duration="26.00" routeLength="189.48" waitingTime="0.00" waitingCount="0" stopTime="0.00" timeLoss="13.85" rerouteNo="0" devices="tripinfo_flow_route_53_duration_20250327_1910.3" vType="car" speedFactor="1.03" vaporized=""/>
    <tripinfo id="flow_route_53_duration_20250327_1910.10" depart="24.00" departLane="138002006#0_0" departPos="37.57" departSpeed="0.00" departDelay="3.32" arrival="40.00" arrivalLane="1369578052#0_0" arrivalPos="15.86" arrivalSpeed="8.73" duration="16.00" routeLength="86.21" waitingTime="0.00" waitingCount="0" stopTime="0.00" timeLoss="10.29" rerouteNo="0" devices="tripinfo_flow_route_53_duration_20250327_1910.10" vType="car" speedFactor="0.93" vaporized=""/>
    <tripinfo id="flow_route_67_duration_20250327_1910.3" depart="14.00" departLane="-138002002#2_0" departPos="123.08" departSpeed="0.00" departDelay="1.15" arrival="41.00" arrivalLane="380351865#0_0" arrivalPos="2.87" arrivalSpeed="12.67" duration="27.00" routeLength="212.84" waitingTime="0.00" waitingCount="0" stopTime="0.00" timeLoss="10.22" rerouteNo="0" devices="tripinfo_flow_route_67_duration_20250327_1910.3" vType="car" speedFactor="1.16" vaporized=""/>
    <tripinfo id="flow_route_53_duration_20250327_1910.11" depart="25.00" departLane="138002006#0_0" departPos="73.28" departSpeed="0.00" departDelay="2.25" arrival="42.00" arrivalLane="1369578052#0_0" arrivalPos="53.46" arrivalSpeed="11.18" duration="17.00" routeLength="88.10" waitingTime="0.00" waitingCount="0" stopTime="0.00" timeLoss="11.37" rerouteNo="0" devices="tripinfo_flow_route_53_duration_20250327_1910.11" vType="car" speedFactor="1.15" vaporized=""/>
    <tripinfo id="flow_route_53_duration_20250327_1910.12" depart="26.00" departLane="138002006#0_0" departPos="86.71" departSpeed="0.00" departDelay="1.18" arrival="44.00" arrivalLane="1369578052#0_0" arrivalPos="94.53" arrivalSpeed="13.76" duration="18.00" routeLength="115.74" waitingTime="0.00" waitingCount="0" stopTime="0.00" timeLoss="10.24" rerouteNo="0" devices="tripinfo_flow_route_53_duration_20250327_1910.12" vType="car" speedFactor="1.17" vaporized=""/>
    <tripinfo id="flow_route_53_duration_20250327_1910.9" depart="22.00" departLane="138002006#0_0" departPos="7.10" departSpeed="0.00" departDelay="3.39" arrival="45.00" arrivalLane="1369578052#0_0" arrivalPos="51.40" arrivalSpeed="12.08" duration="23.00" routeLength="152.22" waitingTime="0.00" waitingCount="0" stopTime="0.00" timeLoss="12.88" rerouteNo="0" devices="tripinfo_flow_route_53_duration_20250327_1910.9" vType="car" speedFactor="0.92" vaporized=""/>
    <tripinfo id="flow_route_53_duration_20250327_1910.8" depart="21.00" departLane="138002006#0_0" departPos="50.35" departSpeed="0.00" departDelay="4.46" arrival="46.00" arrivalLane="1369578052#0_1" arrivalPos="90.80" arrivalSpeed="14.29" duration="25.00" routeLength="148.37" waitingTime="0.00" waitingCount="0" stopTime="0.00" timeLoss="14.07" rerouteNo="0" devices="tripinfo_flow_route_53_duration_20250327_1910.8" vType="car" speedFactor="0.89" vaporized=""/>
    <tripinfo id="flow_route_52_duration_20250327_1910.1" depart="17.00" departLane="138002006#0_0" departPos="14.95" departSpeed="0.00" departDelay="2.00" arrival="48.00" arrivalLane="380351865#0_1" arrivalPos="10.18" arrivalSpeed="11.00" duration="31.00" routeLength="236.79" waitingTime="0.00" waitingCount="0" stopTime="0.00" timeLoss="11.16" rerouteNo="0" devices="tripinfo_flow_route_52_duration_20250327_1910.1" vType="car" speedFactor="1.01" vaporized=""/>
    <tripinfo id="flow_route_53_duration_20250327_1910.7" depart="20.00" departLane="138002006#0_0" departPos="15.89" departSpeed="0.00" departDelay="5.52" arrival="50.00" arrivalLane="1369578052#0_1" arrivalPos="127.48" arrivalSpeed="15.80" duration="30.00" routeLength="219.52" waitingTime="0.00" waitingCount="0" stopTime="0.00" timeLoss="15.71" rerouteNo="0" devices="tripinfo_flow_route_53_duration_20250327_1910.7" vType="car" speedFactor="0.97" vaporized=""/>
    <tripinfo id="flow_route_53_duration_20250327_1910.16" depart="37.00" departLane="138002006#0_0" departPos="76.04" departSpeed="0.00" departDelay="3.91" arrival="57.00" arrivalLane="1369578052#0_0" arrivalPos="124.48" arrivalSpeed="14.35" duration="20.00" routeLength="156.37" waitingTime="0.00" waitingCount="0" stopTime="0.00" timeLoss="10.58" rerouteNo="0" devices="tripinfo_flow_route_53_duration_20250327_1910.16" vType="car" speedFactor="1.09" vaporized=""/>
    <tripinfo id="flow_route_58_duration_20250327_1910.0" depart="0.00" departLane="186407685_0" departPos="1.07" departSpeed="0.00" departDelay="0.00" arrival="61.00" arrivalLane="-138002006#3_1" arrivalPos="43.63" arrivalSpeed="9.74" duration="61.00" routeLength="235.82" waitingTime="26.00" waitingCount="1" stopTime="0.00" timeLoss="46.06" rerouteNo="0" devices="tripinfo_flow_route_58_duration_20250327_1910.0" vType="car" speedFactor="1.08" vaporized=""/>
    <tripinfo id="flow_route_52_duration_20250327_1910.2" depart="37.00" departLane="138002006#0_0" departPos="50.90" departSpeed="0.00" departDelay="7.00" arrival="62.00" arrivalLane="380351865#0_1" arrivalPos="14.92" arrivalSpeed="12.08" duration="25.00" routeLength="205.58" waitingTime="0.00" waitingCount="0" stopTime="0.00" timeLoss="7.51" rerouteNo="0" devices="tripinfo_flow_route_52_duration_20250327_1910.2" vType="car" speedFactor="1.10" vaporized=""/>
    <tripinfo id="flow_route_58_duration_20250327_1910.1" depart="32.00" departLane="186407685_0" departPos="85.00" departSpeed="0.00" departDelay="2.00" arrival="67.00" arrivalLane="-138002006#3_1" arrivalPos="86.25" arrivalSpeed="12.89" duration="35.00" routeLength="194.51" waitingTime="2.00" waitingCount="1" stopTime="0.00" timeLoss="22.18" rerouteNo="0" devices="tripinfo_flow_route_58_duration_20250327_1910.1" vType="car" speedFactor="1.03" vaporized=""/>
    <tripinfo id="flow_route_57_duration_20250327_1910.1" depart="32.00" departLane="186407685_0" departPos="65.80" departSpeed="0.00" departDelay="2.00" arrival="68.00" arrivalLane="380351865#0_1" arrivalPos="9.79" arrivalSpeed="9.75" duration="36.00" routeLength="280.60" waitingTime="0.00" waitingCount="0" stopTime="0.00" timeLoss="12.30" rerouteNo="0" devices="tripinfo_flow_route_57_duration_20250327_1910.1" vType="car" speedFactor="0.90" vaporized=""/>
    <tripinfo id="flow_route_59_duration_20250327_1910.0" depart="0.00" departLane="186407685_0" departPos="119.17" departSpeed="0.00" departDelay="0.00" arrival="69.00" arrivalLane="1369578052#0_0" arrivalPos="108.75" arrivalSpeed="13.00" duration="69.00" routeLength="175.69" waitingTime="37.00" waitingCount="1" stopTime="0.00" timeLoss="57.48" rerouteNo="0" devices="tripinfo_flow_route_59_duration_20250327_1910.0" vType="car" speedFactor="1.03" vaporized=""/>
    <tripinfo id="flow_route_57_duration_20250327_1910.0" depart="0.00" departLane="186407685_0" departPos="131.94" departSpeed="0.00" departDelay="0.00" arrival="71.00" arrivalLane="380351865#0_0" arrivalPos="0.78" arrivalSpeed="11.12" duration="71.00" routeLength="205.45" waitingTime="37.00" waitingCount="1" stopTime="0.00" timeLoss="53.71" rerouteNo="0" devices="tripinfo_flow_route_57_duration_20250327_1910.0" vType="car" speedFactor="1.01" vaporized=""/>
    <tripinfo id="flow_route_59_duration_20250327_1910.3" depart="10.00" departLane="186407685_0" departPos="58.66" departSpeed="0.00" departDelay="0.00" arrival="72.00" arrivalLane="1369578052#0_0" arrivalPos="29.33" arrivalSpeed="8.48" duration="62.00" routeLength="156.77" waitingTime="25.00" waitingCount="1" stopTime="0.00" timeLoss="51.75" rerouteNo="0" devices="tripinfo_flow_route_59_duration_20250327_1910.3" vType="car" speedFactor="0.93" vaporized=""/>
    <tripinfo id="flow_route_59_duration_20250327_1910.4" depart="14.00" departLane="186407685_0" departPos="126.70" departSpeed="0.00" departDelay="0.67" arrival="74.00" arrivalLane="1369578052#0_0" arrivalPos="149.62" arrivalSpeed="15.53" duration="60.00" routeLength="209.03" waitingTime="27.00" waitingCount="1" stopTime="0.00" timeLoss="46.80" rerouteNo="0" devices="tripinfo_flow_route_59_duration_20250327_1910.4" vType="car" speedFactor="1.02" vaporized=""/>
    <tripinfo id="flow_route_59_duration_20250327_1910.2" depart="8.00" departLane="186407685_0" departPos="96.38" departSpeed="0.00" departDelay="1.33" arrival="78.00" arrivalLane="1369578052#0_0" arrivalPos="173.09" arrivalSpeed="16.49" duration="70.00" routeLength="262.82" waitingTime="25.00" waitingCount="1" stopTime="0.00" timeLoss="53.00" rerouteNo="0" devices="tripinfo_flow_route_59_duration_20250327_1910.2" vType="car" speedFactor="1.05" vaporized=""/>
    <tripinfo id="flow_route_59_duration_20250327_1910.1" depart="4.00" departLane="186407685_0" departPos="57.01" departSpeed="0.00" departDelay="0.67" arrival="80.00" arrivalLane="1369578052#0_0" arrivalPos="161.40" arrivalSpeed="15.61" duration="76.00" routeLength="290.50" waitingTime="26.00" waitingCount="1" stopTime="0.00" timeLoss="56.62" rerouteNo="0" devices="tripinfo_flow_route_59_duration_20250327_1910.1" vType="car" speedFactor="0.94" vaporized=""/>
    <tripinfo id="flow_route_59_duration_20250327_1910.7" depart="25.00" departLane="186407685_0" departPos="103.59" departSpeed="0.00" departDelay="1.67" arrival="83.00" arrivalLane="1369578052#0_0" arrivalPos="125.10" arrivalSpeed="14.84" duration="58.00" routeLength="207.62" waitingTime="19.00" waitingCount="1" stopTime="0.00" timeLoss="43.80" rerouteNo="0" devices="tripinfo_flow_route_59_duration_20250327_1910.7" vType="car" speedFactor="1.01" vaporized=""/>
    <tripinfo id="flow_route_59_duration_20250327_1910.8" depart="30.00" departLane="186407685_0" departPos="17.98" departSpeed="0.00" departDelay="3.34" arrival="84.00" arrivalLane="1369578052#0_0" arrivalPos="19.30" arrivalSpeed="7.65" duration="54.00" routeLength="187.44" waitingTime="11.00" waitingCount="1" stopTime="0.00" timeLoss="42.06" rerouteNo="0" devices="tripinfo_flow_route_59_duration_20250327_1910.8" vType="car" speedFactor="0.97" vaporized=""/>
    <tripinfo id="flow_route_59_duration_20250327_1910.5" depart="17.00" departLane="186407685_0" departPos="32.47" departSpeed="0.00" departDelay="0.34" arrival="88.00" arrivalLane="1369578052#0_0" arrivalPos="106.92" arrivalSpeed="13.47" duration="71.00" routeLength="260.57" waitingTime="18.00" waitingCount="1" stopTime="0.00" timeLoss="51.91" rerouteNo="0" devices="tripinfo_flow_route_59_duration_20250327_1910.5" vType="car" speedFactor="0.83" vaporized=""/>
    <tripinfo id="flow_route_59_duration_20250327_1910.6" depart="20.00" departLane="186407685_0" departPos="55.58" departSpeed="0.00" departDelay="0.00" arrival="88.00" arrivalLane="1369578052#0_0" arrivalPos="171.08" arrivalSpeed="15.57" duration="68.00" routeLength="301.61" waitingTime="19.00" waitingCount="1" stopTime="0.00" timeLoss="48.28" rerouteNo="0" devices="tripinfo_flow_route_59_duration_20250327_1910.6" vType="car" speedFactor="0.95" vaporized=""/>
    <tripinfo id="flow_route_59_duration_20250327_1910.9" depart="32.00" departLane="186407685_0" departPos="7.54" departSpeed="0.00" departDelay="2.00" arrival="91.00" arrivalLane="1369578052#0_0" arrivalPos="54.62" arrivalSpeed="10.38" duration="59.00" routeLength="233.19" waitingTime="11.00" waitingCount="1" stopTime="0.00" timeLoss="42.98" rerouteNo="0" devices="tripinfo_flow_route_59_duration_20250327_1910.9" vType="car" speedFactor="0.96" vaporized=""/>
    <tripinfo id="flow_route_59_duration_20250327_1910.11" depart="38.00" departLane="186407685_0" departPos="85.47" departSpeed="0.00" departDelay="1.34" arrival="91.00" arrivalLane="1369578052#0_0" arrivalPos="109.25" arrivalSpeed="13.93" duration="53.00" routeLength="209.89" waitingTime="12.00" waitingCount="1" stopTime="0.00" timeLoss="37.38" rerouteNo="0" devices="tripinfo_flow_route_59_duration_20250327_1910.11" vType="car" speedFactor="0.85" vaporized=""/>
    <tripinfo id="flow_route_59_duration_20250327_1910.12" depart="49.00" departLane="186407685_0" departPos="82.48" departSpeed="0.00" departDelay="9.00" arrival="93.00" arrivalLane="1369578052#0_0" arrivalPos="62.46" arrivalSpeed="11.17" duration="44.00" routeLength="166.09" waitingTime="9.00" waitingCount="1" stopTime="0.00" timeLoss="32.72" rerouteNo="0" devices="tripinfo_flow_route_59_duration_20250327_1910.12" vType="car" speedFactor="1.10" vaporized=""/>
    <tripinfo id="flow_route_66_duration_20250327_1910.2" depart="21.00" departLane="-138002002#2_0" departPos="33.28" departSpeed="0.00" departDelay="1.00" arrival="103.00" arrivalLane="-138002006#3_1" arrivalPos="5.95" arrivalSpeed="7.60" duration="82.00" routeLength="176.06" waitingTime="49.00" waitingCount="1" stopTime="0.00" timeLoss="70.95" rerouteNo="0" devices="tripinfo_flow_route_66_duration_20250327_1910.2" vType="car" speedFactor="1.13" vaporized=""/>
    <tripinfo id="flow_route_59_duration_20250327_1910.10" depart="38.00" departLane="186407685_0" departPos="2.59" departSpeed="0.00" departDelay="4.67" arrival="103.00" arrivalLane="1369578052#0_0" arrivalPos="180.31" arrivalSpeed="16.51" duration="65.00" routeLength="363.83" waitingTime="9.00" waitingCount="1" stopTime="0.00" timeLoss="42.41" rerouteNo="0" devices="tripinfo_flow_route_59_duration_20250327_1910.10" vType="car" speedFactor="1.00" vaporized=""/>
    <tripinfo id="flow_route_53_duration_20250327_1910.13" depart="31.00" departLane="138002006#0_0" departPos="24.96" departSpeed="0.00" departDelay="4.12" arrival="106.00" arrivalLane="1369578052#0_1" arrivalPos="55.80" arrivalSpeed="10.85" duration="75.00" routeLength="138.76" waitingTime="41.00" waitingCount="2" stopTime="0.00" timeLoss="66.12" rerouteNo="0" devices="tripinfo_flow_route_53_duration_20250327_1910.13" vType="car" speedFactor="1.02" vaporized=""/>
    <tripinfo id="flow_route_66_duration_20250327_1910.4" depart="42.00" departLane="-138002002#2_0" departPos="89.79" departSpeed="0.00" departDelay="2.00" arrival="106.00" arrivalLane="-138002006#3_1" arrivalPos="0.08" arrivalSpeed="7.65" duration="64.00" routeLength="113.67" waitingTime="36.00" waitingCount="1" stopTime="0.00" timeLoss="57.09" rerouteNo="0" devices="tripinfo_flow_route_66_duration_20250327_1910.4" vType="car" speedFactor="1.00" vaporized=""/>
    <tripinfo id="flow_route_53_duration_20250327_1910.20" depart="51.00" departLane="138002006#0_0" departPos="66.54" departSpeed="0.00" departDelay="9.64" arrival="106.00" arrivalLane="1369578052#0_0" arrivalPos="21.08" arrivalSpeed="8.80" duration="55.00" routeLength="62.46" waitingTime="37.00" waitingCount="1" stopTime="0.00" timeLoss="51.18" rerouteNo="0" devices="tripinfo_flow_route_53_duration_20250327_1910.20" vType="car" speedFactor="1.00" vaporized=""/>
    <tripinfo id="flow_route_66_duration_20250327_1910.1" depart="12.00" departLane="-138002002#2_0" departPos="48.64" departSpeed="0.00" departDelay="2.00" arrival="108.00" arrivalLane="-138002006#3_0" arrivalPos="84.93" arrivalSpeed="12.97" duration="96.00" routeLength="239.67" waitingTime="59.00" waitingCount="1" stopTime="0.00" timeLoss="78.81" rerouteNo="0" devices="tripinfo_flow_route_66_duration_20250327_1910.1" vType="car" speedFactor="0.88" vaporized=""/>
    <tripinfo id="flow_route_66_duration_20250327_1910.3" depart="30.00" departLane="-138002002#2_0" departPos="121.91" departSpeed="0.00" departDelay="0.00" arrival="108.00" arrivalLane="-138002006#3_1" arrivalPos="36.50" arrivalSpeed="10.39" duration="78.00" routeLength="117.97" waitingTime="48.00" waitingCount="1" stopTime="0.00" timeLoss="70.68" rerouteNo="0" devices="tripinfo_flow_route_66_duration_20250327_1910.3" vType="car" speedFactor="1.09" vaporized=""/>
    <tripinfo id="flow_route_53_duration_20250327_1910.14" depart="32.00" departLane="138002006#0_0" departPos="12.53" departSpeed="0.00" departDelay="3.05" arrival="109.00" arrivalLane="1369578052#0_0" arrivalPos="78.36" arrivalSpeed="11.55" duration="77.00" routeLength="173.75" waitingTime="41.00" waitingCount="1" stopTime="0.00" timeLoss="66.53" rerouteNo="0" devices="tripinfo_flow_route_53_duration_20250327_1910.14" vType="car" speedFactor="1.18" vaporized=""/>
    <tripinfo id="flow_route_53_duration_20250327_1910.17" depart="42.00" departLane="138002006#0_0" departPos="75.57" departSpeed="0.00" departDelay="6.84" arrival="110.00" arrivalLane="1369578052#0_0" arrivalPos="108.59" arrivalSpeed="13.30" duration="68.00" routeLength="140.94" waitingTime="41.00" waitingCount="1" stopTime="0.00" timeLoss="58.05" rerouteNo="0" devices="tripinfo_flow_route_53_duration_20250327_1910.17" vType="car" speedFactor="0.88" vaporized=""/>
    <tripinfo id="flow_route_67_duration_20250327_1910.1" depart="5.00" departLane="-138002002#2_0" departPos="56.56" departSpeed="0.00" departDelay="0.72" arrival="112.00" arrivalLane="380351865#0_0" arrivalPos="0.79" arrivalSpeed="11.72" duration="107.00" routeLength="277.27" waitingTime="60.00" waitingCount="1" stopTime="0.00" timeLoss="85.96" rerouteNo="0" devices="tripinfo_flow_route_67_duration_20250327_1910.1" vType="car" speedFactor="1.09" vaporized=""/>
    <tripinfo id="flow_route_53_duration_20250327_1910.21" depart="53.00" departLane="138002006#0_0" departPos="38.20" departSpeed="0.00" departDelay="9.57" arrival="112.00" arrivalLane="1369578052#0_0" arrivalPos="61.35" arrivalSpeed="12.47" duration="59.00" routeLength="131.07" waitingTime="31.00" waitingCount="1" stopTime="0.00" timeLoss="50.83" rerouteNo="0" devices="tripinfo_flow_route_53_duration_20250327_1910.21" vType="car" speedFactor="1.14" vaporized=""/>
    <tripinfo id="flow_route_53_duration_20250327_1910.15" depart="37.00" departLane="138002006#0_0" departPos="9.13" departSpeed="0.00" departDelay="5.98" arrival="113.00" arrivalLane="1369578052#0_1" arrivalPos="131.48" arrivalSpeed="15.79" duration="76.00" routeLength="230.27" waitingTime="40.00" waitingCount="1" stopTime="0.00" timeLoss="61.80" rerouteNo="0" devices="tripinfo_flow_route_53_duration_20250327_1910.15" vType="car" speedFactor="1.04" vaporized=""/>
    <tripinfo id="flow_route_67_duration_20250327_1910.2" depart="11.00" departLane="-138002002#2_0" departPos="23.10" departSpeed="0.00" departDelay="2.43" arrival="114.00" arrivalLane="380351865#0_0" arrivalPos="0.55" arrivalSpeed="10.79" duration="103.00" routeLength="310.51" waitingTime="58.00" waitingCount="1" stopTime="0.00" timeLoss="79.05" rerouteNo="0" devices="tripinfo_flow_route_67_duration_20250327_1910.2" vType="car" speedFactor="0.99" vaporized=""/>
    <tripinfo id="flow_route_53_duration_20250327_1910.18" depart="44.00" departLane="138002006#0_0" departPos="13.61" departSpeed="0.00" departDelay="6.78" arrival="114.00" arrivalLane="1369578052#0_1" arrivalPos="101.24" arrivalSpeed="13.80" duration="70.00" routeLength="195.55" waitingTime="35.00" waitingCount="1" stopTime="0.00" timeLoss="55.56" rerouteNo="0" devices="tripinfo_flow_route_53_duration_20250327_1910.18" vType="car" speedFactor="0.85" vaporized=""/>
    <tripinfo id="flow_route_53_duration_20250327_1910.19" depart="47.00" departLane="138002006#0_0" departPos="8.67" departSpeed="0.00" departDelay="7.71" arrival="115.00" arrivalLane="1369578052#0_1" arrivalPos="86.69" arrivalSpeed="13.63" duration="68.00" routeLength="185.93" waitingTime="33.00" waitingCount="1" stopTime="0.00" timeLoss="56.00" rerouteNo="0" devices="tripinfo_flow_route_53_duration_20250327_1910.19" vType="car" speedFactor="1.02" vaporized=""/>
    <tripinfo id="flow_route_66_duration_20250327_1910.5" depart="51.00" departLane="-138002002#2_0" departPos="22.00" departSpeed="0.00" departDelay="1.00" arrival="115.00" arrivalLane="-138002006#3_1" arrivalPos="70.40" arrivalSpeed="13.27" duration="64.00" routeLength="251.79" waitingTime="25.00" waitingCount="1" stopTime="0.00" timeLoss="47.11" rerouteNo="0" devices="tripinfo_flow_route_66_duration_20250327_1910.5" vType="car" speedFactor="0.91" vaporized=""/>
    <tripinfo id="flow_route_53_duration_20250327_1910.27" depart="74.00" departLane="138002006#0_0" departPos="34.17" departSpeed="0.00" departDelay="18.16" arrival="115.00" arrivalLane="1369578052#0_0" arrivalPos="2.15" arrivalSpeed="10.00" duration="41.00" routeLength="75.90" waitingTime="23.00" waitingCount="1" stopTime="0.00" timeLoss="36.04" rerouteNo="0" devices="tripinfo_flow_route_53_duration_20250327_1910.27" vType="car" speedFactor="0.97" vaporized=""/>
    <tripinfo id="flow_route_67_duration_20250327_1910.7" depart="30.00" departLane="-138002002#2_0" departPos="143.87" departSpeed="0.00" departDelay="0.01" arrival="116.00" arrivalLane="380351865#0_0" arrivalPos="5.85" arrivalSpeed="11.42" duration="86.00" routeLength="195.03" waitingTime="53.00" waitingCount="1" stopTime="0.00" timeLoss="69.56" rerouteNo="0" devices="tripinfo_flow_route_67_duration_20250327_1910.7" vType="car" speedFactor="1.04" vaporized=""/>
    <tripinfo id="flow_route_53_duration_20250327_1910.23" depart="61.00" departLane="138002006#0_0" departPos="1.18" departSpeed="0.00" departDelay="13.44" arrival="116.00" arrivalLane="1369578052#0_0" arrivalPos="36.01" arrivalSpeed="11.67" duration="55.00" routeLength="142.75" waitingTime="26.00" waitingCount="1" stopTime="0.00" timeLoss="46.31" rerouteNo="0" devices="tripinfo_flow_route_53_duration_20250327_1910.23" vType="car" speedFactor="1.02" vaporized=""/>
    <tripinfo id="flow_route_53_duration_20250327_1910.25" depart="61.00" departLane="138002006#0_0" departPos="51.09" departSpeed="0.00" departDelay="9.30" arrival="116.00" arrivalLane="1369578052#0_0" arrivalPos="84.00" arrivalSpeed="14.25" duration="55.00" routeLength="140.83" waitingTime="30.00" waitingCount="1" stopTime="0.00" timeLoss="45.54" rerouteNo="0" devices="tripinfo_flow_route_53_duration_20250327_1910.25" vType="car" speedFactor="0.91" vaporized=""/>
    <tripinfo id="flow_route_67_duration_20250327_1910.5" depart="22.00" departLane="-138002002#2_0" departPos="64.81" departSpeed="0.00" departDelay="0.58" arrival="118.00" arrivalLane="380351865#0_0" arrivalPos="0.80" arrivalSpeed="12.60" duration="96.00" routeLength="269.04" waitingTime="50.00" waitingCount="1" stopTime="0.00" timeLoss="76.26" rerouteNo="0" devices="tripinfo_flow_route_67_duration_20250327_1910.5" vType="car" speedFactor="1.18" vaporized=""/>
    <tripinfo id="flow_route_53_duration_20250327_1910.22" depart="56.00" departLane="138002006#0_0" departPos="20.45" departSpeed="0.00" departDelay="10.50" arrival="120.00" arrivalLane="1369578052#0_0" arrivalPos="106.83" arrivalSpeed="15.56" duration="64.00" routeLength="194.30" waitingTime="30.00" waitingCount="1" stopTime="0.00" timeLoss="51.59" rerouteNo="0" devices="tripinfo_flow_route_53_duration_20250327_1910.22" vType="car" speedFactor="1.08" vaporized=""/>
    <tripinfo id="flow_route_67_duration_20250327_1910.4" depart="18.00" departLane="-138002002#2_0" departPos="5.13" departSpeed="0.00" departDelay="0.86" arrival="124.00" arrivalLane="380351865#0_0" arrivalPos="10.95" arrivalSpeed="9.65" duration="106.00" routeLength="338.87" waitingTime="49.00" waitingCount="1" stopTime="0.00" timeLoss="76.05" rerouteNo="0" devices="tripinfo_flow_route_67_duration_20250327_1910.4" vType="car" speedFactor="0.87" vaporized=""/>
    <tripinfo id="flow_route_67_duration_20250327_1910.6" depart="26.00" departLane="-138002002#2_0" departPos="4.39" departSpeed="0.00" departDelay="0.29" arrival="125.00" arrivalLane="380351865#0_0" arrivalPos="6.23" arrivalSpeed="10.51" duration="99.00" routeLength="334.89" waitingTime="48.00" waitingCount="1" stopTime="0.00" timeLoss="73.26" rerouteNo="0" devices="tripinfo_flow_route_67_duration_20250327_1910.6" vType="car" speedFactor="0.99" vaporized=""/>
    <tripinfo id="flow_route_67_duration_20250327_1910.12" depart="53.00" departLane="-138002002#2_0" departPos="136.14" departSpeed="0.00" departDelay="1.58" arrival="127.00" arrivalLane="380351865#0_0" arrivalPos="0.13" arrivalSpeed="10.99" duration="74.00" routeLength="197.04" waitingTime="42.00" waitingCount="1" stopTime="0.00" timeLoss="56.57" rerouteNo="0" devices="tripinfo_flow_route_67_duration_20250327_1910.12" vType="car" speedFactor="1.04" vaporized=""/>
    <tripinfo id="flow_route_53_duration_20250327_1910.28" depart="76.00" departLane="138002006#0_0" departPos="26.05" departSpeed="0.00" departDelay="18.10" arrival="127.00" arrivalLane="1369578052#0_0" arrivalPos="34.65" arrivalSpeed="10.30" duration="51.00" routeLength="116.52" waitingTime="17.00" waitingCount="1" stopTime="0.00" timeLoss="43.18" rerouteNo="0" devices="tripinfo_flow_route_53_duration_20250327_1910.28" vType="car" speedFactor="0.96" vaporized=""/>