<?xml version="1.0" encoding="UTF-8"?>

<!-- generated on 2025-05-06 21:09:02 by Eclipse SUMO sumo Version 1.20.0
<configuration xmlns:xsi="http://www.w3.org/2001/XMLSchema-instance" xsi:noNamespaceSchemaLocation="http://sumo.dlr.de/xsd/sumoConfiguration.xsd">

    <input>
        <net-file value="osm.net.xml"/>
        <route-files value="xml/route_rl_cluster10852700972_12154751993_8.rou.xml"/>
    </input>

    <output>
        <tripinfo-output value="xml/tripinfo_rl_cluster10852700972_12154751993_8.xml"/>
    </output>

    <traci_server>
        <remote-port value="35835"/>
    </traci_server>

</configuration>
-->

<tripinfos xmlns:xsi="http://www.w3.org/2001/XMLSchema-instance" xsi:noNamespaceSchemaLocation="http://sumo.dlr.de/xsd/tripinfo_file.xsd">
    <tripinfo id="flow_route_60_duration_20250327_2010.1" depart="7.00" departLane="186407684#0_0" departPos="41.08" departSpeed="0.00" departDelay="1.00" arrival="20.00" arrivalLane="791826085_0" arrivalPos="1.97" arrivalSpeed="11.09" duration="13.00" routeLength="69.82" waitingTime="0.00" waitingCount="0" stopTime="0.00" timeLoss="7.50" rerouteNo="0" devices="tripinfo_flow_route_60_duration_20250327_2010.1" vType="car" speedFactor="0.83" vaporized=""/>
    <tripinfo id="flow_route_61_duration_20250327_2010.0" depart="0.00" departLane="186407684#0_0" departPos="65.67" departSpeed="0.00" departDelay="0.00" arrival="23.00" arrivalLane="1341093416#0_1" arrivalPos="161.76" arrivalSpeed="16.14" duration="23.00" routeLength="210.27" waitingTime="0.00" waitingCount="0" stopTime="0.00" timeLoss="9.90" rerouteNo="0" devices="tripinfo_flow_route_61_duration_20250327_2010.0" vType="car" speedFactor="1.03" vaporized=""/>
    <tripinfo id="flow_route_60_duration_20250327_2010.0" depart="0.00" departLane="186407684#0_0" departPos="48.06" departSpeed="0.00" departDelay="0.00" arrival="25.00" arrivalLane="791826085_0" arrivalPos="160.28" arrivalSpeed="16.38" duration="25.00" routeLength="221.15" waitingTime="0.00" waitingCount="0" stopTime="0.00" timeLoss="11.09" rerouteNo="0" devices="tripinfo_flow_route_60_duration_20250327_2010.0" vType="car" speedFactor="1.08" vaporized=""/>
    <tripinfo id="flow_route_60_duration_20250327_2010.3" depart="18.00" departLane="186407684#0_0" departPos="67.38" departSpeed="0.00" departDelay="0.00" arrival="29.00" arrivalLane="791826085_0" arrivalPos="10.57" arrivalSpeed="9.08" duration="11.00" routeLength="52.13" waitingTime="0.00" waitingCount="0" stopTime="0.00" timeLoss="7.65" rerouteNo="0" devices="tripinfo_flow_route_60_duration_20250327_2010.3" vType="car" speedFactor="1.12" vaporized=""/>
    <tripinfo id="flow_route_60_duration_20250327_2010.2" depart="13.00" departLane="186407684#0_0" departPos="4.07" departSpeed="0.00" departDelay="1.00" arrival="38.00" arrivalLane="791826085_0" arrivalPos="105.00" arrivalSpeed="15.16" duration="25.00" routeLength="209.86" waitingTime="0.00" waitingCount="0" stopTime="0.00" timeLoss="10.71" rerouteNo="0" devices="tripinfo_flow_route_60_duration_20250327_2010.2" vType="car" speedFactor="0.94" vaporized=""/>
    <tripinfo id="flow_route_61_duration_20250327_2010.1" depart="17.00" departLane="186407684#0_0" departPos="34.95" departSpeed="0.00" departDelay="2.00" arrival="38.00" arrivalLane="1341093416#0_1" arrivalPos="84.19" arrivalSpeed="15.31" duration="21.00" routeLength="163.42" waitingTime="0.00" waitingCount="0" stopTime="0.00" timeLoss="10.74" rerouteNo="0" devices="tripinfo_flow_route_61_duration_20250327_2010.1" vType="car" speedFactor="1.09" vaporized=""/>
    <tripinfo id="flow_route_56_duration_20250327_2010.0" depart="0.00" departLane="1341093415#0_0" departPos="44.11" departSpeed="0.00" departDelay="0.00" arrival="48.00" arrivalLane="409155823_0" arrivalPos="4.00" arrivalSpeed="7.36" duration="48.00" routeLength="164.73" waitingTime="17.00" waitingCount="1" stopTime="0.00" timeLoss="37.12" rerouteNo="0" devices="tripinfo_flow_route_56_duration_20250327_2010.0" vType="car" speedFactor="1.01" vaporized=""/>
    <tripinfo id="flow_route_56_duration_20250327_2010.1" depart="10.00" departLane="1341093415#0_0" departPos="156.06" departSpeed="0.00" departDelay="1.43" arrival="51.00" arrivalLane="409155823_0" arrivalPos="49.85" arrivalSpeed="10.08" duration="41.00" routeLength="98.63" waitingTime="19.00" waitingCount="1" stopTime="0.00" timeLoss="33.68" rerouteNo="0" devices="tripinfo_flow_route_56_duration_20250327_2010.1" vType="car" speedFactor="0.89" vaporized=""/>
    <tripinfo id="flow_route_56_duration_20250327_2010.2" depart="20.00" departLane="1341093415#0_0" departPos="5.32" departSpeed="0.00" departDelay="2.86" arrival="52.00" arrivalLane="409155823_0" arrivalPos="20.84" arrivalSpeed="9.39" duration="32.00" routeLength="220.36" waitingTime="0.00" waitingCount="0" stopTime="0.00" timeLoss="17.89" rerouteNo="0" devices="tripinfo_flow_route_56_duration_20250327_2010.2" vType="car" speedFactor="1.05" vaporized=""/>
    <tripinfo id="flow_route_56_duration_20250327_2010.3" depart="27.00" departLane="1341093415#0_0" departPos="47.07" departSpeed="0.00" departDelay="1.29" arrival="53.00" arrivalLane="409155823_0" arrivalPos="11.04" arrivalSpeed="8.92" duration="26.00" routeLength="168.81" waitingTime="0.00" waitingCount="0" stopTime="0.00" timeLoss="14.37" rerouteNo="0" devices="tripinfo_flow_route_56_duration_20250327_2010.3" vType="car" speedFactor="0.88" vaporized=""/>
    <tripinfo id="flow_route_54_duration_20250327_2010.3" depart="26.00" departLane="1341093415#0_0" departPos="73.32" departSpeed="0.00" departDelay="0.29" arrival="54.00" arrivalLane="1341093416#0_0" arrivalPos="35.47" arrivalSpeed="10.89" duration="28.00" routeLength="168.98" waitingTime="0.00" waitingCount="0" stopTime="0.00" timeLoss="17.42" rerouteNo="0" devices="tripinfo_flow_route_54_duration_20250327_2010.3" vType="car" speedFactor="0.93" vaporized=""/>
    <tripinfo id="flow_route_54_duration_20250327_2010.1" depart="10.00" departLane="1341093415#0_0" departPos="10.74" departSpeed="0.00" departDelay="1.43" arrival="57.00" arrivalLane="1341093416#0_2" arrivalPos="123.96" arrivalSpeed="15.03" duration="47.00" routeLength="320.04" waitingTime="4.00" waitingCount="1" stopTime="0.00" timeLoss="27.65" rerouteNo="0" devices="tripinfo_flow_route_54_duration_20250327_2010.1" vType="car" speedFactor="1.05" vaporized=""/>
    <tripinfo id="flow_route_55_duration_20250327_2010.2" depart="30.00" departLane="1341093415#0_0" departPos="43.03" departSpeed="0.00" departDelay="0.00" arrival="58.00" arrivalLane="791826085_0" arrivalPos="72.77" arrivalSpeed="12.48" duration="28.00" routeLength="219.45" waitingTime="0.00" waitingCount="0" stopTime="0.00" timeLoss="13.70" rerouteNo="0" devices="tripinfo_flow_route_55_duration_20250327_2010.2" vType="car" speedFactor="0.94" vaporized=""/>
    <tripinfo id="flow_route_56_duration_20250327_2010.4" depart="37.00" departLane="1341093415#0_0" departPos="87.80" departSpeed="0.00" departDelay="2.72" arrival="60.00" arrivalLane="409155823_0" arrivalPos="62.99" arrivalSpeed="14.12" duration="23.00" routeLength="180.03" waitingTime="0.00" waitingCount="0" stopTime="0.00" timeLoss="10.68" rerouteNo="0" devices="tripinfo_flow_route_56_duration_20250327_2010.4" vType="car" speedFactor="1.01" vaporized=""/>
    <tripinfo id="flow_route_55_duration_20250327_2010.1" depart="16.00" departLane="1341093415#0_0" departPos="146.92" departSpeed="0.00" departDelay="1.00" arrival="61.00" arrivalLane="791826085_0" arrivalPos="167.29" arrivalSpeed="14.04" duration="45.00" routeLength="210.08" waitingTime="13.00" waitingCount="1" stopTime="0.00" timeLoss="29.30" rerouteNo="0" devices="tripinfo_flow_route_55_duration_20250327_2010.1" vType="car" speedFactor="0.86" vaporized=""/>
    <tripinfo id="flow_route_54_duration_20250327_2010.2" depart="19.00" departLane="1341093415#0_0" departPos="28.36" departSpeed="0.00" departDelay="1.86" arrival="61.00" arrivalLane="1341093416#0_0" arrivalPos="149.25" arrivalSpeed="16.16" duration="42.00" routeLength="327.71" waitingTime="0.00" waitingCount="0" stopTime="0.00" timeLoss="22.16" rerouteNo="0" devices="tripinfo_flow_route_54_duration_20250327_2010.2" vType="car" speedFactor="1.03" vaporized=""/>
    <tripinfo id="flow_route_55_duration_20250327_2010.0" depart="0.00" departLane="1341093415#0_0" departPos="132.48" departSpeed="0.00" departDelay="0.00" arrival="63.00" arrivalLane="791826085_0" arrivalPos="232.37" arrivalSpeed="15.54" duration="63.00" routeLength="289.60" waitingTime="25.00" waitingCount="1" stopTime="0.00" timeLoss="43.59" rerouteNo="0" devices="tripinfo_flow_route_55_duration_20250327_2010.0" vType="car" speedFactor="0.94" vaporized=""/>
    <tripinfo id="flow_route_54_duration_20250327_2010.0" depart="0.00" departLane="1341093415#0_0" departPos="7.77" departSpeed="0.00" departDelay="0.00" arrival="65.00" arrivalLane="1341093416#0_0" arrivalPos="244.31" arrivalSpeed="16.48" duration="65.00" routeLength="443.35" waitingTime="13.00" waitingCount="1" stopTime="0.00" timeLoss="37.76" rerouteNo="0" devices="tripinfo_flow_route_54_duration_20250327_2010.0" vType="car" speedFactor="1.06" vaporized=""/>
    <tripinfo id="flow_route_54_duration_20250327_2010.4" depart="37.00" departLane="1341093415#0_0" departPos="54.86" departSpeed="0.00" departDelay="2.72" arrival="69.00" arrivalLane="1341093416#0_0" arrivalPos="183.19" arrivalSpeed="16.40" duration="32.00" routeLength="335.15" waitingTime="0.00" waitingCount="0" stopTime="0.00" timeLoss="10.99" rerouteNo="0" devices="tripinfo_flow_route_54_duration_20250327_2010.4" vType="car" speedFactor="1.02" vaporized=""/>
    <tripinfo id="flow_route_56_duration_20250327_2010.5" depart="43.00" departLane="1341093415#0_0" departPos="49.70" departSpeed="0.00" departDelay="0.15" arrival="70.00" arrivalLane="409155823_0" arrivalPos="56.48" arrivalSpeed="12.62" duration="27.00" routeLength="211.62" waitingTime="0.00" waitingCount="0" stopTime="0.00" timeLoss="12.16" rerouteNo="0" devices="tripinfo_flow_route_56_duration_20250327_2010.5" vType="car" speedFactor="0.87" vaporized=""/>
    <tripinfo id="flow_route_54_duration_20250327_2010.5" depart="43.00" departLane="1341093415#0_0" departPos="4.96" departSpeed="0.00" departDelay="0.15" arrival="71.00" arrivalLane="1341093416#0_1" arrivalPos="50.27" arrivalSpeed="16.44" duration="28.00" routeLength="252.13" waitingTime="0.00" waitingCount="0" stopTime="0.00" timeLoss="11.95" rerouteNo="0" devices="tripinfo_flow_route_54_duration_20250327_2010.5" vType="car" speedFactor="0.83" vaporized=""/>
    <tripinfo id="flow_route_54_duration_20250327_2010.6" depart="52.00" departLane="1341093415#0_0" departPos="62.71" departSpeed="0.00" departDelay="0.57" arrival="73.00" arrivalLane="1341093416#0_0" arrivalPos="21.94" arrivalSpeed="15.31" duration="21.00" routeLength="166.04" waitingTime="0.00" waitingCount="0" stopTime="0.00" timeLoss="10.95" rerouteNo="0" devices="tripinfo_flow_route_54_duration_20250327_2010.6" vType="car" speedFactor="0.93" vaporized=""/>
    <tripinfo id="flow_route_56_duration_20250327_2010.6" depart="53.00" departLane="1341093415#0_0" departPos="37.85" departSpeed="0.00" departDelay="1.57" arrival="80.00" arrivalLane="409155823_0" arrivalPos="63.55" arrivalSpeed="15.37" duration="27.00" routeLength="230.53" waitingTime="0.00" waitingCount="0" stopTime="0.00" timeLoss="11.84" rerouteNo="0" devices="tripinfo_flow_route_56_duration_20250327_2010.6" vType="car" speedFactor="1.18" vaporized=""/>
    <tripinfo id="flow_route_55_duration_20250327_2010.3" depart="47.00" departLane="1341093415#0_0" departPos="60.43" departSpeed="0.00" departDelay="2.00" arrival="81.00" arrivalLane="791826085_0" arrivalPos="178.32" arrivalSpeed="15.21" duration="34.00" routeLength="307.60" waitingTime="0.00" waitingCount="0" stopTime="0.00" timeLoss="12.49" rerouteNo="0" devices="tripinfo_flow_route_55_duration_20250327_2010.3" vType="car" speedFactor="0.92" vaporized=""/>
    <tripinfo id="flow_route_60_duration_20250327_2010.5" depart="30.00" departLane="186407684#0_0" departPos="71.54" departSpeed="0.00" departDelay="0.00" arrival="90.00" arrivalLane="791826085_0" arrivalPos="54.77" arrivalSpeed="10.83" duration="60.00" routeLength="92.17" waitingTime="39.00" waitingCount="1" stopTime="0.00" timeLoss="53.59" rerouteNo="0" devices="tripinfo_flow_route_60_duration_20250327_2010.5" vType="car" speedFactor="0.94" vaporized=""/>
    <tripinfo id="flow_route_60_duration_20250327_2010.7" depart="43.00" departLane="186407684#0_0" departPos="13.38" departSpeed="0.00" departDelay="1.00" arrival="92.00" arrivalLane="791826085_1" arrivalPos="54.92" arrivalSpeed="11.52" duration="49.00" routeLength="150.47" waitingTime="19.00" waitingCount="1" stopTime="0.00" timeLoss="38.10" rerouteNo="0" devices="tripinfo_flow_route_60_duration_20250327_2010.7" vType="car" speedFactor="0.89" vaporized=""/>
    <tripinfo id="flow_route_61_duration_20250327_2010.2" depart="30.00" departLane="186407684#0_0" departPos="7.85" departSpeed="0.00" departDelay="0.00" arrival="97.00" arrivalLane="1341093416#0_1" arrivalPos="156.73" arrivalSpeed="16.25" duration="67.00" routeLength="258.90" waitingTime="29.00" waitingCount="1" stopTime="0.00" timeLoss="50.35" rerouteNo="0" devices="tripinfo_flow_route_61_duration_20250327_2010.2" vType="car" speedFactor="1.16" vaporized=""/>
    <tripinfo id="flow_route_60_duration_20250327_2010.4" depart="24.00" departLane="186407684#0_0" departPos="29.20" departSpeed="0.00" departDelay="0.00" arrival="101.00" arrivalLane="791826085_0" arrivalPos="223.42" arrivalSpeed="16.07" duration="77.00" routeLength="303.15" waitingTime="37.00" waitingCount="1" stopTime="0.00" timeLoss="58.06" rerouteNo="0" devices="tripinfo_flow_route_60_duration_20250327_2010.4" vType="car" speedFactor="0.99" vaporized=""/>
    <tripinfo id="flow_route_60_duration_20250327_2010.6" depart="37.00" departLane="186407684#0_0" departPos="51.12" departSpeed="0.00" departDelay="1.00" arrival="103.00" arrivalLane="791826085_0" arrivalPos="225.55" arrivalSpeed="16.05" duration="66.00" routeLength="283.36" waitingTime="30.00" waitingCount="1" stopTime="0.00" timeLoss="48.30" rerouteNo="0" devices="tripinfo_flow_route_60_duration_20250327_2010.6" vType="car" speedFactor="0.97" vaporized=""/>
    <tripinfo id="flow_route_60_duration_20250327_2010.8" depart="50.00" departLane="186407684#0_0" departPos="4.13" departSpeed="0.00" departDelay="2.00" arrival="103.00" arrivalLane="791826085_1" arrivalPos="184.96" arrivalSpeed="16.26" duration="53.00" routeLength="289.77" waitingTime="12.00" waitingCount="1" stopTime="0.00" timeLoss="34.64" rerouteNo="0" devices="tripinfo_flow_route_60_duration_20250327_2010.8" vType="car" speedFactor="1.13" vaporized=""/>
    <tripinfo id="flow_route_61_duration_20250327_2010.3" depart="47.00" departLane="186407684#0_0" departPos="7.58" departSpeed="0.00" departDelay="2.00" arrival="104.00" arrivalLane="1341093416#0_2" arrivalPos="254.48" arrivalSpeed="16.18" duration="57.00" routeLength="356.92" waitingTime="15.00" waitingCount="1" stopTime="0.00" timeLoss="34.56" rerouteNo="0" devices="tripinfo_flow_route_61_duration_20250327_2010.3" vType="car" speedFactor="0.95" vaporized=""/>
    <tripinfo id="flow_route_60_duration_20250327_2010.9" depart="54.00" departLane="186407684#0_0" departPos="37.30" departSpeed="0.00" departDelay="0.00" arrival="105.00" arrivalLane="791826085_0" arrivalPos="221.34" arrivalSpeed="16.43" duration="51.00" routeLength="292.97" waitingTime="13.00" waitingCount="1" stopTime="0.00" timeLoss="32.79" rerouteNo="0" devices="tripinfo_flow_route_60_duration_20250327_2010.9" vType="car" speedFactor="1.15" vaporized=""/>
</tripinfos>
