<?xml version="1.0" encoding="UTF-8"?>

<!-- generated on 2025-05-06 21:07:51 by Eclipse SUMO sumo Version 1.20.0
<configuration xmlns:xsi="http://www.w3.org/2001/XMLSchema-instance" xsi:noNamespaceSchemaLocation="http://sumo.dlr.de/xsd/sumoConfiguration.xsd">

    <input>
        <net-file value="osm.net.xml"/>
        <route-files value="xml/route_rl_cluster3839130731_cluster_11644940326_11644940327_11648561426_1.rou.xml"/>
    </input>

    <output>
        <tripinfo-output value="xml/tripinfo_rl_cluster3839130731_cluster_11644940326_11644940327_11648561426_1.xml"/>
    </output>

    <traci_server>
        <remote-port value="35301"/>
    </traci_server>

</configuration>
-->

<tripinfos xmlns:xsi="http://www.w3.org/2001/XMLSchema-instance" xsi:noNamespaceSchemaLocation="http://sumo.dlr.de/xsd/tripinfo_file.xsd">
    <tripinfo id="flow_route_123_duration_20250327_1920.1" depart="2.00" departLane="189240000#0-AddedOnRampEdge_0" departPos="73.73" departSpeed="0.00" departDelay="0.18" arrival="18.00" arrivalLane="1254519229#0_0" arrivalPos="27.28" arrivalSpeed="12.22" duration="16.00" routeLength="95.88" waitingTime="0.00" waitingCount="0" stopTime="0.00" timeLoss="9.21" rerouteNo="0" devices="tripinfo_flow_route_123_duration_20250327_1920.1" vType="car" speedFactor="0.92" vaporized=""/>
    <tripinfo id="flow_route_123_duration_20250327_1920.0" depart="0.00" departLane="189240000#0-AddedOnRampEdge_0" departPos="5.69" departSpeed="0.00" departDelay="0.00" arrival="21.00" arrivalLane="1254519229#0_1" arrivalPos="19.69" arrivalSpeed="11.13" duration="21.00" routeLength="159.84" waitingTime="0.00" waitingCount="0" stopTime="0.00" timeLoss="9.55" rerouteNo="0" devices="tripinfo_flow_route_123_duration_20250327_1920.0" vType="car" speedFactor="0.89" vaporized=""/>
    <tripinfo id="flow_route_123_duration_20250327_1920.3" depart="6.00" departLane="189240000#0-AddedOnRampEdge_0" departPos="57.05" departSpeed="0.00" departDelay="0.55" arrival="28.00" arrivalLane="1254519229#0_1" arrivalPos="45.39" arrivalSpeed="13.25" duration="22.00" routeLength="134.18" waitingTime="0.00" waitingCount="0" stopTime="0.00" timeLoss="13.32" rerouteNo="0" devices="tripinfo_flow_route_123_duration_20250327_1920.3" vType="car" speedFactor="1.26" vaporized=""/>
    <tripinfo id="flow_route_123_duration_20250327_1920.4" depart="9.00" departLane="189240000#0-AddedOnRampEdge_0" departPos="78.61" departSpeed="0.00" departDelay="1.73" arrival="28.00" arrivalLane="1254519229#0_0" arrivalPos="78.94" arrivalSpeed="14.72" duration="19.00" routeLength="142.66" waitingTime="0.00" waitingCount="0" stopTime="0.00" timeLoss="9.27" rerouteNo="0" devices="tripinfo_flow_route_123_duration_20250327_1920.4" vType="car" speedFactor="1.08" vaporized=""/>
    <tripinfo id="flow_route_123_duration_20250327_1920.8" depart="15.00" departLane="189240000#0-AddedOnRampEdge_0" departPos="83.80" departSpeed="0.00" departDelay="0.46" arrival="28.00" arrivalLane="1254519229#0_0" arrivalPos="13.70" arrivalSpeed="9.95" duration="13.00" routeLength="72.23" waitingTime="0.00" waitingCount="0" stopTime="0.00" timeLoss="7.69" rerouteNo="0" devices="tripinfo_flow_route_123_duration_20250327_1920.8" vType="car" speedFactor="0.94" vaporized=""/>
    <tripinfo id="flow_route_123_duration_20250327_1920.2" depart="4.00" departLane="189240000#0-AddedOnRampEdge_0" departPos="11.28" departSpeed="0.00" departDelay="0.36" arrival="31.00" arrivalLane="1254519229#0_1" arrivalPos="45.32" arrivalSpeed="14.73" duration="27.00" routeLength="179.89" waitingTime="0.00" waitingCount="0" stopTime="0.00" timeLoss="15.63" rerouteNo="0" devices="tripinfo_flow_route_123_duration_20250327_1920.2" vType="car" speedFactor="1.03" vaporized=""/>
    <tripinfo id="flow_route_95_duration_20250327_1920.1" depart="4.00" departLane="1341093416#0_0" departPos="182.64" departSpeed="0.00" departDelay="0.25" arrival="33.00" arrivalLane="1254519225#0.109_0" arrivalPos="56.72" arrivalSpeed="16.21" duration="29.00" routeLength="256.45" waitingTime="0.00" waitingCount="0" stopTime="0.00" timeLoss="12.82" rerouteNo="0" devices="tripinfo_flow_route_95_duration_20250327_1920.1" vType="car" speedFactor="1.00" vaporized=""/>
    <tripinfo id="flow_route_123_duration_20250327_1920.6" depart="11.00" departLane="189240000#0-AddedOnRampEdge_0" departPos="53.86" departSpeed="0.00" departDelay="0.09" arrival="33.00" arrivalLane="1254519229#0_0" arrivalPos="46.10" arrivalSpeed="12.61" duration="22.00" routeLength="134.57" waitingTime="0.00" waitingCount="0" stopTime="0.00" timeLoss="12.99" rerouteNo="0" devices="tripinfo_flow_route_123_duration_20250327_1920.6" vType="car" speedFactor="1.08" vaporized=""/>
    <tripinfo id="flow_route_124_duration_20250327_1920.0" depart="0.00" departLane="189240000#0-AddedOnRampEdge_0" departPos="82.66" departSpeed="0.00" departDelay="0.00" arrival="35.00" arrivalLane="1254519225#0.109_3" arrivalPos="34.02" arrivalSpeed="14.71" duration="35.00" routeLength="196.39" waitingTime="3.00" waitingCount="1" stopTime="0.00" timeLoss="20.83" rerouteNo="0" devices="tripinfo_flow_route_124_duration_20250327_1920.0" vType="car" speedFactor="0.94" vaporized=""/>
    <tripinfo id="flow_route_124_duration_20250327_1920.2" depart="4.00" departLane="189240000#0-AddedOnRampEdge_0" departPos="43.02" departSpeed="0.00" departDelay="0.57" arrival="36.00" arrivalLane="1254519225#0.109_3" arrivalPos="2.16" arrivalSpeed="13.21" duration="32.00" routeLength="204.17" waitingTime="0.00" waitingCount="0" stopTime="0.00" timeLoss="18.48" rerouteNo="0" devices="tripinfo_flow_route_124_duration_20250327_1920.2" vType="car" speedFactor="1.08" vaporized=""/>
    <tripinfo id="flow_route_123_duration_20250327_1920.9" depart="19.00" departLane="189240000#0-AddedOnRampEdge_0" departPos="75.52" departSpeed="0.00" departDelay="2.64" arrival="36.00" arrivalLane="1254519229#0_0" arrivalPos="33.52" arrivalSpeed="12.48" duration="17.00" routeLength="100.33" waitingTime="0.00" waitingCount="0" stopTime="0.00" timeLoss="9.79" rerouteNo="0" devices="tripinfo_flow_route_123_duration_20250327_1920.9" vType="car" speedFactor="0.93" vaporized=""/>
    <tripinfo id="flow_route_94_duration_20250327_1920.0" depart="0.00" departLane="1341093416#0_0" departPos="204.30" departSpeed="0.00" departDelay="0.00" arrival="37.00" arrivalLane="799091563#0_0" arrivalPos="338.33" arrivalSpeed="16.41" duration="37.00" routeLength="440.38" waitingTime="0.00" waitingCount="0" stopTime="0.00" timeLoss="9.91" rerouteNo="0" devices="tripinfo_flow_route_94_duration_20250327_1920.0" vType="car" speedFactor="1.06" vaporized=""/>
    <tripinfo id="flow_route_124_duration_20250327_1920.4" depart="7.00" departLane="189240000#0-AddedOnRampEdge_0" departPos="80.65" departSpeed="0.00" departDelay="0.14" arrival="37.00" arrivalLane="1254519225#0.109_3" arrivalPos="32.48" arrivalSpeed="14.96" duration="30.00" routeLength="196.86" waitingTime="0.00" waitingCount="0" stopTime="0.00" timeLoss="16.43" rerouteNo="0" devices="tripinfo_flow_route_124_duration_20250327_1920.4" vType="car" speedFactor="1.07" vaporized=""/>
    <tripinfo id="flow_route_96_duration_20250327_1920.0" depart="0.00" departLane="1341093416#0_0" departPos="184.53" departSpeed="0.00" departDelay="0.00" arrival="38.00" arrivalLane="1254519229#0_1" arrivalPos="3.62" arrivalSpeed="2.87" duration="38.00" routeLength="114.10" waitingTime="16.00" waitingCount="1" stopTime="0.00" timeLoss="29.97" rerouteNo="0" devices="tripinfo_flow_route_96_duration_20250327_1920.0" vType="car" speedFactor="1.01" vaporized=""/>
    <tripinfo id="flow_route_123_duration_20250327_1920.5" depart="10.00" departLane="189240000#0-AddedOnRampEdge_0" departPos="12.53" departSpeed="0.00" departDelay="0.91" arrival="38.00" arrivalLane="1254519229#0_1" arrivalPos="51.65" arrivalSpeed="14.84" duration="28.00" routeLength="184.96" waitingTime="0.00" waitingCount="0" stopTime="0.00" timeLoss="16.01" rerouteNo="0" devices="tripinfo_flow_route_123_duration_20250327_1920.5" vType="car" speedFactor="1.02" vaporized=""/>
    <tripinfo id="flow_route_124_duration_20250327_1920.1" depart="2.00" departLane="189240000#0-AddedOnRampEdge_0" departPos="26.55" departSpeed="0.00" departDelay="0.29" arrival="41.00" arrivalLane="1254519225#0.109_3" arrivalPos="43.64" arrivalSpeed="15.74" duration="39.00" routeLength="262.12" waitingTime="0.00" waitingCount="0" stopTime="0.00" timeLoss="21.89" rerouteNo="0" devices="tripinfo_flow_route_124_duration_20250327_1920.1" vType="car" speedFactor="1.09" vaporized=""/>
    <tripinfo id="flow_route_124_duration_20250327_1920.6" depart="12.00" departLane="189240000#0-AddedOnRampEdge_0" departPos="81.36" departSpeed="0.00" departDelay="1.72" arrival="43.00" arrivalLane="1254519225#0.109_3" arrivalPos="20.90" arrivalSpeed="14.26" duration="31.00" routeLength="184.57" waitingTime="2.00" waitingCount="2" stopTime="0.00" timeLoss="18.73" rerouteNo="0" devices="tripinfo_flow_route_124_duration_20250327_1920.6" vType="car" speedFactor="1.04" vaporized=""/>
    <tripinfo id="flow_route_95_duration_20250327_1920.3" depart="14.00" departLane="1341093416#0_0" departPos="151.18" departSpeed="0.00" departDelay="2.75" arrival="43.00" arrivalLane="1254519225#0.109_0" arrivalPos="8.78" arrivalSpeed="15.29" duration="29.00" routeLength="239.98" waitingTime="0.00" waitingCount="0" stopTime="0.00" timeLoss="13.48" rerouteNo="0" devices="tripinfo_flow_route_95_duration_20250327_1920.3" vType="car" speedFactor="1.16" vaporized=""/>
    <tripinfo id="flow_route_96_duration_20250327_1920.1" depart="15.00" departLane="1341093416#0_0" departPos="259.21" departSpeed="0.00" departDelay="0.00" arrival="45.00" arrivalLane="1254519229#0_1" arrivalPos="20.92" arrivalSpeed="7.69" duration="30.00" routeLength="56.72" waitingTime="11.00" waitingCount="1" stopTime="0.00" timeLoss="25.27" rerouteNo="0" devices="tripinfo_flow_route_96_duration_20250327_1920.1" vType="car" speedFactor="1.08" vaporized=""/>
    <tripinfo id="flow_route_124_duration_20250327_1920.3" depart="6.00" departLane="189240000#0-AddedOnRampEdge_0" departPos="1.55" departSpeed="0.00" departDelay="0.86" arrival="47.00" arrivalLane="1254519225#0.109_3" arrivalPos="20.43" arrivalSpeed="14.75" duration="41.00" routeLength="263.92" waitingTime="0.00" waitingCount="0" stopTime="0.00" timeLoss="23.12" rerouteNo="0" devices="tripinfo_flow_route_124_duration_20250327_1920.3" vType="car" speedFactor="0.97" vaporized=""/>
    <tripinfo id="flow_route_124_duration_20250327_1920.5" depart="9.00" departLane="189240000#0-AddedOnRampEdge_0" departPos="48.24" departSpeed="0.00" departDelay="0.43" arrival="47.00" arrivalLane="1254519225#0.109_3" arrivalPos="54.20" arrivalSpeed="16.14" duration="38.00" routeLength="250.98" waitingTime="0.00" waitingCount="0" stopTime="0.00" timeLoss="21.29" rerouteNo="0" devices="tripinfo_flow_route_124_duration_20250327_1920.5" vType="car" speedFactor="1.02" vaporized=""/>
    <tripinfo id="flow_route_95_duration_20250327_1920.0" depart="0.00" departLane="1341093416#0_0" departPos="1.65" departSpeed="0.00" departDelay="0.00" arrival="48.00" arrivalLane="1254519225#0.109_0" arrivalPos="44.45" arrivalSpeed="15.27" duration="48.00" routeLength="425.17" waitingTime="0.00" waitingCount="0" stopTime="0.00" timeLoss="21.16" rerouteNo="0" devices="tripinfo_flow_route_95_duration_20250327_1920.0" vType="car" speedFactor="0.94" vaporized=""/>
    <tripinfo id="flow_route_111_duration_20250327_1920.18" depart="12.00" departLane="1253188486#8_0" departPos="236.10" departSpeed="0.00" departDelay="11.42" arrival="49.00" arrivalLane="1254519229#0_0" arrivalPos="2.37" arrivalSpeed="7.30" duration="37.00" routeLength="42.49" waitingTime="25.00" waitingCount="1" stopTime="0.00" timeLoss="34.33" rerouteNo="0" devices="tripinfo_flow_route_111_duration_20250327_1920.18" vType="car" speedFactor="0.92" vaporized=""/>
    <tripinfo id="flow_route_111_duration_20250327_1920.9" depart="6.00" departLane="1253188486#8_0" departPos="239.07" departSpeed="0.00" departDelay="5.71" arrival="53.00" arrivalLane="1254519229#0_0" arrivalPos="70.63" arrivalSpeed="12.04" duration="47.00" routeLength="107.78" waitingTime="26.00" waitingCount="1" stopTime="0.00" timeLoss="40.39" rerouteNo="0" devices="tripinfo_flow_route_111_duration_20250327_1920.9" vType="car" speedFactor="0.94" vaporized=""/>
    <tripinfo id="flow_route_111_duration_20250327_1920.10" depart="6.00" departLane="1253188486#8_0" departPos="222.65" departSpeed="0.00" departDelay="5.68" arrival="53.00" arrivalLane="1254519229#0_0" arrivalPos="31.56" arrivalSpeed="9.65" duration="47.00" routeLength="85.12" waitingTime="23.00" waitingCount="2" stopTime="0.00" timeLoss="41.48" rerouteNo="0" devices="tripinfo_flow_route_111_duration_20250327_1920.10" vType="car" speedFactor="0.94" vaporized=""/>
    <tripinfo id="flow_route_111_duration_20250327_1920.0" depart="0.00" departLane="1253188486#8_0" departPos="138.93" departSpeed="0.00" departDelay="0.00" arrival="54.00" arrivalLane="1254519229#0_0" arrivalPos="3.47" arrivalSpeed="8.87" duration="54.00" routeLength="140.76" waitingTime="20.00" waitingCount="1" stopTime="0.00" timeLoss="45.20" rerouteNo="0" devices="tripinfo_flow_route_111_duration_20250327_1920.0" vType="car" speedFactor="0.83" vaporized=""/>
    <tripinfo id="flow_route_111_duration_20250327_1920.6" depart="4.00" departLane="1253188486#8_0" departPos="183.90" departSpeed="0.00" departDelay="3.81" arrival="57.00" arrivalLane="1254519229#0_1" arrivalPos="50.41" arrivalSpeed="11.94" duration="53.00" routeLength="142.73" waitingTime="21.00" waitingCount="1" stopTime="0.00" timeLoss="43.82" rerouteNo="0" devices="tripinfo_flow_route_111_duration_20250327_1920.6" vType="car" speedFactor="0.99" vaporized=""/>
    <tripinfo id="flow_route_111_duration_20250327_1920.15" depart="10.00" departLane="1253188486#8_0" departPos="218.96" departSpeed="0.00" departDelay="9.52" arrival="57.00" arrivalLane="1254519229#0_0" arrivalPos="60.83" arrivalSpeed="11.77" duration="47.00" routeLength="118.09" waitingTime="21.00" waitingCount="1" stopTime="0.00" timeLoss="39.75" rerouteNo="0" devices="tripinfo_flow_route_111_duration_20250327_1920.15" vType="car" speedFactor="0.89" vaporized=""/>
    <tripinfo id="flow_route_111_duration_20250327_1920.5" depart="2.00" departLane="1253188486#8_0" departPos="114.41" departSpeed="0.00" departDelay="1.84" arrival="58.00" arrivalLane="1254519229#0_1" arrivalPos="24.43" arrivalSpeed="10.80" duration="56.00" routeLength="186.24" waitingTime="19.00" waitingCount="1" stopTime="0.00" timeLoss="44.41" rerouteNo="0" devices="tripinfo_flow_route_111_duration_20250327_1920.5" vType="car" speedFactor="1.12" vaporized=""/>
    <tripinfo id="flow_route_104_duration_20250327_1920.0" depart="0.00" departLane="189240001_0" departPos="36.52" departSpeed="0.00" departDelay="0.00" arrival="60.00" arrivalLane="1254519225#0.109_0" arrivalPos="30.66" arrivalSpeed="15.92" duration="60.00" routeLength="198.30" waitingTime="26.00" waitingCount="2" stopTime="0.00" timeLoss="47.57" rerouteNo="0" devices="tripinfo_flow_route_104_duration_20250327_1920.0" vType="car" speedFactor="1.08" vaporized=""/>
    <tripinfo id="flow_route_111_duration_20250327_1920.1" depart="1.00" departLane="1253188486#8_0" departPos="157.42" departSpeed="0.00" departDelay="0.97" arrival="60.00" arrivalLane="1254519229#0_1" arrivalPos="25.62" arrivalSpeed="11.15" duration="59.00" routeLength="144.42" waitingTime="18.00" waitingCount="1" stopTime="0.00" timeLoss="50.01" rerouteNo="0" devices="tripinfo_flow_route_111_duration_20250327_1920.1" vType="car" speedFactor="0.86" vaporized=""/>
    <tripinfo id="flow_route_111_duration_20250327_1920.34" depart="43.00" departLane="1253188486#8_0" departPos="229.92" departSpeed="0.00" departDelay="41.91" arrival="60.00" arrivalLane="1254519229#0_0" arrivalPos="5.33" arrivalSpeed="8.50" duration="17.00" routeLength="51.63" waitingTime="1.00" waitingCount="1" stopTime="0.00" timeLoss="13.48" rerouteNo="0" devices="tripinfo_flow_route_111_duration_20250327_1920.34" vType="car" speedFactor="1.10" vaporized=""/>
    <tripinfo id="flow_route_104_duration_20250327_1920.4" depart="41.00" departLane="189240001_0" departPos="47.50" departSpeed="0.00" departDelay="1.00" arrival="62.00" arrivalLane="1254519225#0.109_0" arrivalPos="6.16" arrivalSpeed="14.95" duration="21.00" routeLength="162.82" waitingTime="0.00" waitingCount="0" stopTime="0.00" timeLoss="10.58" rerouteNo="0" devices="tripinfo_flow_route_104_duration_20250327_1920.4" vType="car" speedFactor="0.94" vaporized=""/>
    <tripinfo id="flow_route_111_duration_20250327_1920.3" depart="1.00" departLane="1253188486#8_0" departPos="6.83" departSpeed="0.00" departDelay="0.90" arrival="63.00" arrivalLane="1254519229#0_1" arrivalPos="3.68" arrivalSpeed="11.10" duration="62.00" routeLength="273.07" waitingTime="16.00" waitingCount="1" stopTime="0.00" timeLoss="44.93" rerouteNo="0" devices="tripinfo_flow_route_111_duration_20250327_1920.3" vType="car" speedFactor="1.03" vaporized=""/>
    <tripinfo id="flow_route_104_duration_20250327_1920.1" depart="10.00" departLane="189240001_0" departPos="10.18" departSpeed="0.00" departDelay="0.00" arrival="63.00" arrivalLane="1254519225#0.109_0" arrivalPos="37.13" arrivalSpeed="16.27" duration="53.00" routeLength="231.11" waitingTime="14.00" waitingCount="1" stopTime="0.00" timeLoss="38.35" rerouteNo="0" devices="tripinfo_flow_route_104_duration_20250327_1920.1" vType="car" speedFactor="1.09" vaporized=""/>
    <tripinfo id="flow_route_111_duration_20250327_1920.21" depart="15.00" departLane="1253188486#8_0" departPos="226.41" departSpeed="0.00" departDelay="14.33" arrival="64.00" arrivalLane="1254519229#0_0" arrivalPos="10.29" arrivalSpeed="9.52" duration="49.00" routeLength="60.11" waitingTime="31.00" waitingCount="2" stopTime="0.00" timeLoss="44.90" rerouteNo="0" devices="tripinfo_flow_route_111_duration_20250327_1920.21" vType="car" speedFactor="0.93" vaporized=""/>
    <tripinfo id="flow_route_111_duration_20250327_1920.8" depart="5.00" departLane="1253188486#8_0" departPos="133.63" departSpeed="0.00" departDelay="4.74" arrival="66.00" arrivalLane="1254519229#0_1" arrivalPos="65.59" arrivalSpeed="13.81" duration="61.00" routeLength="208.18" waitingTime="17.00" waitingCount="1" stopTime="0.00" timeLoss="47.94" rerouteNo="0" devices="tripinfo_flow_route_111_duration_20250327_1920.8" vType="car" speedFactor="0.88" vaporized=""/>
    <tripinfo id="flow_route_111_duration_20250327_1920.12" depart="9.00" departLane="1253188486#8_0" departPos="83.13" departSpeed="0.00" departDelay="8.62" arrival="66.00" arrivalLane="1254519229#0_1" arrivalPos="18.84" arrivalSpeed="12.40" duration="57.00" routeLength="211.93" waitingTime="16.00" waitingCount="1" stopTime="0.00" timeLoss="43.77" rerouteNo="0" devices="tripinfo_flow_route_111_duration_20250327_1920.12" vType="car" speedFactor="1.02" vaporized=""/>
    <tripinfo id="flow_route_111_duration_20250327_1920.4" depart="2.00" departLane="1253188486#8_0" departPos="24.91" departSpeed="0.00" departDelay="1.87" arrival="69.00" arrivalLane="1254519229#0_1" arrivalPos="40.82" arrivalSpeed="13.65" duration="67.00" routeLength="292.13" waitingTime="17.00" waitingCount="1" stopTime="0.00" timeLoss="49.26" rerouteNo="0" devices="tripinfo_flow_route_111_duration_20250327_1920.4" vType="car" speedFactor="1.05" vaporized=""/>
    <tripinfo id="flow_route_111_duration_20250327_1920.11" depart="8.00" departLane="1253188486#8_0" departPos="20.24" departSpeed="0.00" departDelay="7.65" arrival="71.00" arrivalLane="1254519229#0_1" arrivalPos="43.31" arrivalSpeed="14.43" duration="63.00" routeLength="299.29" waitingTime="17.00" waitingCount="1" stopTime="0.00" timeLoss="44.76" rerouteNo="0" devices="tripinfo_flow_route_111_duration_20250327_1920.11" vType="car" speedFactor="1.16" vaporized=""/>
    <tripinfo id="flow_route_111_duration_20250327_1920.37" depart="52.00" departLane="1253188486#8_0" departPos="238.03" departSpeed="0.00" departDelay="50.82" arrival="71.00" arrivalLane="1254519229#0_0" arrivalPos="24.97" arrivalSpeed="9.19" duration="19.00" routeLength="63.17" waitingTime="2.00" waitingCount="2" stopTime="0.00" timeLoss="14.69" rerouteNo="0" devices="tripinfo_flow_route_111_duration_20250327_1920.37" vType="car" speedFactor="0.90" vaporized=""/>
    <tripinfo id="flow_route_104_duration_20250327_1920.3" depart="31.00" departLane="189240001_0" departPos="46.24" departSpeed="0.00" departDelay="1.00" arrival="72.00" arrivalLane="1254519225#0.109_0" arrivalPos="44.40" arrivalSpeed="16.10" duration="41.00" routeLength="202.32" waitingTime="4.00" waitingCount="1" stopTime="0.00" timeLoss="28.34" rerouteNo="0" devices="tripinfo_flow_route_104_duration_20250327_1920.3" vType="car" speedFactor="1.06" vaporized=""/>
    <tripinfo id="flow_route_104_duration_20250327_1920.5" depart="51.00" departLane="189240001_0" departPos="43.04" departSpeed="0.00" departDelay="1.00" arrival="72.00" arrivalLane="1254519225#0.109_0" arrivalPos="5.56" arrivalSpeed="14.87" duration="21.00" routeLength="166.68" waitingTime="0.00" waitingCount="0" stopTime="0.00" timeLoss="9.42" rerouteNo="0" devices="tripinfo_flow_route_104_duration_20250327_1920.5" vType="car" speedFactor="0.92" vaporized=""/>
    <tripinfo id="flow_route_111_duration_20250327_1920.31" depart="18.00" departLane="1253188486#8_0" departPos="197.60" departSpeed="0.00" departDelay="17.01" arrival="73.00" arrivalLane="1254519229#0_0" arrivalPos="7.08" arrivalSpeed="9.05" duration="55.00" routeLength="85.71" waitingTime="29.00" waitingCount="1" stopTime="0.00" timeLoss="49.36" rerouteNo="0" devices="tripinfo_flow_route_111_duration_20250327_1920.31" vType="car" speedFactor="0.90" vaporized=""/>
    <tripinfo id="flow_route_111_duration_20250327_1920.26" depart="15.00" departLane="1253188486#8_0" departPos="119.08" departSpeed="0.00" departDelay="14.17" arrival="74.00" arrivalLane="1254519229#0_1" arrivalPos="17.75" arrivalSpeed="14.11" duration="59.00" routeLength="174.90" waitingTime="16.00" waitingCount="1" stopTime="0.00" timeLoss="47.70" rerouteNo="0" devices="tripinfo_flow_route_111_duration_20250327_1920.26" vType="car" speedFactor="0.99" vaporized=""/>
    <tripinfo id="flow_route_111_duration_20250327_1920.2" depart="1.00" departLane="1253188486#8_0" departPos="37.25" departSpeed="0.00" departDelay="0.94" arrival="75.00" arrivalLane="1254519229#0_1" arrivalPos="54.39" arrivalSpeed="15.27" duration="74.00" routeLength="293.36" waitingTime="16.00" waitingCount="1" stopTime="0.00" timeLoss="55.46" rerouteNo="0" devices="tripinfo_flow_route_111_duration_20250327_1920.2" vType="car" speedFactor="1.09" vaporized=""/>
    <tripinfo id="flow_route_111_duration_20250327_1920.29" depart="17.00" departLane="1253188486#8_0" departPos="209.30" departSpeed="0.00" departDelay="16.07" arrival="76.00" arrivalLane="1254519229#0_0" arrivalPos="19.21" arrivalSpeed="10.03" duration="59.00" routeLength="86.13" waitingTime="32.00" waitingCount="2" stopTime="0.00" timeLoss="53.60" rerouteNo="0" devices="tripinfo_flow_route_111_duration_20250327_1920.29" vType="car" speedFactor="1.18" vaporized=""/>
    <tripinfo id="flow_route_111_duration_20250327_1920.7" depart="5.00" departLane="1253188486#8_0" departPos="195.04" departSpeed="0.00" departDelay="4.78" arrival="77.00" arrivalLane="1254519229#0_0" arrivalPos="74.72" arrivalSpeed="12.37" duration="72.00" routeLength="155.89" waitingTime="27.00" waitingCount="5" stopTime="0.00" timeLoss="62.42" rerouteNo="0" devices="tripinfo_flow_route_111_duration_20250327_1920.7" vType="car" speedFactor="0.93" vaporized=""/>
    <tripinfo id="flow_route_111_duration_20250327_1920.24" depart="15.00" departLane="1253188486#8_0" departPos="85.03" departSpeed="0.00" departDelay="14.23" arrival="79.00" arrivalLane="1254519229#0_1" arrivalPos="76.75" arrivalSpeed="16.25" duration="64.00" routeLength="267.94" waitingTime="17.00" waitingCount="1" stopTime="0.00" timeLoss="47.46" rerouteNo="0" devices="tripinfo_flow_route_111_duration_20250327_1920.24" vType="car" speedFactor="1.01" vaporized=""/>
    <tripinfo id="flow_route_123_duration_20250327_1920.14" depart="26.00" departLane="189240000#0-AddedOnRampEdge_0" departPos="86.25" departSpeed="0.00" departDelay="0.55" arrival="86.00" arrivalLane="1254519229#0_0" arrivalPos="31.66" arrivalSpeed="8.73" duration="60.00" routeLength="87.75" waitingTime="37.00" waitingCount="1" stopTime="0.00" timeLoss="53.35" rerouteNo="0" devices="tripinfo_flow_route_123_duration_20250327_1920.14" vType="car" speedFactor="0.85" vaporized=""/>
    <tripinfo id="flow_route_112_duration_20250327_1920.1" depart="18.00" departLane="1253188486#8_0" departPos="181.55" departSpeed="0.00" departDelay="17.91" arrival="87.00" arrivalLane="799091563#0_0" arrivalPos="253.70" arrivalSpeed="16.21" duration="69.00" routeLength="326.86" waitingTime="29.00" waitingCount="1" stopTime="0.00" timeLoss="47.86" rerouteNo="0" devices="tripinfo_flow_route_112_duration_20250327_1920.1" vType="car" speedFactor="1.03" vaporized=""/>
    <tripinfo id="flow_route_112_duration_20250327_1920.3" depart="21.00" departLane="1253188486#8_0" departPos="167.91" departSpeed="0.00" departDelay="20.74" arrival="88.00" arrivalLane="799091563#0_0" arrivalPos="226.40" arrivalSpeed="16.16" duration="67.00" routeLength="313.20" waitingTime="23.00" waitingCount="1" stopTime="0.00" timeLoss="46.47" rerouteNo="0" devices="tripinfo_flow_route_112_duration_20250327_1920.3" vType="car" speedFactor="1.09" vaporized=""/>
    <tripinfo id="flow_route_104_duration_20250327_1920.2" depart="20.00" departLane="189240001_0" departPos="9.08" departSpeed="0.00" departDelay="0.00" arrival="88.00" arrivalLane="1254519225#0.109_0" arrivalPos="14.92" arrivalSpeed="14.66" duration="68.00" routeLength="210.01" waitingTime="29.00" waitingCount="2" stopTime="0.00" timeLoss="55.06" rerouteNo="0" devices="tripinfo_flow_route_104_duration_20250327_1920.2" vType="car" speedFactor="1.09" vaporized=""/>
    <tripinfo id="flow_route_123_duration_20250327_1920.11" depart="20.00" departLane="189240000#0-AddedOnRampEdge_0" departPos="37.93" departSpeed="0.00" departDelay="0.00" arrival="88.00" arrivalLane="1254519229#0_0" arrivalPos="51.77" arrivalSpeed="10.73" duration="68.00" routeLength="159.67" waitingTime="36.00" waitingCount="1" stopTime="0.00" timeLoss="57.78" rerouteNo="0" devices="tripinfo_flow_route_123_duration_20250327_1920.11" vType="car" speedFactor="1.06" vaporized=""/>
    <tripinfo id="flow_route_123_duration_20250327_1920.22" depart="41.00" departLane="189240000#0-AddedOnRampEdge_0" departPos="83.71" departSpeed="0.00" departDelay="1.00" arrival="88.00" arrivalLane="1254519229#0_1" arrivalPos="36.03" arrivalSpeed="10.07" duration="47.00" routeLength="98.17" waitingTime="25.00" waitingCount="1" stopTime="0.00" timeLoss="40.47" rerouteNo="0" devices="tripinfo_flow_route_123_duration_20250327_1920.22" vType="car" speedFactor="0.97" vaporized=""/>
    <tripinfo id="flow_route_123_duration_20250327_1920.7" depart="14.00" departLane="189240000#0-AddedOnRampEdge_0" departPos="47.70" departSpeed="0.00" departDelay="1.27" arrival="89.00" arrivalLane="1254519229#0_0" arrivalPos="42.03" arrivalSpeed="10.61" duration="75.00" routeLength="136.67" waitingTime="38.00" waitingCount="3" stopTime="0.00" timeLoss="65.66" rerouteNo="0" devices="tripinfo_flow_route_123_duration_20250327_1920.7" vType="car" speedFactor="0.93" vaporized=""/>
    <tripinfo id="flow_route_112_duration_20250327_1920.0" depart="0.00" departLane="1253188486#8_0" departPos="64.90" departSpeed="0.00" departDelay="0.00" arrival="94.00" arrivalLane="799091563#0_0" arrivalPos="282.23" arrivalSpeed="16.17" duration="94.00" routeLength="472.04" waitingTime="23.00" waitingCount="1" stopTime="0.00" timeLoss="64.20" rerouteNo="0" devices="tripinfo_flow_route_112_duration_20250327_1920.0" vType="car" speedFactor="1.05" vaporized=""/>
    <tripinfo id="flow_route_95_duration_20250327_1920.8" depart="34.00" departLane="1341093416#0_0" departPos="246.64" departSpeed="0.00" departDelay="4.00" arrival="96.00" arrivalLane="1254519225#0.109_0" arrivalPos="1.71" arrivalSpeed="13.78" duration="62.00" routeLength="137.43" waitingTime="33.00" waitingCount="1" stopTime="0.00" timeLoss="52.47" rerouteNo="0" devices="tripinfo_flow_route_95_duration_20250327_1920.8" vType="car" speedFactor="1.14" vaporized=""/>
    <tripinfo id="flow_route_95_duration_20250327_1920.9" depart="36.00" departLane="1341093416#0_0" departPos="269.02" departSpeed="0.00" departDelay="2.25" arrival="97.00" arrivalLane="1254519225#0.109_0" arrivalPos="41.21" arrivalSpeed="14.88" duration="61.00" routeLength="154.56" waitingTime="35.00" waitingCount="2" stopTime="0.00" timeLoss="50.51" rerouteNo="0" devices="tripinfo_flow_route_95_duration_20250327_1920.9" vType="car" speedFactor="1.13" vaporized=""/>
    <tripinfo id="flow_route_105_duration_20250327_1920.0" depart="1.00" departLane="189240001_0" departPos="14.37" departSpeed="0.00" departDelay="1.00" arrival="100.00" arrivalLane="799091563#0_2" arrivalPos="224.02" arrivalSpeed="16.14" duration="99.00" routeLength="319.21" waitingTime="53.00" waitingCount="2" stopTime="0.00" timeLoss="79.39" rerouteNo="0" devices="tripinfo_flow_route_105_duration_20250327_1920.0" vType="car" speedFactor="1.03" vaporized=""/>
    <tripinfo id="flow_route_95_duration_20250327_1920.4" depart="15.00" departLane="1341093416#0_0" departPos="76.64" departSpeed="0.00" departDelay="0.00" arrival="101.00" arrivalLane="1254519225#0.109_0" arrivalPos="14.30" arrivalSpeed="15.00" duration="86.00" routeLength="320.04" waitingTime="33.00" waitingCount="1" stopTime="0.00" timeLoss="65.36" rerouteNo="0" devices="tripinfo_flow_route_95_duration_20250327_1920.4" vType="car" speedFactor="1.10" vaporized=""/>