<?xml version="1.0" encoding="UTF-8"?>

<!-- generated on 2025-05-06 21:08:06 by Eclipse SUMO sumo Version 1.20.0
<configuration xmlns:xsi="http://www.w3.org/2001/XMLSchema-instance" xsi:noNamespaceSchemaLocation="http://sumo.dlr.de/xsd/sumoConfiguration.xsd">

    <input>
        <net-file value="osm.net.xml"/>
        <route-files value="xml/route_static_cluster_2271368471_4779869278_2.rou.xml"/>
    </input>

    <output>
        <tripinfo-output value="xml/tripinfo_static_cluster_2271368471_4779869278_2.xml"/>
    </output>

    <traci_server>
        <remote-port value="51571"/>
    </traci_server>

</configuration>
-->

<tripinfos xmlns:xsi="http://www.w3.org/2001/XMLSchema-instance" xsi:noNamespaceSchemaLocation="http://sumo.dlr.de/xsd/tripinfo_file.xsd">
    <tripinfo id="flow_route_36_duration_20250327_2040.0" depart="0.00" departLane="485211947#0_0" departPos="162.24" departSpeed="0.00" departDelay="0.00" arrival="23.00" arrivalLane="137415945#0_0" arrivalPos="6.94" arrivalSpeed="15.34" duration="23.00" routeLength="189.23" waitingTime="0.00" waitingCount="0" stopTime="0.00" timeLoss="10.37" rerouteNo="0" devices="tripinfo_flow_route_36_duration_20250327_2040.0" vType="car" speedFactor="0.94" vaporized=""/>
    <tripinfo id="flow_route_37_duration_20250327_2040.0" depart="0.00" departLane="485211947#0_0" departPos="59.66" departSpeed="0.00" departDelay="0.00" arrival="33.00" arrivalLane="-430406005#1_1" arrivalPos="133.07" arrivalSpeed="16.05" duration="33.00" routeLength="286.39" waitingTime="0.00" waitingCount="0" stopTime="0.00" timeLoss="12.84" rerouteNo="0" devices="tripinfo_flow_route_37_duration_20250327_2040.0" vType="car" speedFactor="0.86" vaporized=""/>
    <tripinfo id="flow_route_36_duration_20250327_2040.1" depart="5.00" departLane="485211947#0_0" departPos="43.86" departSpeed="0.00" departDelay="2.14" arrival="34.00" arrivalLane="137415945#0_1" arrivalPos="3.91" arrivalSpeed="16.50" duration="29.00" routeLength="304.58" waitingTime="0.00" waitingCount="0" stopTime="0.00" timeLoss="9.99" rerouteNo="0" devices="tripinfo_flow_route_36_duration_20250327_2040.1" vType="car" speedFactor="1.09" vaporized=""/>
    <tripinfo id="flow_route_36_duration_20250327_2040.5" depart="15.00" departLane="485211947#0_0" departPos="183.86" departSpeed="0.00" departDelay="0.72" arrival="35.00" arrivalLane="137415945#0_0" arrivalPos="6.96" arrivalSpeed="14.78" duration="20.00" routeLength="167.63" waitingTime="0.00" waitingCount="0" stopTime="0.00" timeLoss="8.69" rerouteNo="0" devices="tripinfo_flow_route_36_duration_20250327_2040.5" vType="car" speedFactor="0.89" vaporized=""/>
    <tripinfo id="flow_route_36_duration_20250327_2040.3" depart="11.00" departLane="485211947#0_0" departPos="132.59" departSpeed="0.00" departDelay="2.43" arrival="37.00" arrivalLane="137415945#0_0" arrivalPos="5.24" arrivalSpeed="15.04" duration="26.00" routeLength="217.18" waitingTime="0.00" waitingCount="0" stopTime="0.00" timeLoss="11.50" rerouteNo="0" devices="tripinfo_flow_route_36_duration_20250327_2040.3" vType="car" speedFactor="0.93" vaporized=""/>
    <tripinfo id="flow_route_36_duration_20250327_2040.2" depart="7.00" departLane="485211947#0_0" departPos="61.39" departSpeed="0.00" departDelay="1.29" arrival="38.00" arrivalLane="137415945#0_1" arrivalPos="2.03" arrivalSpeed="16.49" duration="31.00" routeLength="285.17" waitingTime="0.00" waitingCount="0" stopTime="0.00" timeLoss="12.93" rerouteNo="0" devices="tripinfo_flow_route_36_duration_20250327_2040.2" vType="car" speedFactor="0.99" vaporized=""/>
    <tripinfo id="flow_route_35_duration_20250327_2040.2" depart="12.00" departLane="485211947#0_0" departPos="107.48" departSpeed="0.00" departDelay="2.00" arrival="41.00" arrivalLane="1369578054_0" arrivalPos="50.33" arrivalSpeed="11.80" duration="29.00" routeLength="140.30" waitingTime="0.00" waitingCount="0" stopTime="0.00" timeLoss="19.02" rerouteNo="0" devices="tripinfo_flow_route_35_duration_20250327_2040.2" vType="car" speedFactor="0.94" vaporized=""/>
    <tripinfo id="flow_route_36_duration_20250327_2040.7" depart="22.00" departLane="485211947#0_0" departPos="171.38" departSpeed="0.00" departDelay="2.00" arrival="45.00" arrivalLane="137415945#0_0" arrivalPos="5.39" arrivalSpeed="15.39" duration="23.00" routeLength="178.54" waitingTime="0.00" waitingCount="0" stopTime="0.00" timeLoss="11.78" rerouteNo="0" devices="tripinfo_flow_route_36_duration_20250327_2040.7" vType="car" speedFactor="1.15" vaporized=""/>
    <tripinfo id="flow_route_35_duration_20250327_2040.0" depart="0.00" departLane="485211947#0_0" departPos="11.17" departSpeed="0.00" departDelay="0.00" arrival="46.00" arrivalLane="1369578054_0" arrivalPos="74.16" arrivalSpeed="12.75" duration="46.00" routeLength="260.46" waitingTime="0.00" waitingCount="0" stopTime="0.00" timeLoss="26.55" rerouteNo="0" devices="tripinfo_flow_route_35_duration_20250327_2040.0" vType="car" speedFactor="0.89" vaporized=""/>
    <tripinfo id="flow_route_36_duration_20250327_2040.4" depart="13.00" departLane="485211947#0_0" departPos="118.89" departSpeed="0.00" departDelay="1.57" arrival="47.00" arrivalLane="137415945#0_0" arrivalPos="12.22" arrivalSpeed="16.09" duration="34.00" routeLength="237.86" waitingTime="0.00" waitingCount="0" stopTime="0.00" timeLoss="19.15" rerouteNo="0" devices="tripinfo_flow_route_36_duration_20250327_2040.4" vType="car" speedFactor="1.02" vaporized=""/>
    <tripinfo id="flow_route_37_duration_20250327_2040.1" depart="22.00" departLane="485211947#0_0" departPos="91.29" departSpeed="0.00" departDelay="2.00" arrival="49.00" arrivalLane="-430406005#1_1" arrivalPos="109.85" arrivalSpeed="15.87" duration="27.00" routeLength="231.54" waitingTime="0.00" waitingCount="0" stopTime="0.00" timeLoss="11.65" rerouteNo="0" devices="tripinfo_flow_route_37_duration_20250327_2040.1" vType="car" speedFactor="1.01" vaporized=""/>
    <tripinfo id="flow_route_35_duration_20250327_2040.1" depart="5.00" departLane="485211947#0_0" departPos="6.01" departSpeed="0.00" departDelay="0.00" arrival="50.00" arrivalLane="1369578054_0" arrivalPos="118.83" arrivalSpeed="15.09" duration="45.00" routeLength="310.28" waitingTime="0.00" waitingCount="0" stopTime="0.00" timeLoss="25.31" rerouteNo="0" devices="tripinfo_flow_route_35_duration_20250327_2040.1" vType="car" speedFactor="1.03" vaporized=""/>
    <tripinfo id="flow_route_35_duration_20250327_2040.3" depart="15.00" departLane="485211947#0_0" departPos="33.16" departSpeed="0.00" departDelay="0.00" arrival="50.00" arrivalLane="1369578054_0" arrivalPos="83.55" arrivalSpeed="13.23" duration="35.00" routeLength="247.85" waitingTime="0.00" waitingCount="0" stopTime="0.00" timeLoss="18.28" rerouteNo="0" devices="tripinfo_flow_route_35_duration_20250327_2040.3" vType="car" speedFactor="0.97" vaporized=""/>
    <tripinfo id="flow_route_36_duration_20250327_2040.6" depart="18.00" departLane="485211947#0_0" departPos="14.82" departSpeed="0.00" departDelay="0.86" arrival="51.00" arrivalLane="137415945#0_1" arrivalPos="2.30" arrivalSpeed="14.95" duration="33.00" routeLength="332.01" waitingTime="0.00" waitingCount="0" stopTime="0.00" timeLoss="10.68" rerouteNo="0" devices="tripinfo_flow_route_36_duration_20250327_2040.6" vType="car" speedFactor="0.92" vaporized=""/>
    <tripinfo id="flow_route_36_duration_20250327_2040.8" depart="24.00" departLane="485211947#0_0" departPos="54.91" departSpeed="0.00" departDelay="1.14" arrival="53.00" arrivalLane="137415945#0_1" arrivalPos="5.41" arrivalSpeed="16.36" duration="29.00" routeLength="295.04" waitingTime="0.00" waitingCount="0" stopTime="0.00" timeLoss="10.46" rerouteNo="0" devices="tripinfo_flow_route_36_duration_20250327_2040.8" vType="car" speedFactor="0.99" vaporized=""/>
    <tripinfo id="flow_route_30_duration_20250327_2040.0" depart="0.00" departLane="1235147073.116_0" departPos="7.14" departSpeed="0.00" departDelay="0.00" arrival="57.00" arrivalLane="133126030#0_0" arrivalPos="8.43" arrivalSpeed="7.56" duration="57.00" routeLength="175.81" waitingTime="25.00" waitingCount="1" stopTime="0.00" timeLoss="45.99" rerouteNo="0" devices="tripinfo_flow_route_30_duration_20250327_2040.0" vType="car" speedFactor="1.01" vaporized=""/>
    <tripinfo id="flow_route_30_duration_20250327_2040.1" depart="35.00" departLane="1235147073.116_0" departPos="13.58" departSpeed="0.00" departDelay="15.00" arrival="59.00" arrivalLane="133126030#0_1" arrivalPos="53.74" arrivalSpeed="16.13" duration="24.00" routeLength="214.68" waitingTime="0.00" waitingCount="0" stopTime="0.00" timeLoss="10.70" rerouteNo="0" devices="tripinfo_flow_route_30_duration_20250327_2040.1" vType="car" speedFactor="1.13" vaporized=""/>
    <tripinfo id="flow_route_35_duration_20250327_2040.4" depart="21.00" departLane="485211947#0_0" departPos="4.42" departSpeed="0.00" departDelay="1.00" arrival="60.00" arrivalLane="1369578054_0" arrivalPos="203.36" arrivalSpeed="16.31" duration="39.00" routeLength="396.40" waitingTime="0.00" waitingCount="0" stopTime="0.00" timeLoss="14.68" rerouteNo="0" devices="tripinfo_flow_route_35_duration_20250327_2040.4" vType="car" speedFactor="1.18" vaporized=""/>
    <tripinfo id="flow_route_32_duration_20250327_2040.2" depart="17.00" departLane="1235147073.116_0" departPos="1.32" departSpeed="0.00" departDelay="6.09" arrival="62.00" arrivalLane="1369578054_1" arrivalPos="26.67" arrivalSpeed="10.15" duration="45.00" routeLength="205.09" waitingTime="11.00" waitingCount="1" stopTime="0.00" timeLoss="30.91" rerouteNo="0" devices="tripinfo_flow_route_32_duration_20250327_2040.2" vType="car" speedFactor="0.94" vaporized=""/>
    <tripinfo id="flow_route_31_duration_20250327_2040.1" depart="12.00" departLane="1235147073.116_0" departPos="4.71" departSpeed="0.00" departDelay="6.00" arrival="65.00" arrivalLane="-430406005#1_0" arrivalPos="53.89" arrivalSpeed="10.93" duration="53.00" routeLength="212.14" waitingTime="14.00" waitingCount="1" stopTime="0.00" timeLoss="39.18" rerouteNo="0" devices="tripinfo_flow_route_31_duration_20250327_2040.1" vType="car" speedFactor="1.05" vaporized=""/>
    <tripinfo id="flow_route_31_duration_20250327_2040.0" depart="2.00" departLane="1235147073.116_0" departPos="0.71" departSpeed="0.00" departDelay="2.00" arrival="66.00" arrivalLane="-430406005#1_0" arrivalPos="87.77" arrivalSpeed="12.63" duration="64.00" routeLength="250.02" waitingTime="24.00" waitingCount="1" stopTime="0.00" timeLoss="47.54" rerouteNo="0" devices="tripinfo_flow_route_31_duration_20250327_2040.0" vType="car" speedFactor="1.08" vaporized=""/>
    <tripinfo id="flow_route_32_duration_20250327_2040.4" depart="36.00" departLane="1235147073.116_0" departPos="5.29" departSpeed="0.00" departDelay="14.18" arrival="67.00" arrivalLane="1369578054_1" arrivalPos="31.38" arrivalSpeed="11.79" duration="31.00" routeLength="205.81" waitingTime="0.00" waitingCount="0" stopTime="0.00" timeLoss="17.74" rerouteNo="0" devices="tripinfo_flow_route_32_duration_20250327_2040.4" vType="car" speedFactor="1.17" vaporized=""/>
    <tripinfo id="flow_route_31_duration_20250327_2040.3" depart="29.00" departLane="1235147073.116_0" departPos="5.69" departSpeed="0.00" departDelay="11.00" arrival="68.00" arrivalLane="-430406005#1_0" arrivalPos="37.00" arrivalSpeed="10.24" duration="39.00" routeLength="194.27" waitingTime="1.00" waitingCount="1" stopTime="0.00" timeLoss="24.42" rerouteNo="0" devices="tripinfo_flow_route_31_duration_20250327_2040.3" vType="car" speedFactor="0.87" vaporized=""/>
    <tripinfo id="flow_route_32_duration_20250327_2040.0" depart="8.00" departLane="1235147073.116_0" departPos="1.98" departSpeed="0.00" departDelay="8.00" arrival="69.00" arrivalLane="1369578054_1" arrivalPos="176.77" arrivalSpeed="16.50" duration="61.00" routeLength="354.52" waitingTime="16.00" waitingCount="1" stopTime="0.00" timeLoss="38.71" rerouteNo="0" devices="tripinfo_flow_route_32_duration_20250327_2040.0" vType="car" speedFactor="1.03" vaporized=""/>
    <tripinfo id="flow_route_32_duration_20250327_2040.5" depart="41.00" departLane="1235147073.116_0" departPos="2.35" departSpeed="0.00" departDelay="13.73" arrival="70.00" arrivalLane="1369578054_1" arrivalPos="37.24" arrivalSpeed="11.56" duration="29.00" routeLength="214.63" waitingTime="0.00" waitingCount="0" stopTime="0.00" timeLoss="15.37" rerouteNo="0" devices="tripinfo_flow_route_32_duration_20250327_2040.5" vType="car" speedFactor="1.10" vaporized=""/>
    <tripinfo id="flow_route_32_duration_20250327_2040.3" depart="25.00" departLane="1235147073.116_0" departPos="5.25" departSpeed="0.00" departDelay="8.64" arrival="71.00" arrivalLane="1369578054_1" arrivalPos="101.58" arrivalSpeed="13.46" duration="46.00" routeLength="276.06" waitingTime="4.00" waitingCount="1" stopTime="0.00" timeLoss="24.23" rerouteNo="0" devices="tripinfo_flow_route_32_duration_20250327_2040.3" vType="car" speedFactor="0.83" vaporized=""/>
    <tripinfo id="flow_route_31_duration_20250327_2040.2" depart="21.00" departLane="1235147073.116_0" departPos="6.39" departSpeed="0.00" departDelay="9.00" arrival="74.00" arrivalLane="-430406005#1_0" arrivalPos="166.99" arrivalSpeed="16.22" duration="53.00" routeLength="323.56" waitingTime="8.00" waitingCount="1" stopTime="0.00" timeLoss="32.93" rerouteNo="0" devices="tripinfo_flow_route_31_duration_20250327_2040.2" vType="car" speedFactor="1.16" vaporized=""/>
    <tripinfo id="flow_route_32_duration_20250327_2040.1" depart="13.00" departLane="1235147073.116_0" departPos="14.62" departSpeed="0.00" departDelay="7.55" arrival="75.00" arrivalLane="1369578054_1" arrivalPos="229.08" arrivalSpeed="16.35" duration="62.00" routeLength="394.19" waitingTime="14.00" waitingCount="1" stopTime="0.00" timeLoss="36.87" rerouteNo="0" devices="tripinfo_flow_route_32_duration_20250327_2040.1" vType="car" speedFactor="1.12" vaporized=""/>
    <tripinfo id="flow_route_31_duration_20250327_2040.4" depart="37.00" departLane="1235147073.116_0" departPos="5.19" departSpeed="0.00" departDelay="13.00" arrival="75.00" arrivalLane="-430406005#1_0" arrivalPos="102.45" arrivalSpeed="14.31" duration="38.00" routeLength="260.22" waitingTime="0.00" waitingCount="0" stopTime="0.00" timeLoss="20.77" rerouteNo="0" devices="tripinfo_flow_route_31_duration_20250327_2040.4" vType="car" speedFactor="1.02" vaporized=""/>
    <tripinfo id="flow_route_31_duration_20250327_2040.5" depart="44.00" departLane="1235147073.116_0" departPos="1.76" departSpeed="0.00" departDelay="14.00" arrival="80.00" arrivalLane="-430406005#1_0" arrivalPos="151.00" arrivalSpeed="16.38" duration="36.00" routeLength="312.20" waitingTime="0.00" waitingCount="0" stopTime="0.00" timeLoss="15.39" rerouteNo="0" devices="tripinfo_flow_route_31_duration_20250327_2040.5" vType="car" speedFactor="1.09" vaporized=""/>
    <tripinfo id="flow_route_31_duration_20250327_2040.6" depart="53.00" departLane="1235147073.116_0" departPos="8.87" departSpeed="0.00" departDelay="17.00" arrival="80.00" arrivalLane="-430406005#1_0" arrivalPos="29.91" arrivalSpeed="9.02" duration="27.00" routeLength="184.01" waitingTime="0.00" waitingCount="0" stopTime="0.00" timeLoss="12.81" rerouteNo="0" devices="tripinfo_flow_route_31_duration_20250327_2040.6" vType="car" speedFactor="0.85" vaporized=""/>
    <tripinfo id="flow_route_30_duration_20250327_2040.2" depart="59.00" departLane="1235147073.116_0" departPos="8.81" departSpeed="0.00" departDelay="19.00" arrival="85.00" arrivalLane="133126030#0_0" arrivalPos="72.91" arrivalSpeed="16.33" duration="26.00" routeLength="238.62" waitingTime="0.00" waitingCount="0" stopTime="0.00" timeLoss="11.03" rerouteNo="0" devices="tripinfo_flow_route_30_duration_20250327_2040.2" vType="car" speedFactor="1.10" vaporized=""/>
    <tripinfo id="flow_route_32_duration_20250327_2040.7" depart="56.00" departLane="1235147073.116_0" departPos="4.63" departSpeed="0.00" departDelay="17.82" arrival="90.00" arrivalLane="1369578054_1" arrivalPos="123.41" arrivalSpeed="16.19" duration="34.00" routeLength="298.51" waitingTime="0.00" waitingCount="0" stopTime="0.00" timeLoss="15.13" rerouteNo="0" devices="tripinfo_flow_route_32_duration_20250327_2040.7" vType="car" speedFactor="1.17" vaporized=""/>
    <tripinfo id="flow_route_31_duration_20250327_2040.8" depart="69.00" departLane="1235147073.116_0" departPos="10.04" departSpeed="0.00" departDelay="21.00" arrival="92.00" arrivalLane="-430406005#1_0" arrivalPos="6.18" arrivalSpeed="7.90" duration="23.00" routeLength="159.11" waitingTime="0.00" waitingCount="0" stopTime="0.00" timeLoss="11.70" rerouteNo="0" devices="tripinfo_flow_route_31_duration_20250327_2040.8" vType="car" speedFactor="0.94" vaporized=""/>
    <tripinfo id="flow_route_32_duration_20250327_2040.6" depart="49.00" departLane="1235147073.116_0" departPos="1.83" departSpeed="0.00" departDelay="16.28" arrival="93.00" arrivalLane="1369578054_1" arrivalPos="256.66" arrivalSpeed="16.28" duration="44.00" routeLength="434.56" waitingTime="0.00" waitingCount="0" stopTime="0.00" timeLoss="16.39" rerouteNo="0" devices="tripinfo_flow_route_32_duration_20250327_2040.6" vType="car" speedFactor="1.00" vaporized=""/>
    <tripinfo id="flow_route_31_duration_20250327_2040.7" depart="59.00" departLane="1235147073.116_0" departPos="0.75" departSpeed="0.00" departDelay="17.00" arrival="94.00" arrivalLane="-430406005#1_0" arrivalPos="129.15" arrivalSpeed="16.10" duration="35.00" routeLength="291.36" waitingTime="0.00" waitingCount="0" stopTime="0.00" timeLoss="15.60" rerouteNo="0" devices="tripinfo_flow_route_31_duration_20250327_2040.7" vType="car" speedFactor="1.02" vaporized=""/>
    <tripinfo id="flow_route_33_duration_20250327_2040.0" depart="0.00" departLane="133126008#0_0" departPos="101.07" departSpeed="0.00" departDelay="0.00" arrival="103.00" arrivalLane="1369578054_0" arrivalPos="13.07" arrivalSpeed="8.71" duration="103.00" routeLength="125.36" waitingTime="76.00" waitingCount="1" stopTime="0.00" timeLoss="95.01" rerouteNo="0" devices="tripinfo_flow_route_33_duration_20250327_2040.0" vType="car" speedFactor="0.83" vaporized=""/>
    <tripinfo id="flow_route_33_duration_20250327_2040.1" depart="15.00" departLane="133126008#0_0" departPos="11.95" departSpeed="0.00" departDelay="0.00" arrival="103.00" arrivalLane="1369578054_1" arrivalPos="8.34" arrivalSpeed="8.14" duration="88.00" routeLength="209.75" waitingTime="54.00" waitingCount="1" stopTime="0.00" timeLoss="75.20" rerouteNo="0" devices="tripinfo_flow_route_33_duration_20250327_2040.1" vType="car" speedFactor="1.01" vaporized=""/>
    <tripinfo id="flow_route_32_duration_20250327_2040.8" depart="66.00" departLane="1235147073.116_0" departPos="4.49" departSpeed="0.00" departDelay="22.37" arrival="107.00" arrivalLane="1369578054_1" arrivalPos="236.57" arrivalSpeed="16.13" duration="41.00" routeLength="411.81" waitingTime="0.00" waitingCount="0" stopTime="0.00" timeLoss="14.85" rerouteNo="0" devices="tripinfo_flow_route_32_duration_20250327_2040.8" vType="car" speedFactor="1.08" vaporized=""/>
    <tripinfo id="flow_route_28_duration_20250327_2040.1" depart="11.00" departLane="-422986370#2_0" departPos="178.60" departSpeed="0.00" departDelay="1.00" arrival="108.00" arrivalLane="-430406005#1_0" arrivalPos="39.85" arrivalSpeed="11.41" duration="97.00" routeLength="195.68" waitingTime="63.00" waitingCount="1" stopTime="0.00" timeLoss="83.96" rerouteNo="0" devices="tripinfo_flow_route_28_duration_20250327_2040.1" vType="car" speedFactor="0.88" vaporized=""/>
    <tripinfo id="flow_route_34_duration_20250327_2040.1" depart="20.00" departLane="133126008#0_0" departPos="147.34" departSpeed="0.00" departDelay="0.00" arrival="108.00" arrivalLane="133126030#0_0" arrivalPos="39.35" arrivalSpeed="9.46" duration="88.00" routeLength="79.53" waitingTime="68.00" waitingCount="1" stopTime="0.00" timeLoss="81.54" rerouteNo="0" devices="tripinfo_flow_route_34_duration_20250327_2040.1" vType="car" speedFactor="0.93" vaporized=""/>
    <tripinfo id="flow_route_33_duration_20250327_2040.2" depart="30.00" departLane="133126008#0_0" departPos="49.49" departSpeed="0.00" departDelay="0.00" arrival="109.00" arrivalLane="1369578054_1" arrivalPos="46.01" arrivalSpeed="11.91" duration="79.00" routeLength="209.88" waitingTime="43.00" waitingCount="1" stopTime="0.00" timeLoss="65.92" rerouteNo="0" devices="tripinfo_flow_route_33_duration_20250327_2040.2" vType="car" speedFactor="1.04" vaporized=""/>
    <tripinfo id="flow_route_28_duration_20250327_2040.2" depart="23.00" departLane="-422986370#2_0" departPos="136.53" departSpeed="0.00" departDelay="3.00" arrival="110.00" arrivalLane="-430406005#1_1" arrivalPos="62.84" arrivalSpeed="11.90" duration="87.00" routeLength="260.74" waitingTime="48.00" waitingCount="1" stopTime="0.00" timeLoss="70.68" rerouteNo="0" devices="tripinfo_flow_route_28_duration_20250327_2040.2" vType="car" speedFactor="0.95" vaporized=""/>
    <tripinfo id="flow_route_28_duration_20250327_2040.5" depart="50.00" departLane="-422986370#2_0" departPos="57.09" departSpeed="0.00" departDelay="0.00" arrival="111.00" arrivalLane="-430406005#1_1" arrivalPos="15.19" arrivalSpeed="10.48" duration="61.00" routeLength="292.53" waitingTime="17.00" waitingCount="1" stopTime="0.00" timeLoss="41.43" rerouteNo="0" devices="tripinfo_flow_route_28_duration_20250327_2040.5" vType="car" speedFactor="0.91" vaporized=""/>
    <tripinfo id="flow_route_29_duration_20250327_2040.0" depart="0.00" departLane="-422986370#2_0" departPos="201.60" departSpeed="0.00" departDelay="0.00" arrival="112.00" arrivalLane="137415945#0_0" arrivalPos="9.07" arrivalSpeed="15.64" duration="112.00" routeLength="253.29" waitingTime="73.00" waitingCount="1" stopTime="0.00" timeLoss="94.19" rerouteNo="0" devices="tripinfo_flow_route_29_duration_20250327_2040.0" vType="car" speedFactor="0.94" vaporized=""/>
    <tripinfo id="flow_route_34_duration_20250327_2040.0" depart="0.00" departLane="133126008#0_0" departPos="47.21" departSpeed="0.00" departDelay="0.00" arrival="113.00" arrivalLane="133126030#0_0" arrivalPos="137.72" arrivalSpeed="14.59" duration="113.00" routeLength="278.03" waitingTime="74.00" waitingCount="1" stopTime="0.00" timeLoss="95.34" rerouteNo="0" devices="tripinfo_flow_route_34_duration_20250327_2040.0" vType="car" speedFactor="1.05" vaporized=""/>
    <tripinfo id="flow_route_28_duration_20250327_2040.0" depart="0.00" departLane="-422986370#2_0" departPos="1.81" departSpeed="0.00" departDelay="0.00" arrival="114.00" arrivalLane="-430406005#1_1" arrivalPos="159.13" arrivalSpeed="16.23" duration="114.00" routeLength="491.75" waitingTime="60.00" waitingCount="1" stopTime="0.00" timeLoss="84.07" rerouteNo="0" devices="tripinfo_flow_route_28_duration_20250327_2040.0" vType="car" speedFactor="1.06" vaporized=""/>
    <tripinfo id="flow_route_28_duration_20250327_2040.3" depart="30.00" departLane="-422986370#2_0" departPos="129.06" departSpeed="0.00" departDelay="0.00" arrival="116.00" arrivalLane="-430406005#1_1" arrivalPos="120.61" arrivalSpeed="15.22" duration="86.00" routeLength="325.97" waitingTime="42.00" waitingCount="1" stopTime="0.00" timeLoss="66.09" rerouteNo="0" devices="tripinfo_flow_route_28_duration_20250327_2040.3" vType="car" speedFactor="1.03" vaporized=""/>
    <tripinfo id="flow_route_29_duration_20250327_2040.1" depart="30.00" departLane="-422986370#2_0" departPos="176.46" departSpeed="0.00" departDelay="0.00" arrival="117.00" arrivalLane="137415945#0_0" arrivalPos="12.45" arrivalSpeed="15.79" duration="87.00" routeLength="281.81" waitingTime="47.00" waitingCount="1" stopTime="0.00" timeLoss="67.44" rerouteNo="0" devices="tripinfo_flow_route_29_duration_20250327_2040.1" vType="car" speedFactor="0.96" vaporized=""/>
    <tripinfo id="flow_route_28_duration_20250327_2040.4" depart="40.00" departLane="-422986370#2_0" departPos="99.70" departSpeed="0.00" departDelay="0.00" arrival="118.00" arrivalLane="-430406005#1_0" arrivalPos="146.33" arrivalSpeed="16.36" duration="78.00" routeLength="381.06" waitingTime="32.00" waitingCount="1" stopTime="0.00" timeLoss="55.03" rerouteNo="0" devices="tripinfo_flow_route_28_duration_20250327_2040.4" vType="car" speedFactor="1.02" vaporized=""/>
    <tripinfo id="flow_route_34_duration_20250327_2040.2" depart="40.00" departLane="133126008#0_0" departPos="37.04" departSpeed="0.00" departDelay="0.00" arrival="121.00" arrivalLane="133126030#0_0" arrivalPos="184.69" arrivalSpeed="16.41" duration="81.00" routeLength="335.17" waitingTime="31.00" waitingCount="1" stopTime="0.00" timeLoss="59.41" rerouteNo="0" devices="tripinfo_flow_route_34_duration_20250327_2040.2" vType="car" speedFactor="1.00" vaporized=""/>
    <tripinfo id="flow_route_33_duration_20250327_2040.3" depart="46.00" departLane="133126008#0_0" departPos="71.98" departSpeed="0.00" departDelay="1.00" arrival="126.00" arrivalLane="1369578054_1" arrivalPos="275.54" arrivalSpeed="16.44" duration="80.00" routeLength="416.91" waitingTime="31.00" waitingCount="1" stopTime="0.00" timeLoss="54.48" rerouteNo="0" devices="tripinfo_flow_route_33_duration_20250327_2040.3" vType="car" speedFactor="1.12" vaporized=""/>
    <tripinfo id="flow_route_35_duration_20250327_2040.7" depart="45.00" departLane="485211947#0_0" departPos="157.64" departSpeed="0.00" departDelay="10.00" arrival="137.00" arrivalLane="1369578054_0" arrivalPos="4.38" arrivalSpeed="6.20" duration="92.00" routeLength="44.20" waitingTime="73.00" waitingCount="1" stopTime="0.00" timeLoss="88.20" rerouteNo="0" devices="tripinfo_flow_route_35_duration_20250327_2040.7" vType="car" speedFactor="0.90" vaporized=""/>
    <tripinfo id="flow_route_36_duration_20250327_2040.13" depart="46.00" departLane="485211947#0_0" departPos="170.10" departSpeed="0.00" departDelay="8.86" arrival="148.00" arrivalLane="137415945#0_0" arrivalPos="0.15" arrivalSpeed="13.91" duration="102.00" routeLength="174.58" waitingTime="74.00" waitingCount="1" stopTime="0.00" timeLoss="89.20" rerouteNo="0" devices="tripinfo_flow_route_36_duration_20250327_2040.13" vType="car" speedFactor="0.85" vaporized=""/>
    <tripinfo id="flow_route_36_duration_20250327_2040.9" depart="37.00" departLane="485211947#0_0" departPos="0.16" departSpeed="0.00" departDelay="11.29" arrival="149.00" arrivalLane="137415945#0_0" arrivalPos="5.94" arrivalSpeed="15.98" duration="112.00" routeLength="350.31" waitingTime="66.00" waitingCount="1" stopTime="0.00" timeLoss="90.17" rerouteNo="0" devices="tripinfo_flow_route_36_duration_20250327_2040.9" vType="car" speedFactor="1.18" vaporized=""/>
    <tripinfo id="flow_route_37_duration_20250327_2040.2" depart="53.00" departLane="485211947#0_0" departPos="101.11" departSpeed="0.00" departDelay="13.00" arrival="149.00" arrivalLane="-430406005#1_1" arrivalPos="140.02" arrivalSpeed="16.13" duration="96.00" routeLength="251.89" waitingTime="59.00" waitingCount="1" stopTime="0.00" timeLoss="79.59" rerouteNo="0" devices="tripinfo_flow_route_37_duration_20250327_2040.2" vType="car" speedFactor="1.14" vaporized=""/>
    <tripinfo id="flow_route_35_duration_20250327_2040.5" depart="29.00" departLane="485211947#0_0" departPos="7.89" departSpeed="0.00" departDelay="4.00" arrival="150.00" arrivalLane="1369578054_0" arrivalPos="123.18" arrivalSpeed="14.22" duration="121.00" routeLength="312.74" waitingTime="72.00" waitingCount="1" stopTime="0.00" timeLoss="100.93" rerouteNo="0" devices="tripinfo_flow_route_35_duration_20250327_2040.5" vType="car" speedFactor="0.97" vaporized=""/>
    <tripinfo id="flow_route_36_duration_20250327_2040.12" depart="45.00" departLane="485211947#0_0" departPos="86.31" departSpeed="0.00" departDelay="10.72" arrival="151.00" arrivalLane="137415945#0_1" arrivalPos="12.49" arrivalSpeed="14.32" duration="106.00" routeLength="270.70" waitingTime="65.00" waitingCount="1" stopTime="0.00" timeLoss="87.04" rerouteNo="0" devices="tripinfo_flow_route_36_duration_20250327_2040.12" vType="car" speedFactor="0.88" vaporized=""/>
    <tripinfo id="flow_route_36_duration_20250327_2040.11" depart="44.00" departLane="485211947#0_0" departPos="41.87" departSpeed="0.00" departDelay="12.57" arrival="152.00" arrivalLane="137415945#0_1" arrivalPos="7.54" arrivalSpeed="16.30" duration="108.00" routeLength="310.20" waitingTime="64.00" waitingCount="1" stopTime="0.00" timeLoss="89.31" rerouteNo="0" devices="tripinfo_flow_route_36_duration_20250327_2040.11" vType="car" speedFactor="1.09" vaporized=""/>
    <tripinfo id="flow_route_35_duration_20250327_2040.8" depart="46.00" departLane="485211947#0_0" departPos="105.35" departSpeed="0.00" departDelay="6.00" arrival="154.00" arrivalLane="1369578054_0" arrivalPos="146.06" arrivalSpeed="16.42" duration="108.00" routeLength="238.16" waitingTime="71.00" waitingCount="1" stopTime="0.00" timeLoss="92.33" rerouteNo="0" devices="tripinfo_flow_route_35_duration_20250327_2040.8" vType="car" speedFactor="1.00" vaporized=""/>
    <tripinfo id="flow_route_36_duration_20250327_2040.10" depart="43.00" departLane="485211947#0_0" departPos="29.20" departSpeed="0.00" departDelay="14.43" arrival="155.00" arrivalLane="137415945#0_1" arrivalPos="11.23" arrivalSpeed="14.91" duration="112.00" routeLength="326.55" waitingTime="63.00" waitingCount="1" stopTime="0.00" timeLoss="89.40" rerouteNo="0" devices="tripinfo_flow_route_36_duration_20250327_2040.10" vType="car" speedFactor="0.90" vaporized=""/>
    <tripinfo id="flow_route_36_duration_20250327_2040.14" depart="49.00" departLane="485211947#0_0" departPos="1.36" departSpeed="0.00" departDelay="9.00" arrival="156.00" arrivalLane="137415945#0_1" arrivalPos="11.92" arrivalSpeed="14.55" duration="107.00" routeLength="355.09" waitingTime="62.00" waitingCount="1" stopTime="0.00" timeLoss="83.14" rerouteNo="0" devices="tripinfo_flow_route_36_duration_20250327_2040.14" vType="car" speedFactor="0.90" vaporized=""/>