<?xml version="1.0" encoding="UTF-8"?>

<!-- generated on 2025-05-06 21:08:57 by Eclipse SUMO sumo Version 1.20.0
<configuration xmlns:xsi="http://www.w3.org/2001/XMLSchema-instance" xsi:noNamespaceSchemaLocation="http://sumo.dlr.de/xsd/sumoConfiguration.xsd">

    <input>
        <net-file value="osm.net.xml"/>
        <route-files value="xml/route_static_cluster_2271368471_4779869278_7.rou.xml"/>
    </input>

    <output>
        <tripinfo-output value="xml/tripinfo_static_cluster_2271368471_4779869278_7.xml"/>
    </output>

    <traci_server>
        <remote-port value="38583"/>
    </traci_server>

</configuration>
-->

<tripinfos xmlns:xsi="http://www.w3.org/2001/XMLSchema-instance" xsi:noNamespaceSchemaLocation="http://sumo.dlr.de/xsd/tripinfo_file.xsd">
    <tripinfo id="flow_route_36_duration_20250327_2200.0" depart="0.00" departLane="485211947#0_0" departPos="162.24" departSpeed="0.00" departDelay="0.00" arrival="23.00" arrivalLane="137415945#0_0" arrivalPos="6.94" arrivalSpeed="15.19" duration="23.00" routeLength="189.23" waitingTime="0.00" waitingCount="0" stopTime="0.00" timeLoss="10.24" rerouteNo="0" devices="tripinfo_flow_route_36_duration_20250327_2200.0" vType="car" speedFactor="0.94" vaporized=""/>
    <tripinfo id="flow_route_35_duration_20250327_2200.1" depart="15.00" departLane="485211947#0_0" departPos="177.25" departSpeed="0.00" departDelay="0.00" arrival="28.00" arrivalLane="1369578054_0" arrivalPos="47.67" arrivalSpeed="10.09" duration="13.00" routeLength="67.89" waitingTime="0.00" waitingCount="0" stopTime="0.00" timeLoss="8.12" rerouteNo="0" devices="tripinfo_flow_route_35_duration_20250327_2200.1" vType="car" speedFactor="1.05" vaporized=""/>
    <tripinfo id="flow_route_35_duration_20250327_2200.0" depart="0.00" departLane="485211947#0_0" departPos="11.17" departSpeed="0.00" departDelay="0.00" arrival="33.00" arrivalLane="1369578054_0" arrivalPos="74.16" arrivalSpeed="12.69" duration="33.00" routeLength="260.46" waitingTime="0.00" waitingCount="0" stopTime="0.00" timeLoss="14.41" rerouteNo="0" devices="tripinfo_flow_route_35_duration_20250327_2200.0" vType="car" speedFactor="0.89" vaporized=""/>
    <tripinfo id="flow_route_37_duration_20250327_2200.0" depart="0.00" departLane="485211947#0_0" departPos="59.66" departSpeed="0.00" departDelay="0.00" arrival="33.00" arrivalLane="-430406005#1_1" arrivalPos="133.07" arrivalSpeed="16.05" duration="33.00" routeLength="286.39" waitingTime="0.00" waitingCount="0" stopTime="0.00" timeLoss="12.84" rerouteNo="0" devices="tripinfo_flow_route_37_duration_20250327_2200.0" vType="car" speedFactor="0.86" vaporized=""/>
    <tripinfo id="flow_route_36_duration_20250327_2200.1" depart="20.00" departLane="485211947#0_0" departPos="76.22" departSpeed="0.00" departDelay="0.00" arrival="49.00" arrivalLane="137415945#0_1" arrivalPos="4.22" arrivalSpeed="15.28" duration="29.00" routeLength="272.53" waitingTime="0.00" waitingCount="0" stopTime="0.00" timeLoss="11.31" rerouteNo="0" devices="tripinfo_flow_route_36_duration_20250327_2200.1" vType="car" speedFactor="0.93" vaporized=""/>
    <tripinfo id="flow_route_35_duration_20250327_2200.2" depart="30.00" departLane="485211947#0_0" departPos="150.40" departSpeed="0.00" departDelay="0.00" arrival="55.00" arrivalLane="1369578054_0" arrivalPos="171.28" arrivalSpeed="15.41" duration="25.00" routeLength="218.34" waitingTime="0.00" waitingCount="0" stopTime="0.00" timeLoss="10.15" rerouteNo="0" devices="tripinfo_flow_route_35_duration_20250327_2200.2" vType="car" speedFactor="0.94" vaporized=""/>
    <tripinfo id="flow_route_30_duration_20250327_2200.0" depart="0.00" departLane="1235147073.116_0" departPos="7.14" departSpeed="0.00" departDelay="0.00" arrival="56.00" arrivalLane="133126030#0_0" arrivalPos="8.43" arrivalSpeed="7.03" duration="56.00" routeLength="175.81" waitingTime="26.00" waitingCount="1" stopTime="0.00" timeLoss="45.33" rerouteNo="0" devices="tripinfo_flow_route_30_duration_20250327_2200.0" vType="car" speedFactor="1.01" vaporized=""/>
    <tripinfo id="flow_route_31_duration_20250327_2200.1" depart="20.00" departLane="1235147073.116_0" departPos="1.98" departSpeed="0.00" departDelay="0.00" arrival="59.00" arrivalLane="-430406005#1_0" arrivalPos="5.33" arrivalSpeed="6.43" duration="39.00" routeLength="166.31" waitingTime="7.00" waitingCount="1" stopTime="0.00" timeLoss="28.15" rerouteNo="0" devices="tripinfo_flow_route_31_duration_20250327_2200.1" vType="car" speedFactor="1.12" vaporized=""/>
    <tripinfo id="flow_route_31_duration_20250327_2200.0" depart="2.00" departLane="1235147073.116_0" departPos="0.71" departSpeed="0.00" departDelay="2.00" arrival="65.00" arrivalLane="-430406005#1_0" arrivalPos="87.77" arrivalSpeed="13.32" duration="63.00" routeLength="250.02" waitingTime="25.00" waitingCount="1" stopTime="0.00" timeLoss="46.74" rerouteNo="0" devices="tripinfo_flow_route_31_duration_20250327_2200.0" vType="car" speedFactor="1.08" vaporized=""/>
    <tripinfo id="flow_route_32_duration_20250327_2200.3" depart="30.00" departLane="1235147073.116_0" departPos="3.70" departSpeed="0.00" departDelay="0.00" arrival="67.00" arrivalLane="1369578054_1" arrivalPos="50.33" arrivalSpeed="11.40" duration="37.00" routeLength="226.36" waitingTime="0.00" waitingCount="0" stopTime="0.00" timeLoss="21.81" rerouteNo="0" devices="tripinfo_flow_route_32_duration_20250327_2200.3" vType="car" speedFactor="0.94" vaporized=""/>
    <tripinfo id="flow_route_32_duration_20250327_2200.0" depart="8.00" departLane="1235147073.116_0" departPos="6.07" departSpeed="0.00" departDelay="8.00" arrival="69.00" arrivalLane="1369578054_1" arrivalPos="176.77" arrivalSpeed="16.50" duration="61.00" routeLength="350.43" waitingTime="17.00" waitingCount="1" stopTime="0.00" timeLoss="38.77" rerouteNo="0" devices="tripinfo_flow_route_32_duration_20250327_2200.0" vType="car" speedFactor="1.03" vaporized=""/>
    <tripinfo id="flow_route_32_duration_20250327_2200.1" depart="11.00" departLane="1235147073.116_0" departPos="0.50" departSpeed="0.00" departDelay="1.00" arrival="71.00" arrivalLane="1369578054_1" arrivalPos="163.10" arrivalSpeed="16.29" duration="60.00" routeLength="342.33" waitingTime="14.00" waitingCount="1" stopTime="0.00" timeLoss="37.86" rerouteNo="0" devices="tripinfo_flow_route_32_duration_20250327_2200.1" vType="car" speedFactor="1.09" vaporized=""/>
    <tripinfo id="flow_route_31_duration_20250327_2200.2" depart="40.00" departLane="1235147073.116_0" departPos="4.71" departSpeed="0.00" departDelay="0.00" arrival="72.00" arrivalLane="-430406005#1_0" arrivalPos="123.51" arrivalSpeed="15.06" duration="32.00" routeLength="281.76" waitingTime="0.00" waitingCount="0" stopTime="0.00" timeLoss="13.97" rerouteNo="0" devices="tripinfo_flow_route_31_duration_20250327_2200.2" vType="car" speedFactor="1.02" vaporized=""/>
    <tripinfo id="flow_route_32_duration_20250327_2200.2" depart="21.00" departLane="1235147073.116_0" departPos="14.77" departSpeed="0.00" departDelay="1.00" arrival="75.00" arrivalLane="1369578054_1" arrivalPos="205.27" arrivalSpeed="16.25" duration="54.00" routeLength="370.24" waitingTime="8.00" waitingCount="1" stopTime="0.00" timeLoss="29.99" rerouteNo="0" devices="tripinfo_flow_route_32_duration_20250327_2200.2" vType="car" speedFactor="0.99" vaporized=""/>
    <tripinfo id="flow_route_32_duration_20250327_2200.5" depart="50.00" departLane="1235147073.116_0" departPos="15.19" departSpeed="0.00" departDelay="0.00" arrival="79.00" arrivalLane="1369578054_1" arrivalPos="53.63" arrivalSpeed="13.20" duration="29.00" routeLength="218.17" waitingTime="0.00" waitingCount="0" stopTime="0.00" timeLoss="12.33" rerouteNo="0" devices="tripinfo_flow_route_32_duration_20250327_2200.5" vType="car" speedFactor="0.87" vaporized=""/>
    <tripinfo id="flow_route_32_duration_20250327_2200.4" depart="45.00" departLane="1235147073.116_0" departPos="0.43" departSpeed="0.00" departDelay="5.00" arrival="88.00" arrivalLane="1369578054_1" arrivalPos="280.18" arrivalSpeed="16.19" duration="43.00" routeLength="459.48" waitingTime="0.00" waitingCount="0" stopTime="0.00" timeLoss="14.04" rerouteNo="0" devices="tripinfo_flow_route_32_duration_20250327_2200.4" vType="car" speedFactor="1.01" vaporized=""/>
    <tripinfo id="flow_route_33_duration_20250327_2200.0" depart="0.00" departLane="133126008#0_0" departPos="101.07" departSpeed="0.00" departDelay="0.00" arrival="104.00" arrivalLane="1369578054_0" arrivalPos="13.07" arrivalSpeed="8.96" duration="104.00" routeLength="125.36" waitingTime="76.00" waitingCount="1" stopTime="0.00" timeLoss="95.70" rerouteNo="0" devices="tripinfo_flow_route_33_duration_20250327_2200.0" vType="car" speedFactor="0.83" vaporized=""/>
    <tripinfo id="flow_route_33_duration_20250327_2200.3" depart="38.00" departLane="133126008#0_0" departPos="106.41" departSpeed="0.00" departDelay="2.00" arrival="108.00" arrivalLane="1369578054_0" arrivalPos="26.67" arrivalSpeed="11.23" duration="70.00" routeLength="133.62" waitingTime="43.00" waitingCount="1" stopTime="0.00" timeLoss="61.84" rerouteNo="0" devices="tripinfo_flow_route_33_duration_20250327_2200.3" vType="car" speedFactor="1.16" vaporized=""/>
    <tripinfo id="flow_route_33_duration_20250327_2200.1" depart="12.00" departLane="133126008#0_0" departPos="136.45" departSpeed="0.00" departDelay="0.00" arrival="110.00" arrivalLane="1369578054_0" arrivalPos="90.42" arrivalSpeed="13.49" duration="98.00" routeLength="167.33" waitingTime="67.00" waitingCount="1" stopTime="0.00" timeLoss="87.73" rerouteNo="0" devices="tripinfo_flow_route_33_duration_20250327_2200.1" vType="car" speedFactor="1.03" vaporized=""/>
    <tripinfo id="flow_route_33_duration_20250327_2200.2" depart="24.00" departLane="133126008#0_0" departPos="39.82" departSpeed="0.00" departDelay="0.00" arrival="111.00" arrivalLane="1369578054_1" arrivalPos="79.13" arrivalSpeed="13.42" duration="87.00" routeLength="252.66" waitingTime="48.00" waitingCount="1" stopTime="0.00" timeLoss="70.94" rerouteNo="0" devices="tripinfo_flow_route_33_duration_20250327_2200.2" vType="car" speedFactor="0.88" vaporized=""/>
    <tripinfo id="flow_route_29_duration_20250327_2200.0" depart="0.00" departLane="-422986370#2_0" departPos="201.60" departSpeed="0.00" departDelay="0.00" arrival="112.00" arrivalLane="137415945#0_0" arrivalPos="9.07" arrivalSpeed="15.64" duration="112.00" routeLength="253.29" waitingTime="74.00" waitingCount="1" stopTime="0.00" timeLoss="94.53" rerouteNo="0" devices="tripinfo_flow_route_29_duration_20250327_2200.0" vType="car" speedFactor="0.94" vaporized=""/>
    <tripinfo id="flow_route_34_duration_20250327_2200.0" depart="0.00" departLane="133126008#0_0" departPos="47.21" departSpeed="0.00" departDelay="0.00" arrival="114.00" arrivalLane="133126030#0_0" arrivalPos="137.72" arrivalSpeed="14.95" duration="114.00" routeLength="278.03" waitingTime="71.00" waitingCount="1" stopTime="0.00" timeLoss="95.86" rerouteNo="0" devices="tripinfo_flow_route_34_duration_20250327_2200.0" vType="car" speedFactor="1.05" vaporized=""/>
    <tripinfo id="flow_route_28_duration_20250327_2200.0" depart="0.00" departLane="-422986370#2_0" departPos="1.81" departSpeed="0.00" departDelay="0.00" arrival="115.00" arrivalLane="-430406005#1_1" arrivalPos="159.13" arrivalSpeed="16.12" duration="115.00" routeLength="491.75" waitingTime="61.00" waitingCount="1" stopTime="0.00" timeLoss="84.58" rerouteNo="0" devices="tripinfo_flow_route_28_duration_20250327_2200.0" vType="car" speedFactor="1.06" vaporized=""/>
    <tripinfo id="flow_route_33_duration_20250327_2200.4" depart="49.00" departLane="133126008#0_0" departPos="11.95" departSpeed="0.00" departDelay="1.00" arrival="120.00" arrivalLane="1369578054_1" arrivalPos="163.83" arrivalSpeed="13.43" duration="71.00" routeLength="365.24" waitingTime="24.00" waitingCount="1" stopTime="0.00" timeLoss="46.36" rerouteNo="0" devices="tripinfo_flow_route_33_duration_20250327_2200.4" vType="car" speedFactor="0.83" vaporized=""/>
    <tripinfo id="flow_route_35_duration_20250327_2200.3" depart="45.00" departLane="485211947#0_0" departPos="51.67" departSpeed="0.00" departDelay="0.00" arrival="142.00" arrivalLane="1369578054_0" arrivalPos="45.50" arrivalSpeed="9.95" duration="97.00" routeLength="191.29" waitingTime="65.00" waitingCount="1" stopTime="0.00" timeLoss="83.00" rerouteNo="0" devices="tripinfo_flow_route_35_duration_20250327_2200.3" vType="car" speedFactor="0.89" vaporized=""/>
    <tripinfo id="flow_route_36_duration_20250327_2200.2" depart="40.00" departLane="485211947#0_0" departPos="107.48" departSpeed="0.00" departDelay="0.00" arrival="150.00" arrivalLane="137415945#0_0" arrivalPos="12.22" arrivalSpeed="15.55" duration="110.00" routeLength="249.27" waitingTime="73.00" waitingCount="1" stopTime="0.00" timeLoss="93.77" rerouteNo="0" devices="tripinfo_flow_route_36_duration_20250327_2200.2" vType="car" speedFactor="0.97" vaporized=""/>
</tripinfos>
