<?xml version="1.0" encoding="UTF-8"?>

<!-- generated on 2025-05-06 21:08:12 by Eclipse SUMO sumo Version 1.20.0
<configuration xmlns:xsi="http://www.w3.org/2001/XMLSchema-instance" xsi:noNamespaceSchemaLocation="http://sumo.dlr.de/xsd/sumoConfiguration.xsd">

    <input>
        <net-file value="osm.net.xml"/>
        <route-files value="xml/route_rl_cluster7571105647_7571105653_cluster_1141265322_11869698130_256036890_4227138136_#4more_3.rou.xml"/>
    </input>

    <output>
        <tripinfo-output value="xml/tripinfo_rl_cluster7571105647_7571105653_cluster_1141265322_11869698130_256036890_4227138136_#4more_3.xml"/>
    </output>

    <traci_server>
        <remote-port value="39909"/>
    </traci_server>

</configuration>
-->

<tripinfos xmlns:xsi="http://www.w3.org/2001/XMLSchema-instance" xsi:noNamespaceSchemaLocation="http://sumo.dlr.de/xsd/tripinfo_file.xsd">
    <tripinfo id="flow_route_143_duration_20250327_2010.0" depart="0.00" departLane="1253222187#0_0" departPos="157.10" departSpeed="0.00" departDelay="0.00" arrival="28.00" arrivalLane="1310781056_0" arrivalPos="55.73" arrivalSpeed="16.37" duration="28.00" routeLength="267.13" waitingTime="0.00" waitingCount="0" stopTime="0.00" timeLoss="11.88" rerouteNo="0" devices="tripinfo_flow_route_143_duration_20250327_2010.0" vType="car" speedFactor="1.08" vaporized=""/>
    <tripinfo id="flow_route_143_duration_20250327_2010.1" depart="6.00" departLane="1253222187#0_0" departPos="173.80" departSpeed="0.00" departDelay="0.55" arrival="35.00" arrivalLane="1310781056_0" arrivalPos="71.84" arrivalSpeed="16.47" duration="29.00" routeLength="266.54" waitingTime="0.00" waitingCount="0" stopTime="0.00" timeLoss="12.19" rerouteNo="0" devices="tripinfo_flow_route_143_duration_20250327_2010.1" vType="car" speedFactor="0.86" vaporized=""/>
    <tripinfo id="flow_route_143_duration_20250327_2010.3" depart="17.00" departLane="1253222187#0_0" departPos="201.33" departSpeed="0.00" departDelay="0.64" arrival="42.00" arrivalLane="1310781056_0" arrivalPos="65.78" arrivalSpeed="16.24" duration="25.00" routeLength="232.95" waitingTime="0.00" waitingCount="0" stopTime="0.00" timeLoss="10.43" rerouteNo="0" devices="tripinfo_flow_route_143_duration_20250327_2010.3" vType="car" speedFactor="1.02" vaporized=""/>
    <tripinfo id="flow_route_143_duration_20250327_2010.2" depart="13.00" departLane="1253222187#0_0" departPos="18.77" departSpeed="0.00" departDelay="2.09" arrival="50.00" arrivalLane="1310781056_0" arrivalPos="77.69" arrivalSpeed="16.11" duration="37.00" routeLength="427.42" waitingTime="0.00" waitingCount="0" stopTime="0.00" timeLoss="10.47" rerouteNo="0" devices="tripinfo_flow_route_143_duration_20250327_2010.2" vType="car" speedFactor="0.99" vaporized=""/>
    <tripinfo id="flow_route_142_duration_20250327_2010.0" depart="0.00" departLane="1253222187#0_0" departPos="114.97" departSpeed="0.00" departDelay="0.00" arrival="53.00" arrivalLane="683079388#0_0" arrivalPos="1.17" arrivalSpeed="16.43" duration="53.00" routeLength="684.52" waitingTime="0.00" waitingCount="0" stopTime="0.00" timeLoss="11.75" rerouteNo="0" devices="tripinfo_flow_route_142_duration_20250327_2010.0" vType="car" speedFactor="1.01" vaporized=""/>
    <tripinfo id="flow_route_140_duration_20250327_2010.3" depart="11.00" departLane="809719540#0_0" departPos="33.68" departSpeed="0.00" departDelay="0.41" arrival="54.00" arrivalLane="-809772643#1_1" arrivalPos="6.17" arrivalSpeed="14.19" duration="43.00" routeLength="282.77" waitingTime="2.00" waitingCount="1" stopTime="0.00" timeLoss="25.48" rerouteNo="0" devices="tripinfo_flow_route_140_duration_20250327_2010.3" vType="car" speedFactor="1.12" vaporized=""/>
    <tripinfo id="flow_route_140_duration_20250327_2010.1" depart="4.00" departLane="809719540#0_0" departPos="86.48" departSpeed="0.00" departDelay="0.47" arrival="55.00" arrivalLane="-809772643#1_0" arrivalPos="54.69" arrivalSpeed="11.76" duration="51.00" routeLength="275.66" waitingTime="9.00" waitingCount="1" stopTime="0.00" timeLoss="34.23" rerouteNo="0" devices="tripinfo_flow_route_140_duration_20250327_2010.1" vType="car" speedFactor="1.05" vaporized=""/>
    <tripinfo id="flow_route_140_duration_20250327_2010.5" depart="18.00" departLane="809719540#0_0" departPos="7.48" departSpeed="0.00" departDelay="0.36" arrival="57.00" arrivalLane="-809772643#1_1" arrivalPos="37.91" arrivalSpeed="16.56" duration="39.00" routeLength="340.71" waitingTime="0.00" waitingCount="0" stopTime="0.00" timeLoss="18.45" rerouteNo="0" devices="tripinfo_flow_route_140_duration_20250327_2010.5" vType="car" speedFactor="1.01" vaporized=""/>
    <tripinfo id="flow_route_140_duration_20250327_2010.2" depart="8.00" departLane="809719540#0_0" departPos="8.71" departSpeed="0.00" departDelay="0.94" arrival="58.00" arrivalLane="-809772643#1_1" arrivalPos="82.00" arrivalSpeed="13.65" duration="50.00" routeLength="383.57" waitingTime="0.00" waitingCount="0" stopTime="0.00" timeLoss="26.19" rerouteNo="0" devices="tripinfo_flow_route_140_duration_20250327_2010.2" vType="car" speedFactor="1.09" vaporized=""/>
    <tripinfo id="flow_route_140_duration_20250327_2010.4" depart="15.00" departLane="809719540#0_0" departPos="257.84" departSpeed="0.00" departDelay="0.88" arrival="59.00" arrivalLane="-809772643#1_1" arrivalPos="123.28" arrivalSpeed="15.40" duration="44.00" routeLength="175.72" waitingTime="17.00" waitingCount="1" stopTime="0.00" timeLoss="32.10" rerouteNo="0" devices="tripinfo_flow_route_140_duration_20250327_2010.4" vType="car" speedFactor="0.94" vaporized=""/>
    <tripinfo id="flow_route_140_duration_20250327_2010.9" depart="32.00" departLane="809719540#0_0" departPos="187.88" departSpeed="0.00" departDelay="0.24" arrival="59.00" arrivalLane="-809772643#1_0" arrivalPos="84.99" arrivalSpeed="14.01" duration="27.00" routeLength="204.56" waitingTime="0.00" waitingCount="0" stopTime="0.00" timeLoss="14.12" rerouteNo="0" devices="tripinfo_flow_route_140_duration_20250327_2010.9" vType="car" speedFactor="0.97" vaporized=""/>
    <tripinfo id="flow_route_140_duration_20250327_2010.0" depart="0.00" departLane="809719540#0_0" departPos="199.64" departSpeed="0.00" departDelay="0.00" arrival="62.00" arrivalLane="-809772643#1_0" arrivalPos="184.22" arrivalSpeed="16.23" duration="62.00" routeLength="292.04" waitingTime="23.00" waitingCount="1" stopTime="0.00" timeLoss="43.88" rerouteNo="0" devices="tripinfo_flow_route_140_duration_20250327_2010.0" vType="car" speedFactor="1.06" vaporized=""/>
    <tripinfo id="flow_route_140_duration_20250327_2010.6" depart="22.00" departLane="809719540#0_0" departPos="55.65" departSpeed="0.00" departDelay="0.83" arrival="63.00" arrivalLane="-809772643#1_0" arrivalPos="64.89" arrivalSpeed="13.45" duration="41.00" routeLength="316.70" waitingTime="0.00" waitingCount="0" stopTime="0.00" timeLoss="17.15" rerouteNo="0" devices="tripinfo_flow_route_140_duration_20250327_2010.6" vType="car" speedFactor="0.83" vaporized=""/>
    <tripinfo id="flow_route_142_duration_20250327_2010.1" depart="5.00" departLane="1253222187#0_0" departPos="64.74" departSpeed="0.00" departDelay="0.72" arrival="64.00" arrivalLane="683079388#0_0" arrivalPos="17.65" arrivalSpeed="15.17" duration="59.00" routeLength="751.22" waitingTime="0.00" waitingCount="0" stopTime="0.00" timeLoss="10.60" rerouteNo="0" devices="tripinfo_flow_route_142_duration_20250327_2010.1" vType="car" speedFactor="0.94" vaporized=""/>
    <tripinfo id="flow_route_142_duration_20250327_2010.3" depart="13.00" departLane="1253222187#0_0" departPos="140.87" departSpeed="0.00" departDelay="0.15" arrival="65.00" arrivalLane="683079388#0_0" arrivalPos="6.23" arrivalSpeed="15.44" duration="52.00" routeLength="663.68" waitingTime="0.00" waitingCount="0" stopTime="0.00" timeLoss="9.70" rerouteNo="0" devices="tripinfo_flow_route_142_duration_20250327_2010.3" vType="car" speedFactor="0.94" vaporized=""/>
    <tripinfo id="flow_route_140_duration_20250327_2010.7" depart="26.00" departLane="809719540#0_0" departPos="112.05" departSpeed="0.00" departDelay="1.30" arrival="66.00" arrivalLane="-809772643#1_0" arrivalPos="140.32" arrivalSpeed="15.29" duration="40.00" routeLength="335.72" waitingTime="0.00" waitingCount="0" stopTime="0.00" timeLoss="17.87" rerouteNo="0" devices="tripinfo_flow_route_140_duration_20250327_2010.7" vType="car" speedFactor="0.93" vaporized=""/>
    <tripinfo id="flow_route_142_duration_20250327_2010.2" depart="9.00" departLane="1253222187#0_0" departPos="33.55" departSpeed="0.00" departDelay="0.43" arrival="67.00" arrivalLane="683079388#0_2" arrivalPos="7.79" arrivalSpeed="16.26" duration="58.00" routeLength="772.56" waitingTime="0.00" waitingCount="0" stopTime="0.00" timeLoss="10.82" rerouteNo="0" devices="tripinfo_flow_route_142_duration_20250327_2010.2" vType="car" speedFactor="1.05" vaporized=""/>
    <tripinfo id="flow_route_140_duration_20250327_2010.8" depart="30.00" departLane="809719540#0_0" departPos="154.08" departSpeed="0.00" departDelay="1.77" arrival="67.00" arrivalLane="-809772643#1_0" arrivalPos="191.23" arrivalSpeed="16.24" duration="37.00" routeLength="344.60" waitingTime="0.00" waitingCount="0" stopTime="0.00" timeLoss="16.11" rerouteNo="0" devices="tripinfo_flow_route_140_duration_20250327_2010.8" vType="car" speedFactor="1.17" vaporized=""/>
    <tripinfo id="flow_route_140_duration_20250327_2010.14" depart="51.00" departLane="809719540#0_0" departPos="215.35" departSpeed="0.00" departDelay="1.59" arrival="70.00" arrivalLane="-809772643#1_0" arrivalPos="42.90" arrivalSpeed="13.92" duration="19.00" routeLength="135.00" waitingTime="0.00" waitingCount="0" stopTime="0.00" timeLoss="10.62" rerouteNo="0" devices="tripinfo_flow_route_140_duration_20250327_2010.14" vType="car" speedFactor="1.00" vaporized=""/>
    <tripinfo id="flow_route_140_duration_20250327_2010.11" depart="44.00" departLane="809719540#0_0" departPos="92.89" departSpeed="0.00" departDelay="5.18" arrival="71.00" arrivalLane="-809772643#1_0" arrivalPos="31.75" arrivalSpeed="15.55" duration="27.00" routeLength="246.31" waitingTime="0.00" waitingCount="0" stopTime="0.00" timeLoss="11.84" rerouteNo="0" devices="tripinfo_flow_route_140_duration_20250327_2010.11" vType="car" speedFactor="1.04" vaporized=""/>
    <tripinfo id="flow_route_142_duration_20250327_2010.7" depart="30.00" departLane="1253222187#0_0" departPos="204.83" departSpeed="0.00" departDelay="0.01" arrival="78.00" arrivalLane="683079388#0_0" arrivalPos="18.35" arrivalSpeed="16.37" duration="48.00" routeLength="611.83" waitingTime="0.00" waitingCount="0" stopTime="0.00" timeLoss="10.73" rerouteNo="0" devices="tripinfo_flow_route_142_duration_20250327_2010.7" vType="car" speedFactor="0.99" vaporized=""/>
    <tripinfo id="flow_route_140_duration_20250327_2010.12" depart="45.00" departLane="809719540#0_0" departPos="176.91" departSpeed="0.00" departDelay="2.65" arrival="78.00" arrivalLane="-809772643#1_1" arrivalPos="195.34" arrivalSpeed="14.85" duration="33.00" routeLength="328.72" waitingTime="0.00" waitingCount="0" stopTime="0.00" timeLoss="11.01" rerouteNo="0" devices="tripinfo_flow_route_140_duration_20250327_2010.12" vType="car" speedFactor="0.90" vaporized=""/>
    <tripinfo id="flow_route_140_duration_20250327_2010.10" depart="36.00" departLane="809719540#0_0" departPos="11.44" departSpeed="0.00" departDelay="0.71" arrival="79.00" arrivalLane="-809772643#1_1" arrivalPos="182.36" arrivalSpeed="15.43" duration="43.00" routeLength="481.20" waitingTime="0.00" waitingCount="0" stopTime="0.00" timeLoss="13.64" rerouteNo="0" devices="tripinfo_flow_route_140_duration_20250327_2010.10" vType="car" speedFactor="1.03" vaporized=""/>
    <tripinfo id="flow_route_146_duration_20250327_2010.1" depart="11.00" departLane="683079387#1_0" departPos="3.38" departSpeed="0.00" departDelay="7.25" arrival="90.00" arrivalLane="-809772643#1_1" arrivalPos="12.46" arrivalSpeed="9.99" duration="79.00" routeLength="622.05" waitingTime="10.00" waitingCount="2" stopTime="0.00" timeLoss="36.88" rerouteNo="0" devices="tripinfo_flow_route_146_duration_20250327_2010.1" vType="car" speedFactor="0.89" vaporized=""/>
    <tripinfo id="flow_route_141_duration_20250327_2010.0" depart="0.00" departLane="809719540#0_0" departPos="66.48" departSpeed="0.00" departDelay="0.00" arrival="93.00" arrivalLane="683079387#1_1" arrivalPos="7.27" arrivalSpeed="6.50" duration="93.00" routeLength="836.36" waitingTime="11.00" waitingCount="1" stopTime="0.00" timeLoss="36.34" rerouteNo="0" devices="tripinfo_flow_route_141_duration_20250327_2010.0" vType="car" speedFactor="0.94" vaporized=""/>
    <tripinfo id="flow_route_146_duration_20250327_2010.6" depart="34.00" departLane="683079387#1_0" departPos="2.87" departSpeed="0.00" departDelay="11.50" arrival="94.00" arrivalLane="-809772643#1_1" arrivalPos="16.54" arrivalSpeed="11.42" duration="60.00" routeLength="626.64" waitingTime="0.00" waitingCount="0" stopTime="0.00" timeLoss="20.38" rerouteNo="0" devices="tripinfo_flow_route_146_duration_20250327_2010.6" vType="car" speedFactor="0.95" vaporized=""/>
    <tripinfo id="flow_route_147_duration_20250327_2010.0" depart="5.00" departLane="683079387#1_0" departPos="0.47" departSpeed="0.00" departDelay="5.00" arrival="95.00" arrivalLane="1310781056_0" arrivalPos="4.95" arrivalSpeed="13.74" duration="90.00" routeLength="684.30" waitingTime="21.00" waitingCount="1" stopTime="0.00" timeLoss="40.03" rerouteNo="0" devices="tripinfo_flow_route_147_duration_20250327_2010.0" vType="car" speedFactor="0.83" vaporized=""/>
    <tripinfo id="flow_route_146_duration_20250327_2010.2" depart="16.00" departLane="683079387#1_0" departPos="3.14" departSpeed="0.00" departDelay="8.50" arrival="95.00" arrivalLane="-809772643#1_1" arrivalPos="112.54" arrivalSpeed="16.56" duration="79.00" routeLength="722.37" waitingTime="12.00" waitingCount="1" stopTime="0.00" timeLoss="34.86" rerouteNo="0" devices="tripinfo_flow_route_146_duration_20250327_2010.2" vType="car" speedFactor="1.03" vaporized=""/>
    <tripinfo id="flow_route_146_duration_20250327_2010.3" depart="20.00" departLane="683079387#1_0" departPos="0.68" departSpeed="0.00" departDelay="8.75" arrival="95.00" arrivalLane="-809772643#1_0" arrivalPos="54.60" arrivalSpeed="13.92" duration="75.00" routeLength="666.89" waitingTime="7.00" waitingCount="1" stopTime="0.00" timeLoss="28.77" rerouteNo="0" devices="tripinfo_flow_route_146_duration_20250327_2010.3" vType="car" speedFactor="0.88" vaporized=""/>
    <tripinfo id="flow_route_146_duration_20250327_2010.0" depart="0.00" departLane="683079387#1_0" departPos="0.06" departSpeed="0.00" departDelay="0.00" arrival="96.00" arrivalLane="-809772643#1_0" arrivalPos="121.98" arrivalSpeed="16.27" duration="96.00" routeLength="734.89" waitingTime="28.00" waitingCount="1" stopTime="0.00" timeLoss="51.20" rerouteNo="0" devices="tripinfo_flow_route_146_duration_20250327_2010.0" vType="car" speedFactor="1.03" vaporized=""/>
    <tripinfo id="flow_route_141_duration_20250327_2010.1" depart="12.00" departLane="809719540#0_0" departPos="153.53" departSpeed="0.00" departDelay="0.00" arrival="96.00" arrivalLane="683079387#1_1" arrivalPos="9.85" arrivalSpeed="7.24" duration="84.00" routeLength="751.87" waitingTime="7.00" waitingCount="1" stopTime="0.00" timeLoss="32.23" rerouteNo="0" devices="tripinfo_flow_route_141_duration_20250327_2010.1" vType="car" speedFactor="0.93" vaporized=""/>
    <tripinfo id="flow_route_141_duration_20250327_2010.2" depart="26.00" departLane="809719540#0_0" departPos="157.14" departSpeed="0.00" departDelay="2.00" arrival="97.00" arrivalLane="683079387#1_1" arrivalPos="3.59" arrivalSpeed="6.72" duration="71.00" routeLength="742.02" waitingTime="0.00" waitingCount="0" stopTime="0.00" timeLoss="24.20" rerouteNo="0" devices="tripinfo_flow_route_141_duration_20250327_2010.2" vType="car" speedFactor="1.13" vaporized=""/>
    <tripinfo id="flow_route_146_duration_20250327_2010.5" depart="28.00" departLane="683079387#1_0" departPos="1.07" departSpeed="0.00" departDelay="9.25" arrival="101.00" arrivalLane="-809772643#1_0" arrivalPos="113.05" arrivalSpeed="14.66" duration="73.00" routeLength="724.95" waitingTime="2.00" waitingCount="2" stopTime="0.00" timeLoss="23.42" rerouteNo="0" devices="tripinfo_flow_route_146_duration_20250327_2010.5" vType="car" speedFactor="0.89" vaporized=""/>
    <tripinfo id="flow_route_146_duration_20250327_2010.4" depart="25.00" departLane="683079387#1_0" departPos="4.32" departSpeed="0.00" departDelay="10.00" arrival="102.00" arrivalLane="-809772643#1_1" arrivalPos="143.00" arrivalSpeed="16.40" duration="77.00" routeLength="751.65" waitingTime="4.00" waitingCount="1" stopTime="0.00" timeLoss="30.81" rerouteNo="0" devices="tripinfo_flow_route_146_duration_20250327_2010.4" vType="car" speedFactor="1.16" vaporized=""/>
    <tripinfo id="flow_route_146_duration_20250327_2010.8" depart="43.00" departLane="683079387#1_0" departPos="0.15" departSpeed="0.00" departDelay="13.00" arrival="102.00" arrivalLane="-809772643#1_1" arrivalPos="94.24" arrivalSpeed="16.57" duration="59.00" routeLength="707.06" waitingTime="0.00" waitingCount="0" stopTime="0.00" timeLoss="15.65" rerouteNo="0" devices="tripinfo_flow_route_146_duration_20250327_2010.8" vType="car" speedFactor="1.02" vaporized=""/>
    <tripinfo id="flow_route_141_duration_20250327_2010.3" depart="36.00" departLane="809719540#0_0" departPos="104.93" departSpeed="0.00" departDelay="0.00" arrival="102.00" arrivalLane="683079387#1_1" arrivalPos="3.79" arrivalSpeed="6.44" duration="66.00" routeLength="801.44" waitingTime="0.00" waitingCount="0" stopTime="0.00" timeLoss="13.29" rerouteNo="0" devices="tripinfo_flow_route_141_duration_20250327_2010.3" vType="car" speedFactor="0.96" vaporized=""/>
    <tripinfo id="flow_route_146_duration_20250327_2010.7" depart="39.00" departLane="683079387#1_0" departPos="6.77" departSpeed="0.00" departDelay="12.75" arrival="108.00" arrivalLane="-809772643#1_0" arrivalPos="201.97" arrivalSpeed="16.59" duration="69.00" routeLength="808.17" waitingTime="0.00" waitingCount="0" stopTime="0.00" timeLoss="19.76" rerouteNo="0" devices="tripinfo_flow_route_146_duration_20250327_2010.7" vType="car" speedFactor="1.15" vaporized=""/>
    <tripinfo id="flow_route_146_duration_20250327_2010.9" depart="49.00" departLane="683079387#1_0" departPos="8.01" departSpeed="0.00" departDelay="15.25" arrival="108.00" arrivalLane="-809772643#1_0" arrivalPos="161.48" arrivalSpeed="16.41" duration="59.00" routeLength="766.44" waitingTime="1.00" waitingCount="1" stopTime="0.00" timeLoss="12.10" rerouteNo="0" devices="tripinfo_flow_route_146_duration_20250327_2010.9" vType="car" speedFactor="1.10" vaporized=""/>
    <tripinfo id="flow_route_146_duration_20250327_2010.10" depart="53.00" departLane="683079387#1_0" departPos="1.00" departSpeed="0.00" departDelay="15.50" arrival="114.00" arrivalLane="-809772643#1_0" arrivalPos="202.26" arrivalSpeed="16.21" duration="61.00" routeLength="814.23" waitingTime="0.00" waitingCount="0" stopTime="0.00" timeLoss="11.49" rerouteNo="0" devices="tripinfo_flow_route_146_duration_20250327_2010.10" vType="car" speedFactor="1.09" vaporized=""/>
    <tripinfo id="flow_route_146_duration_20250327_2010.11" depart="59.00" departLane="683079387#1_0" departPos="5.82" departSpeed="0.00" departDelay="17.75" arrival="117.00" arrivalLane="-809772643#1_0" arrivalPos="177.10" arrivalSpeed="16.34" duration="58.00" routeLength="784.26" waitingTime="0.00" waitingCount="0" stopTime="0.00" timeLoss="10.28" rerouteNo="0" devices="tripinfo_flow_route_146_duration_20250327_2010.11" vType="car" speedFactor="1.00" vaporized=""/>
    <tripinfo id="flow_route_141_duration_20250327_2010.4" depart="50.00" departLane="809719540#0_0" departPos="86.87" departSpeed="0.00" departDelay="2.00" arrival="117.00" arrivalLane="683079387#1_1" arrivalPos="8.69" arrivalSpeed="8.07" duration="67.00" routeLength="824.40" waitingTime="0.00" waitingCount="0" stopTime="0.00" timeLoss="14.92" rerouteNo="0" devices="tripinfo_flow_route_141_duration_20250327_2010.4" vType="car" speedFactor="1.02" vaporized=""/>
    <tripinfo id="flow_route_142_duration_20250327_2010.6" depart="26.00" departLane="1253222187#0_0" departPos="76.99" departSpeed="0.00" departDelay="0.29" arrival="121.00" arrivalLane="683079388#0_0" arrivalPos="13.24" arrivalSpeed="16.11" duration="95.00" routeLength="734.56" waitingTime="28.00" waitingCount="1" stopTime="0.00" timeLoss="50.60" rerouteNo="0" devices="tripinfo_flow_route_142_duration_20250327_2010.6" vType="car" speedFactor="1.18" vaporized=""/>
    <tripinfo id="flow_route_142_duration_20250327_2010.4" depart="18.00" departLane="1253222187#0_0" departPos="58.79" departSpeed="0.00" departDelay="0.86" arrival="122.00" arrivalLane="683079388#0_1" arrivalPos="16.57" arrivalSpeed="15.77" duration="104.00" routeLength="756.09" waitingTime="35.00" waitingCount="1" stopTime="0.00" timeLoss="56.62" rerouteNo="0" devices="tripinfo_flow_route_142_duration_20250327_2010.4" vType="car" speedFactor="0.97" vaporized=""/>
    <tripinfo id="flow_route_140_duration_20250327_2010.13" depart="47.00" departLane="809719540#0_0" departPos="30.71" departSpeed="0.00" departDelay="1.12" arrival="123.00" arrivalLane="-809772643#1_1" arrivalPos="2.41" arrivalSpeed="8.56" duration="76.00" routeLength="281.98" waitingTime="36.00" waitingCount="1" stopTime="0.00" timeLoss="58.62" rerouteNo="0" devices="tripinfo_flow_route_140_duration_20250327_2010.13" vType="car" speedFactor="1.17" vaporized=""/>
    <tripinfo id="flow_route_142_duration_20250327_2010.5" depart="22.00" departLane="1253222187#0_0" departPos="38.09" departSpeed="0.00" departDelay="0.58" arrival="128.00" arrivalLane="683079388#0_2" arrivalPos="8.75" arrivalSpeed="14.25" duration="106.00" routeLength="768.97" waitingTime="31.00" waitingCount="1" stopTime="0.00" timeLoss="52.65" rerouteNo="0" devices="tripinfo_flow_route_142_duration_20250327_2010.5" vType="car" speedFactor="0.87" vaporized=""/>
    <tripinfo id="flow_route_142_duration_20250327_2010.10" depart="43.00" departLane="1253222187#0_0" departPos="101.77" departSpeed="0.00" departDelay="0.15" arrival="128.00" arrivalLane="683079388#0_0" arrivalPos="14.18" arrivalSpeed="14.25" duration="85.00" routeLength="710.72" waitingTime="13.00" waitingCount="1" stopTime="0.00" timeLoss="35.90" rerouteNo="0" devices="tripinfo_flow_route_142_duration_20250327_2010.10" vType="car" speedFactor="0.88" vaporized=""/>
    <tripinfo id="flow_route_140_duration_20250327_2010.16" depart="58.00" departLane="809719540#0_0" departPos="22.72" departSpeed="0.00" departDelay="1.54" arrival="129.00" arrivalLane="-809772643#1_0" arrivalPos="49.30" arrivalSpeed="11.65" duration="71.00" routeLength="334.03" waitingTime="28.00" waitingCount="1" stopTime="0.00" timeLoss="50.83" rerouteNo="0" devices="tripinfo_flow_route_140_duration_20250327_2010.16" vType="car" speedFactor="1.02" vaporized=""/>
    <tripinfo id="flow_route_142_duration_20250327_2010.9" depart="39.00" departLane="1253222187#0_0" departPos="58.46" departSpeed="0.00" departDelay="0.44" arrival="130.00" arrivalLane="683079388#0_0" arrivalPos="23.35" arrivalSpeed="15.94" duration="91.00" routeLength="763.20" waitingTime="13.00" waitingCount="1" stopTime="0.00" timeLoss="44.64" rerouteNo="0" devices="tripinfo_flow_route_142_duration_20250327_2010.9" vType="car" speedFactor="1.04" vaporized=""/>
    <tripinfo id="flow_route_142_duration_20250327_2010.11" depart="49.00" departLane="1253222187#0_0" departPos="70.17" departSpeed="0.00" departDelay="1.87" arrival="130.00" arrivalLane="683079388#0_2" arrivalPos="21.16" arrivalSpeed="15.76" duration="81.00" routeLength="749.29" waitingTime="9.00" waitingCount="1" stopTime="0.00" timeLoss="35.73" rerouteNo="0" devices="tripinfo_flow_route_142_duration_20250327_2010.11" vType="car" speedFactor="1.10" vaporized=""/>
    <tripinfo id="flow_route_143_duration_20250327_2010.5" depart="28.00" departLane="1253222187#0_0" departPos="131.82" departSpeed="0.00" departDelay="0.73" arrival="131.00" arrivalLane="1310781056_0" arrivalPos="34.33" arrivalSpeed="16.18" duration="103.00" routeLength="271.01" waitingTime="60.00" waitingCount="2" stopTime="0.00" timeLoss="86.54" rerouteNo="0" devices="tripinfo_flow_route_143_duration_20250327_2010.5" vType="car" speedFactor="1.01" vaporized=""/>
    <tripinfo id="flow_route_142_duration_20250327_2010.13" depart="58.00" departLane="1253222187#0_0" departPos="85.04" departSpeed="0.00" departDelay="2.30" arrival="132.00" arrivalLane="683079388#0_0" arrivalPos="21.97" arrivalSpeed="16.26" duration="74.00" routeLength="735.24" waitingTime="2.00" waitingCount="1" stopTime="0.00" timeLoss="28.77" rerouteNo="0" devices="tripinfo_flow_route_142_duration_20250327_2010.13" vType="car" speedFactor="1.12" vaporized=""/>
    <tripinfo id="flow_route_140_duration_20250327_2010.15" depart="53.00" departLane="809719540#0_0" departPos="61.17" departSpeed="0.00" departDelay="0.07" arrival="135.00" arrivalLane="-809772643#1_0" arrivalPos="163.24" arrivalSpeed="16.39" duration="82.00" routeLength="409.52" waitingTime="33.00" waitingCount="1" stopTime="0.00" timeLoss="57.27" rerouteNo="0" devices="tripinfo_flow_route_140_duration_20250327_2010.15" vType="car" speedFactor="1.02" vaporized=""/>
    <tripinfo id="flow_route_142_duration_20250327_2010.8" depart="35.00" departLane="1253222187#0_0" departPos="29.76" departSpeed="0.00" departDelay="0.72" arrival="138.00" arrivalLane="683079388#0_0" arrivalPos="3.21" arrivalSpeed="14.99" duration="103.00" routeLength="771.76" waitingTime="26.00" waitingCount="1" stopTime="0.00" timeLoss="50.89" rerouteNo="0" devices="tripinfo_flow_route_142_duration_20250327_2010.8" vType="car" speedFactor="0.90" vaporized=""/>
    <tripinfo id="flow_route_142_duration_20250327_2010.12" depart="52.00" departLane="1253222187#0_0" departPos="27.30" departSpeed="0.00" departDelay="0.58" arrival="146.00" arrivalLane="683079388#0_0" arrivalPos="4.07" arrivalSpeed="16.14" duration="94.00" routeLength="775.08" waitingTime="17.00" waitingCount="2" stopTime="0.00" timeLoss="46.35" rerouteNo="0" devices="tripinfo_flow_route_142_duration_20250327_2010.12" vType="car" speedFactor="1.14" vaporized=""/>
    <tripinfo id="flow_route_146_duration_20250327_2010.14" depart="73.00" departLane="683079387#1_0" departPos="1.12" departSpeed="0.00" departDelay="20.50" arrival="166.00" arrivalLane="-809772643#1_0" arrivalPos="23.71" arrivalSpeed="11.59" duration="93.00" routeLength="635.56" waitingTime="29.00" waitingCount="1" stopTime="0.00" timeLoss="52.97" rerouteNo="0" devices="tripinfo_flow_route_146_duration_20250327_2010.14" vType="car" speedFactor="0.97" vaporized=""/>
    <tripinfo id="flow_route_146_duration_20250327_2010.12" depart="63.00" departLane="683079387#1_0" departPos="1.22" departSpeed="0.00" departDelay="18.00" arrival="167.00" arrivalLane="-809772643#1_0" arrivalPos="70.06" arrivalSpeed="13.76" duration="104.00" routeLength="681.81" waitingTime="36.00" waitingCount="1" stopTime="0.00" timeLoss="55.86" rerouteNo="0" devices="tripinfo_flow_route_146_duration_20250327_2010.12" vType="car" speedFactor="0.85" vaporized=""/>
    <tripinfo id="flow_route_146_duration_20250327_2010.13" depart="69.00" departLane="683079387#1_0" departPos="7.55" departSpeed="0.00" departDelay="20.25" arrival="175.00" arrivalLane="-809772643#1_1" arrivalPos="193.56" arrivalSpeed="16.43" duration="106.00" routeLength="798.99" waitingTime="33.00" waitingCount="1" stopTime="0.00" timeLoss="57.60" rerouteNo="0" devices="tripinfo_flow_route_146_duration_20250327_2010.13" vType="car" speedFactor="1.00" vaporized=""/>
    <tripinfo id="flow_route_146_duration_20250327_2010.15" depart="80.00" departLane="683079387#1_0" departPos="2.27" departSpeed="0.00" departDelay="23.75" arrival="178.00" arrivalLane="-809772643#1_1" arrivalPos="194.50" arrivalSpeed="16.39" duration="98.00" routeLength="805.20" waitingTime="22.00" waitingCount="1" stopTime="0.00" timeLoss="48.14" rerouteNo="0" devices="tripinfo_flow_route_146_duration_20250327_2010.15" vType="car" speedFactor="0.99" vaporized=""/>
    <tripinfo id="flow_route_143_duration_20250327_2010.6" depart="33.00" departLane="1253222187#0_0" departPos="139.54" departSpeed="0.00" departDelay="0.28" arrival="183.00" arrivalLane="1310781056_0" arrivalPos="11.51" arrivalSpeed="15.42" duration="150.00" routeLength="240.48" waitingTime="100.00" waitingCount="4" stopTime="0.00" timeLoss="135.09" rerouteNo="0" devices="tripinfo_flow_route_143_duration_20250327_2010.6" vType="car" speedFactor="1.18" vaporized=""/>
    <tripinfo id="flow_route_143_duration_20250327_2010.4" depart="22.00" departLane="1253222187#0_0" departPos="9.88" departSpeed="0.00" departDelay="0.18" arrival="185.00" arrivalLane="1310781056_0" arrivalPos="9.75" arrivalSpeed="16.47" duration="163.00" routeLength="368.38" waitingTime="100.00" waitingCount="4" stopTime="0.00" timeLoss="138.87" rerouteNo="0" devices="tripinfo_flow_route_143_duration_20250327_2010.4" vType="car" speedFactor="0.92" vaporized=""/>
    <tripinfo id="flow_route_143_duration_20250327_2010.7" depart="39.00" departLane="1253222187#0_0" departPos="80.00" departSpeed="0.00" departDelay="0.82" arrival="191.00" arrivalLane="1310781056_0" arrivalPos="39.07" arrivalSpeed="16.14" duration="152.00" routeLength="327.57" waitingTime="99.00" waitingCount="4" stopTime="0.00" timeLoss="131.38" rerouteNo="0" devices="tripinfo_flow_route_143_duration_20250327_2010.7" vType="car" speedFactor="1.09" vaporized=""/>
    <tripinfo id="flow_route_143_duration_20250327_2010.9" depart="50.00" departLane="1253222187#0_0" departPos="93.74" departSpeed="0.00" departDelay="0.91" arrival="191.00" arrivalLane="1310781056_0" arrivalPos="17.39" arrivalSpeed="16.38" duration="141.00" routeLength="292.15" waitingTime="89.00" waitingCount="3" stopTime="0.00" timeLoss="122.35" rerouteNo="0" devices="tripinfo_flow_route_143_duration_20250327_2010.9" vType="car" speedFactor="0.90" vaporized=""/>