<?xml version="1.0" encoding="UTF-8"?>

<!-- generated on 2025-05-06 21:07:41 by Eclipse SUMO sumo Version 1.20.0
<configuration xmlns:xsi="http://www.w3.org/2001/XMLSchema-instance" xsi:noNamespaceSchemaLocation="http://sumo.dlr.de/xsd/sumoConfiguration.xsd">

    <input>
        <net-file value="osm.net.xml"/>
        <route-files value="xml/route_rl_632031937_0.rou.xml"/>
    </input>

    <output>
        <tripinfo-output value="xml/tripinfo_rl_632031937_0.xml"/>
    </output>

    <traci_server>
        <remote-port value="59027"/>
    </traci_server>

</configuration>
-->

<tripinfos xmlns:xsi="http://www.w3.org/2001/XMLSchema-instance" xsi:noNamespaceSchemaLocation="http://sumo.dlr.de/xsd/tripinfo_file.xsd">
    <tripinfo id="flow_route_66_duration_20250327_1920.0" depart="0.00" departLane="-138002002#2_0" departPos="85.87" departSpeed="0.00" departDelay="0.00" arrival="20.00" arrivalLane="-138002006#3_1" arrivalPos="3.87" arrivalSpeed="13.22" duration="20.00" routeLength="121.39" waitingTime="0.00" waitingCount="0" stopTime="0.00" timeLoss="10.36" rerouteNo="0" devices="tripinfo_flow_route_66_duration_20250327_1920.0" vType="car" speedFactor="0.83" vaporized=""/>
    <tripinfo id="flow_route_53_duration_20250327_1920.0" depart="0.00" departLane="138002006#0_0" departPos="48.40" departSpeed="0.00" departDelay="0.00" arrival="22.00" arrivalLane="1369578052#0_0" arrivalPos="131.33" arrivalSpeed="15.39" duration="22.00" routeLength="190.85" waitingTime="0.00" waitingCount="0" stopTime="0.00" timeLoss="9.50" rerouteNo="0" devices="tripinfo_flow_route_53_duration_20250327_1920.0" vType="car" speedFactor="0.94" vaporized=""/>
    <tripinfo id="flow_route_53_duration_20250327_1920.5" depart="12.00" departLane="138002006#0_0" departPos="85.21" departSpeed="0.00" departDelay="3.43" arrival="23.00" arrivalLane="1369578052#0_0" arrivalPos="23.85" arrivalSpeed="9.33" duration="11.00" routeLength="46.55" waitingTime="0.00" waitingCount="0" stopTime="0.00" timeLoss="7.47" rerouteNo="0" devices="tripinfo_flow_route_53_duration_20250327_1920.5" vType="car" speedFactor="0.94" vaporized=""/>
    <tripinfo id="flow_route_53_duration_20250327_1920.1" depart="2.00" departLane="138002006#0_0" departPos="5.35" departSpeed="0.00" departDelay="0.29" arrival="26.00" arrivalLane="1369578052#0_1" arrivalPos="48.76" arrivalSpeed="12.38" duration="24.00" routeLength="151.33" waitingTime="0.00" waitingCount="0" stopTime="0.00" timeLoss="12.98" rerouteNo="0" devices="tripinfo_flow_route_53_duration_20250327_1920.1" vType="car" speedFactor="0.89" vaporized=""/>
    <tripinfo id="flow_route_66_duration_20250327_1920.1" depart="7.00" departLane="-138002002#2_0" departPos="140.83" departSpeed="0.00" departDelay="1.55" arrival="26.00" arrivalLane="-138002006#3_0" arrivalPos="73.18" arrivalSpeed="13.98" duration="19.00" routeLength="135.74" waitingTime="0.00" waitingCount="0" stopTime="0.00" timeLoss="10.81" rerouteNo="0" devices="tripinfo_flow_route_66_duration_20250327_1920.1" vType="car" speedFactor="1.05" vaporized=""/>
    <tripinfo id="flow_route_53_duration_20250327_1920.4" depart="10.00" departLane="138002006#0_0" departPos="23.44" departSpeed="0.00" departDelay="3.14" arrival="28.00" arrivalLane="1369578052#0_0" arrivalPos="43.63" arrivalSpeed="11.50" duration="18.00" routeLength="128.11" waitingTime="0.00" waitingCount="0" stopTime="0.00" timeLoss="10.05" rerouteNo="0" devices="tripinfo_flow_route_53_duration_20250327_1920.4" vType="car" speedFactor="0.99" vaporized=""/>
    <tripinfo id="flow_route_52_duration_20250327_1920.0" depart="0.00" departLane="138002006#0_0" departPos="21.97" departSpeed="0.00" departDelay="0.00" arrival="30.00" arrivalLane="380351865#0_1" arrivalPos="15.21" arrivalSpeed="11.55" duration="30.00" routeLength="234.80" waitingTime="0.00" waitingCount="0" stopTime="0.00" timeLoss="10.25" rerouteNo="0" devices="tripinfo_flow_route_52_duration_20250327_1920.0" vType="car" speedFactor="1.06" vaporized=""/>
    <tripinfo id="flow_route_53_duration_20250327_1920.3" depart="8.00" departLane="138002006#0_0" departPos="60.81" departSpeed="0.00" departDelay="2.86" arrival="32.00" arrivalLane="1369578052#0_1" arrivalPos="173.09" arrivalSpeed="16.26" duration="24.00" routeLength="220.20" waitingTime="0.00" waitingCount="0" stopTime="0.00" timeLoss="10.32" rerouteNo="0" devices="tripinfo_flow_route_53_duration_20250327_1920.3" vType="car" speedFactor="1.03" vaporized=""/>
    <tripinfo id="flow_route_66_duration_20250327_1920.2" depart="12.00" departLane="-138002002#2_0" departPos="90.74" departSpeed="0.00" departDelay="1.09" arrival="32.00" arrivalLane="-138002006#3_1" arrivalPos="21.43" arrivalSpeed="13.89" duration="20.00" routeLength="134.08" waitingTime="0.00" waitingCount="0" stopTime="0.00" timeLoss="11.35" rerouteNo="0" devices="tripinfo_flow_route_66_duration_20250327_1920.2" vType="car" speedFactor="1.02" vaporized=""/>
    <tripinfo id="flow_route_53_duration_20250327_1920.2" depart="5.00" departLane="138002006#0_0" departPos="27.26" departSpeed="0.00" departDelay="1.57" arrival="33.00" arrivalLane="1369578052#0_0" arrivalPos="126.01" arrivalSpeed="13.82" duration="28.00" routeLength="206.67" waitingTime="0.00" waitingCount="0" stopTime="0.00" timeLoss="12.81" rerouteNo="0" devices="tripinfo_flow_route_53_duration_20250327_1920.2" vType="car" speedFactor="0.86" vaporized=""/>
    <tripinfo id="flow_route_67_duration_20250327_1920.0" depart="1.00" departLane="-138002002#2_0" departPos="104.31" departSpeed="0.00" departDelay="1.00" arrival="35.00" arrivalLane="380351865#0_0" arrivalPos="12.69" arrivalSpeed="11.37" duration="34.00" routeLength="241.42" waitingTime="0.00" waitingCount="0" stopTime="0.00" timeLoss="14.46" rerouteNo="0" devices="tripinfo_flow_route_67_duration_20250327_1920.0" vType="car" speedFactor="1.05" vaporized=""/>
    <tripinfo id="flow_route_53_duration_20250327_1920.7" depart="14.00" departLane="138002006#0_0" departPos="24.75" departSpeed="0.00" departDelay="2.00" arrival="37.00" arrivalLane="1369578052#0_0" arrivalPos="109.90" arrivalSpeed="15.84" duration="23.00" routeLength="193.07" waitingTime="0.00" waitingCount="0" stopTime="0.00" timeLoss="10.71" rerouteNo="0" devices="tripinfo_flow_route_53_duration_20250327_1920.7" vType="car" speedFactor="0.97" vaporized=""/>
    <tripinfo id="flow_route_53_duration_20250327_1920.8" depart="16.00" departLane="138002006#0_0" departPos="18.39" departSpeed="0.00" departDelay="2.29" arrival="40.00" arrivalLane="1369578052#0_0" arrivalPos="118.27" arrivalSpeed="14.38" duration="24.00" routeLength="207.80" waitingTime="1.00" waitingCount="1" stopTime="0.00" timeLoss="9.44" rerouteNo="0" devices="tripinfo_flow_route_53_duration_20250327_1920.8" vType="car" speedFactor="0.87" vaporized=""/>
    <tripinfo id="flow_route_67_duration_20250327_1920.2" depart="12.00" departLane="-138002002#2_0" departPos="106.85" departSpeed="0.00" departDelay="1.09" arrival="43.00" arrivalLane="380351865#0_0" arrivalPos="13.86" arrivalSpeed="10.75" duration="31.00" routeLength="240.05" waitingTime="0.00" waitingCount="0" stopTime="0.00" timeLoss="10.66" rerouteNo="0" devices="tripinfo_flow_route_67_duration_20250327_1920.2" vType="car" speedFactor="1.01" vaporized=""/>
    <tripinfo id="flow_route_67_duration_20250327_1920.1" depart="7.00" departLane="-138002002#2_0" departPos="29.31" departSpeed="0.00" departDelay="1.55" arrival="45.00" arrivalLane="380351865#0_0" arrivalPos="15.15" arrivalSpeed="12.39" duration="38.00" routeLength="318.89" waitingTime="0.00" waitingCount="0" stopTime="0.00" timeLoss="14.35" rerouteNo="0" devices="tripinfo_flow_route_67_duration_20250327_1920.1" vType="car" speedFactor="1.12" vaporized=""/>
    <tripinfo id="flow_route_53_duration_20250327_1920.6" depart="14.00" departLane="138002006#0_0" departPos="2.47" departSpeed="0.00" departDelay="3.72" arrival="50.00" arrivalLane="1369578052#0_0" arrivalPos="105.36" arrivalSpeed="13.26" duration="36.00" routeLength="210.81" waitingTime="1.00" waitingCount="1" stopTime="0.00" timeLoss="22.64" rerouteNo="0" devices="tripinfo_flow_route_53_duration_20250327_1920.6" vType="car" speedFactor="1.16" vaporized=""/>
    <tripinfo id="flow_route_53_duration_20250327_1920.10" depart="28.00" departLane="138002006#0_0" departPos="60.44" departSpeed="0.00" departDelay="10.86" arrival="50.00" arrivalLane="1369578052#0_1" arrivalPos="78.01" arrivalSpeed="12.01" duration="22.00" routeLength="125.49" waitingTime="0.00" waitingCount="0" stopTime="0.00" timeLoss="14.34" rerouteNo="0" devices="tripinfo_flow_route_53_duration_20250327_1920.10" vType="car" speedFactor="1.01" vaporized=""/>
    <tripinfo id="flow_route_53_duration_20250327_1920.9" depart="25.00" departLane="138002006#0_0" departPos="34.68" departSpeed="0.00" departDelay="9.57" arrival="51.00" arrivalLane="1369578052#0_1" arrivalPos="62.49" arrivalSpeed="11.22" duration="26.00" routeLength="135.73" waitingTime="0.00" waitingCount="0" stopTime="0.00" timeLoss="17.68" rerouteNo="0" devices="tripinfo_flow_route_53_duration_20250327_1920.9" vType="car" speedFactor="1.13" vaporized=""/>
    <tripinfo id="flow_route_53_duration_20250327_1920.14" depart="31.00" departLane="138002006#0_0" departPos="30.08" departSpeed="0.00" departDelay="7.00" arrival="51.00" arrivalLane="1369578052#0_0" arrivalPos="22.91" arrivalSpeed="10.54" duration="20.00" routeLength="100.75" waitingTime="0.00" waitingCount="0" stopTime="0.00" timeLoss="13.75" rerouteNo="0" devices="tripinfo_flow_route_53_duration_20250327_1920.14" vType="car" speedFactor="1.04" vaporized=""/>
    <tripinfo id="flow_route_53_duration_20250327_1920.11" depart="28.00" departLane="138002006#0_0" departPos="52.61" departSpeed="0.00" departDelay="9.15" arrival="54.00" arrivalLane="1369578052#0_0" arrivalPos="107.84" arrivalSpeed="14.25" duration="26.00" routeLength="163.14" waitingTime="0.00" waitingCount="0" stopTime="0.00" timeLoss="16.14" rerouteNo="0" devices="tripinfo_flow_route_53_duration_20250327_1920.11" vType="car" speedFactor="0.99" vaporized=""/>
    <tripinfo id="flow_route_52_duration_20250327_1920.1" depart="11.00" departLane="138002006#0_0" departPos="7.90" departSpeed="0.00" departDelay="3.50" arrival="55.00" arrivalLane="380351865#0_1" arrivalPos="0.51" arrivalSpeed="9.47" duration="44.00" routeLength="234.17" waitingTime="5.00" waitingCount="1" stopTime="0.00" timeLoss="21.85" rerouteNo="0" devices="tripinfo_flow_route_52_duration_20250327_1920.1" vType="car" speedFactor="0.88" vaporized=""/>
    <tripinfo id="flow_route_53_duration_20250327_1920.13" depart="31.00" departLane="138002006#0_0" departPos="41.75" departSpeed="0.00" departDelay="8.72" arrival="55.00" arrivalLane="1369578052#0_0" arrivalPos="85.96" arrivalSpeed="14.12" duration="24.00" routeLength="152.13" waitingTime="0.00" waitingCount="0" stopTime="0.00" timeLoss="13.76" rerouteNo="0" devices="tripinfo_flow_route_53_duration_20250327_1920.13" vType="car" speedFactor="0.96" vaporized=""/>
    <tripinfo id="flow_route_53_duration_20250327_1920.15" depart="33.00" departLane="138002006#0_0" departPos="72.73" departSpeed="0.00" departDelay="7.29" arrival="55.00" arrivalLane="1369578052#0_0" arrivalPos="155.85" arrivalSpeed="16.32" duration="22.00" routeLength="191.04" waitingTime="0.00" waitingCount="0" stopTime="0.00" timeLoss="9.95" rerouteNo="0" devices="tripinfo_flow_route_53_duration_20250327_1920.15" vType="car" speedFactor="1.00" vaporized=""/>
    <tripinfo id="flow_route_53_duration_20250327_1920.12" depart="28.00" departLane="138002006#0_0" departPos="9.13" departSpeed="0.00" departDelay="7.43" arrival="56.00" arrivalLane="1369578052#0_1" arrivalPos="90.82" arrivalSpeed="14.55" duration="28.00" routeLength="189.60" waitingTime="0.00" waitingCount="0" stopTime="0.00" timeLoss="16.14" rerouteNo="0" devices="tripinfo_flow_route_53_duration_20250327_1920.12" vType="car" speedFactor="1.18" vaporized=""/>
    <tripinfo id="flow_route_52_duration_20250327_1920.2" depart="24.00" departLane="138002006#0_0" departPos="12.53" departSpeed="0.00" departDelay="9.00" arrival="60.00" arrivalLane="380351865#0_1" arrivalPos="3.06" arrivalSpeed="10.06" duration="36.00" routeLength="232.08" waitingTime="0.00" waitingCount="0" stopTime="0.00" timeLoss="15.15" rerouteNo="0" devices="tripinfo_flow_route_52_duration_20250327_1920.2" vType="car" speedFactor="0.95" vaporized=""/>
    <tripinfo id="flow_route_53_duration_20250327_1920.16" depart="36.00" departLane="138002006#0_0" departPos="13.99" departSpeed="0.00" departDelay="8.58" arrival="62.00" arrivalLane="1369578052#0_1" arrivalPos="108.59" arrivalSpeed="14.58" duration="26.00" routeLength="202.52" waitingTime="0.00" waitingCount="0" stopTime="0.00" timeLoss="11.93" rerouteNo="0" devices="tripinfo_flow_route_53_duration_20250327_1920.16" vType="car" speedFactor="0.88" vaporized=""/>
    <tripinfo id="flow_route_53_duration_20250327_1920.17" depart="43.00" departLane="138002006#0_0" departPos="52.24" departSpeed="0.00" departDelay="13.86" arrival="63.00" arrivalLane="1369578052#0_0" arrivalPos="88.97" arrivalSpeed="14.78" duration="20.00" routeLength="144.66" waitingTime="0.00" waitingCount="0" stopTime="0.00" timeLoss="10.98" rerouteNo="0" devices="tripinfo_flow_route_53_duration_20250327_1920.17" vType="car" speedFactor="1.10" vaporized=""/>
    <tripinfo id="flow_route_52_duration_20250327_1920.3" depart="29.00" departLane="138002006#0_0" departPos="1.30" departSpeed="0.00" departDelay="6.50" arrival="64.00" arrivalLane="380351865#0_1" arrivalPos="1.73" arrivalSpeed="11.27" duration="35.00" routeLength="241.99" waitingTime="0.00" waitingCount="0" stopTime="0.00" timeLoss="15.19" rerouteNo="0" devices="tripinfo_flow_route_52_duration_20250327_1920.3" vType="car" speedFactor="1.03" vaporized=""/>
    <tripinfo id="flow_route_53_duration_20250327_1920.22" depart="55.00" departLane="138002006#0_0" departPos="81.58" departSpeed="0.00" departDelay="17.29" arrival="66.00" arrivalLane="1369578052#0_0" arrivalPos="18.01" arrivalSpeed="8.28" duration="11.00" routeLength="44.35" waitingTime="0.00" waitingCount="0" stopTime="0.00" timeLoss="7.45" rerouteNo="0" devices="tripinfo_flow_route_53_duration_20250327_1920.22" vType="car" speedFactor="0.88" vaporized=""/>
    <tripinfo id="flow_route_53_duration_20250327_1920.20" depart="48.00" departLane="138002006#0_0" departPos="1.18" departSpeed="0.00" departDelay="13.72" arrival="73.00" arrivalLane="1369578052#0_1" arrivalPos="61.35" arrivalSpeed="12.37" duration="25.00" routeLength="168.09" waitingTime="0.00" waitingCount="0" stopTime="0.00" timeLoss="14.75" rerouteNo="0" devices="tripinfo_flow_route_53_duration_20250327_1920.20" vType="car" speedFactor="1.08" vaporized=""/>
    <tripinfo id="flow_route_53_duration_20250327_1920.18" depart="45.00" departLane="138002006#0_0" departPos="20.45" departSpeed="0.00" departDelay="14.15" arrival="74.00" arrivalLane="1369578052#0_0" arrivalPos="63.75" arrivalSpeed="12.01" duration="29.00" routeLength="151.22" waitingTime="0.00" waitingCount="0" stopTime="0.00" timeLoss="19.64" rerouteNo="0" devices="tripinfo_flow_route_53_duration_20250327_1920.18" vType="car" speedFactor="1.00" vaporized=""/>
    <tripinfo id="flow_route_53_duration_20250327_1920.19" depart="47.00" departLane="138002006#0_0" departPos="39.68" departSpeed="0.00" departDelay="14.43" arrival="74.00" arrivalLane="1369578052#0_0" arrivalPos="89.66" arrivalSpeed="13.82" duration="27.00" routeLength="157.90" waitingTime="0.00" waitingCount="0" stopTime="0.00" timeLoss="15.91" rerouteNo="0" devices="tripinfo_flow_route_53_duration_20250327_1920.19" vType="car" speedFactor="0.90" vaporized=""/>
    <tripinfo id="flow_route_53_duration_20250327_1920.21" depart="53.00" departLane="138002006#0_0" departPos="26.05" departSpeed="0.00" departDelay="17.01" arrival="76.00" arrivalLane="1369578052#0_0" arrivalPos="59.62" arrivalSpeed="12.12" duration="23.00" routeLength="141.49" waitingTime="0.00" waitingCount="0" stopTime="0.00" timeLoss="13.84" rerouteNo="0" devices="tripinfo_flow_route_53_duration_20250327_1920.21" vType="car" speedFactor="1.12" vaporized=""/>
    <tripinfo id="flow_route_52_duration_20250327_1920.5" depart="54.00" departLane="138002006#0_0" departPos="79.33" departSpeed="0.00" departDelay="16.50" arrival="78.00" arrivalLane="380351865#0_1" arrivalPos="1.96" arrivalSpeed="10.41" duration="24.00" routeLength="164.19" waitingTime="0.00" waitingCount="0" stopTime="0.00" timeLoss="6.77" rerouteNo="0" devices="tripinfo_flow_route_52_duration_20250327_1920.5" vType="car" speedFactor="0.94" vaporized=""/>
    <tripinfo id="flow_route_59_duration_20250327_1920.3" depart="7.00" departLane="186407685_0" departPos="169.38" departSpeed="0.00" departDelay="0.33" arrival="79.00" arrivalLane="1369578052#0_0" arrivalPos="5.98" arrivalSpeed="5.33" duration="72.00" routeLength="22.70" waitingTime="60.00" waitingCount="1" stopTime="0.00" timeLoss="69.49" rerouteNo="0" devices="tripinfo_flow_route_59_duration_20250327_1920.3" vType="car" speedFactor="0.93" vaporized=""/>
    <tripinfo id="flow_route_52_duration_20250327_1920.4" depart="43.00" departLane="138002006#0_0" departPos="0.65" departSpeed="0.00" departDelay="13.00" arrival="81.00" arrivalLane="380351865#0_1" arrivalPos="15.14" arrivalSpeed="11.04" duration="38.00" routeLength="256.05" waitingTime="0.00" waitingCount="0" stopTime="0.00" timeLoss="16.20" rerouteNo="0" devices="tripinfo_flow_route_52_duration_20250327_1920.4" vType="car" speedFactor="1.02" vaporized=""/>
    <tripinfo id="flow_route_58_duration_20250327_1920.0" depart="0.00" departLane="186407685_0" departPos="1.07" departSpeed="0.00" departDelay="0.00" arrival="85.00" arrivalLane="-138002006#3_1" arrivalPos="43.63" arrivalSpeed="9.74" duration="85.00" routeLength="235.82" waitingTime="48.00" waitingCount="1" stopTime="0.00" timeLoss="69.82" rerouteNo="0" devices="tripinfo_flow_route_58_duration_20250327_1920.0" vType="car" speedFactor="1.08" vaporized=""/>
    <tripinfo id="flow_route_58_duration_20250327_1920.1" depart="33.00" departLane="186407685_0" departPos="20.25" departSpeed="0.00" departDelay="13.00" arrival="85.00" arrivalLane="-138002006#3_1" arrivalPos="26.88" arrivalSpeed="9.05" duration="52.00" routeLength="199.89" waitingTime="18.00" waitingCount="1" stopTime="0.00" timeLoss="38.84" rerouteNo="0" devices="tripinfo_flow_route_58_duration_20250327_1920.1" vType="car" speedFactor="1.02" vaporized=""/>
    <tripinfo id="flow_route_59_duration_20250327_1920.0" depart="0.00" departLane="186407685_0" departPos="119.17" departSpeed="0.00" departDelay="0.00" arrival="92.00" arrivalLane="1369578052#0_0" arrivalPos="108.75" arrivalSpeed="13.87" duration="92.00" routeLength="175.69" waitingTime="60.00" waitingCount="1" stopTime="0.00" timeLoss="80.18" rerouteNo="0" devices="tripinfo_flow_route_59_duration_20250327_1920.0" vType="car" speedFactor="1.03" vaporized=""/>
    <tripinfo id="flow_route_59_duration_20250327_1920.2" depart="5.00" departLane="186407685_0" departPos="112.17" departSpeed="0.00" departDelay="0.56" arrival="93.00" arrivalLane="1369578052#0_0" arrivalPos="94.56" arrivalSpeed="13.57" duration="88.00" routeLength="168.50" waitingTime="56.00" waitingCount="1" stopTime="0.00" timeLoss="76.30" rerouteNo="0" devices="tripinfo_flow_route_59_duration_20250327_1920.2" vType="car" speedFactor="1.09" vaporized=""/>
    <tripinfo id="flow_route_57_duration_20250327_1920.0" depart="0.00" departLane="186407685_0" departPos="131.94" departSpeed="0.00" departDelay="0.00" arrival="94.00" arrivalLane="380351865#0_0" arrivalPos="0.78" arrivalSpeed="11.19" duration="94.00" routeLength="205.45" waitingTime="61.00" waitingCount="1" stopTime="0.00" timeLoss="77.38" rerouteNo="0" devices="tripinfo_flow_route_57_duration_20250327_1920.0" vType="car" speedFactor="1.01" vaporized=""/>
    <tripinfo id="flow_route_59_duration_20250327_1920.6" depart="17.00" departLane="186407685_0" departPos="62.30" departSpeed="0.00" departDelay="3.67" arrival="95.00" arrivalLane="1369578052#0_0" arrivalPos="27.99" arrivalSpeed="8.43" duration="78.00" routeLength="151.80" waitingTime="43.00" waitingCount="1" stopTime="0.00" timeLoss="67.95" rerouteNo="0" devices="tripinfo_flow_route_59_duration_20250327_1920.6" vType="car" speedFactor="0.92" vaporized=""/>
    <tripinfo id="flow_route_58_duration_20250327_1920.2" depart="68.00" departLane="186407685_0" departPos="44.16" departSpeed="0.00" departDelay="28.00" arrival="96.00" arrivalLane="-138002006#3_1" arrivalPos="83.52" arrivalSpeed="14.38" duration="28.00" routeLength="232.61" waitingTime="0.00" waitingCount="0" stopTime="0.00" timeLoss="12.65" rerouteNo="0" devices="tripinfo_flow_route_58_duration_20250327_1920.2" vType="car" speedFactor="1.02" vaporized=""/>
    <tripinfo id="flow_route_59_duration_20250327_1920.4" depart="10.00" departLane="186407685_0" departPos="29.74" departSpeed="0.00" departDelay="1.11" arrival="97.00" arrivalLane="1369578052#0_0" arrivalPos="23.11" arrivalSpeed="7.80" duration="87.00" routeLength="179.48" waitingTime="43.00" waitingCount="1" stopTime="0.00" timeLoss="74.87" rerouteNo="0" devices="tripinfo_flow_route_59_duration_20250327_1920.4" vType="car" speedFactor="0.94" vaporized=""/>
    <tripinfo id="flow_route_57_duration_20250327_1920.1" depart="14.00" departLane="186407685_0" departPos="96.82" departSpeed="0.00" departDelay="2.00" arrival="98.00" arrivalLane="380351865#0_1" arrivalPos="11.81" arrivalSpeed="9.77" duration="84.00" routeLength="251.60" waitingTime="45.00" waitingCount="1" stopTime="0.00" timeLoss="62.20" rerouteNo="0" devices="tripinfo_flow_route_57_duration_20250327_1920.1" vType="car" speedFactor="0.89" vaporized=""/>
    <tripinfo id="flow_route_59_duration_20250327_1920.7" depart="17.00" departLane="186407685_0" departPos="37.60" departSpeed="0.00" departDelay="1.45" arrival="99.00" arrivalLane="1369578052#0_0" arrivalPos="15.86" arrivalSpeed="7.17" duration="82.00" routeLength="164.36" waitingTime="44.00" waitingCount="1" stopTime="0.00" timeLoss="70.61" rerouteNo="0" devices="tripinfo_flow_route_59_duration_20250327_1920.7" vType="car" speedFactor="0.93" vaporized=""/>
    <tripinfo id="flow_route_59_duration_20250327_1920.1" depart="3.00" departLane="186407685_0" departPos="57.01" departSpeed="0.00" departDelay="0.78" arrival="100.00" arrivalLane="1369578052#0_0" arrivalPos="161.40" arrivalSpeed="15.48" duration="97.00" routeLength="290.50" waitingTime="55.00" waitingCount="1" stopTime="0.00" timeLoss="77.58" rerouteNo="0" devices="tripinfo_flow_route_59_duration_20250327_1920.1" vType="car" speedFactor="0.94" vaporized=""/>
    <tripinfo id="flow_route_57_duration_20250327_1920.2" depart="42.00" departLane="186407685_0" departPos="100.86" departSpeed="0.00" departDelay="18.00" arrival="100.00" arrivalLane="380351865#0_1" arrivalPos="12.18" arrivalSpeed="10.98" duration="58.00" routeLength="247.93" waitingTime="19.00" waitingCount="1" stopTime="0.00" timeLoss="38.76" rerouteNo="0" devices="tripinfo_flow_route_57_duration_20250327_1920.2" vType="car" speedFactor="1.04" vaporized=""/>
    <tripinfo id="flow_route_57_duration_20250327_1920.3" depart="58.00" departLane="186407685_0" departPos="42.60" departSpeed="0.00" departDelay="22.00" arrival="102.00" arrivalLane="380351865#0_1" arrivalPos="12.34" arrivalSpeed="10.96" duration="44.00" routeLength="306.35" waitingTime="0.00" waitingCount="0" stopTime="0.00" timeLoss="20.58" rerouteNo="0" devices="tripinfo_flow_route_57_duration_20250327_1920.3" vType="car" speedFactor="1.02" vaporized=""/>
    <tripinfo id="flow_route_59_duration_20250327_1920.5" depart="17.00" departLane="186407685_0" departPos="127.82" departSpeed="0.00" departDelay="5.89" arrival="105.00" arrivalLane="1369578052#0_0" arrivalPos="172.36" arrivalSpeed="13.30" duration="88.00" routeLength="230.65" waitingTime="51.00" waitingCount="1" stopTime="0.00" timeLoss="70.54" rerouteNo="0" devices="tripinfo_flow_route_59_duration_20250327_1920.5" vType="car" speedFactor="0.83" vaporized=""/>
    <tripinfo id="flow_route_59_duration_20250327_1920.9" depart="35.00" departLane="186407685_0" departPos="36.74" departSpeed="0.00" departDelay="15.00" arrival="107.00" arrivalLane="1369578052#0_0" arrivalPos="19.30" arrivalSpeed="8.17" duration="72.00" routeLength="168.67" waitingTime="33.00" waitingCount="1" stopTime="0.00" timeLoss="60.09" rerouteNo="0" devices="tripinfo_flow_route_59_duration_20250327_1920.9" vType="car" speedFactor="0.97" vaporized=""/>
    <tripinfo id="flow_route_59_duration_20250327_1920.8" depart="19.00" departLane="186407685_0" departPos="4.22" departSpeed="0.00" departDelay="1.22" arrival="110.00" arrivalLane="1369578052#0_0" arrivalPos="113.38" arrivalSpeed="14.48" duration="91.00" routeLength="295.27" waitingTime="43.00" waitingCount="1" stopTime="0.00" timeLoss="71.57" rerouteNo="0" devices="tripinfo_flow_route_59_duration_20250327_1920.8" vType="car" speedFactor="1.17" vaporized=""/>
    <tripinfo id="flow_route_59_duration_20250327_1920.10" depart="36.00" departLane="186407685_0" departPos="64.90" departSpeed="0.00" departDelay="13.78" arrival="112.00" arrivalLane="1369578052#0_0" arrivalPos="121.99" arrivalSpeed="14.73" duration="76.00" routeLength="243.21" waitingTime="33.00" waitingCount="1" stopTime="0.00" timeLoss="60.80" rerouteNo="0" devices="tripinfo_flow_route_59_duration_20250327_1920.10" vType="car" speedFactor="1.09" vaporized=""/>
    <tripinfo id="flow_route_66_duration_20250327_1920.3" depart="19.00" departLane="-138002002#2_0" departPos="67.27" departSpeed="0.00" departDelay="2.64" arrival="116.00" arrivalLane="-138002006#3_1" arrivalPos="4.16" arrivalSpeed="6.10" duration="97.00" routeLength="140.28" waitingTime="70.00" waitingCount="1" stopTime="0.00" timeLoss="88.50" rerouteNo="0" devices="tripinfo_flow_route_66_duration_20250327_1920.3" vType="car" speedFactor="1.18" vaporized=""/>
    <tripinfo id="flow_route_53_duration_20250327_1920.24" depart="63.00" departLane="138002006#0_0" departPos="37.97" departSpeed="0.00" departDelay="21.86" arrival="119.00" arrivalLane="1369578052#0_0" arrivalPos="15.59" arrivalSpeed="6.90" duration="56.00" routeLength="85.54" waitingTime="33.00" waitingCount="1" stopTime="0.00" timeLoss="50.40" rerouteNo="0" devices="tripinfo_flow_route_53_duration_20250327_1920.24" vType="car" speedFactor="0.94" vaporized=""/>
    <tripinfo id="flow_route_59_duration_20250327_1920.13" depart="47.00" departLane="186407685_0" departPos="61.39" departSpeed="0.00" departDelay="18.11" arrival="120.00" arrivalLane="1369578052#0_0" arrivalPos="174.15" arrivalSpeed="16.25" duration="73.00" routeLength="298.87" waitingTime="27.00" waitingCount="1" stopTime="0.00" timeLoss="53.87" rerouteNo="0" devices="tripinfo_flow_route_59_duration_20250327_1920.13" vType="car" speedFactor="1.17" vaporized=""/>
    <tripinfo id="flow_route_66_duration_20250327_1920.5" depart="28.00" departLane="-138002002#2_0" departPos="118.10" departSpeed="0.00" departDelay="0.73" arrival="124.00" arrivalLane="-138002006#3_1" arrivalPos="24.62" arrivalSpeed="8.78" duration="96.00" routeLength="109.91" waitingTime="68.00" waitingCount="1" stopTime="0.00" timeLoss="88.21" rerouteNo="0" devices="tripinfo_flow_route_66_duration_20250327_1920.5" vType="car" speedFactor="0.85" vaporized=""/>
    <tripinfo id="flow_route_53_duration_20250327_1920.26" depart="72.00" departLane="138002006#0_0" departPos="23.20" departSpeed="0.00" departDelay="27.44" arrival="124.00" arrivalLane="1369578052#0_0" arrivalPos="20.22" arrivalSpeed="8.87" duration="52.00" routeLength="104.94" waitingTime="25.00" waitingCount="1" stopTime="0.00" timeLoss="45.62" rerouteNo="0" devices="tripinfo_flow_route_53_duration_20250327_1920.26" vType="car" speedFactor="1.01" vaporized=""/>
    <tripinfo id="flow_route_66_duration_20250327_1920.6" depart="33.00" departLane="-138002002#2_0" departPos="183.61" departSpeed="0.00" departDelay="0.28" arrival="125.00" arrivalLane="-138002006#3_0" arrivalPos="80.71" arrivalSpeed="11.78" duration="92.00" routeLength="100.49" waitingTime="76.00" waitingCount="1" stopTime="0.00" timeLoss="85.89" rerouteNo="0" devices="tripinfo_flow_route_66_duration_20250327_1920.6" vType="car" speedFactor="1.14" vaporized=""/>
    <tripinfo id="flow_route_66_duration_20250327_1920.4" depart="22.00" departLane="-138002002#2_0" departPos="63.16" departSpeed="0.00" departDelay="0.18" arrival="127.00" arrivalLane="-138002006#3_1" arrivalPos="77.58" arrivalSpeed="13.70" duration="105.00" routeLength="217.81" waitingTime="69.00" waitingCount="1" stopTime="0.00" timeLoss="91.09" rerouteNo="0" devices="tripinfo_flow_route_66_duration_20250327_1920.4" vType="car" speedFactor="1.10" vaporized=""/>
    <tripinfo id="flow_route_66_duration_20250327_1920.8" depart="44.00" departLane="-138002002#2_0" departPos="35.11" departSpeed="0.00" departDelay="0.37" arrival="130.00" arrivalLane="-138002006#3_1" arrivalPos="38.20" arrivalSpeed="11.30" duration="86.00" routeLength="206.48" waitingTime="50.00" waitingCount="1" stopTime="0.00" timeLoss="73.17" rerouteNo="0" devices="tripinfo_flow_route_66_duration_20250327_1920.8" vType="car" speedFactor="0.98" vaporized=""/>
    <tripinfo id="flow_route_66_duration_20250327_1920.7" depart="39.00" departLane="-138002002#2_0" departPos="85.81" departSpeed="0.00" departDelay="0.82" arrival="131.00" arrivalLane="-138002006#3_1" arrivalPos="81.64" arrivalSpeed="13.44" duration="92.00" routeLength="199.22" waitingTime="58.00" waitingCount="1" stopTime="0.00" timeLoss="78.64" rerouteNo="0" devices="tripinfo_flow_route_66_duration_20250327_1920.7" vType="car" speedFactor="0.91" vaporized=""/>