<?xml version="1.0" encoding="UTF-8"?>

<!-- generated on 2025-05-06 21:08:26 by Eclipse SUMO sumo Version 1.20.0
<configuration xmlns:xsi="http://www.w3.org/2001/XMLSchema-instance" xsi:noNamespaceSchemaLocation="http://sumo.dlr.de/xsd/sumoConfiguration.xsd">

    <input>
        <net-file value="osm.net.xml"/>
        <route-files value="xml/route_static_cluster_11648561428_407729599_4.rou.xml"/>
    </input>

    <output>
        <tripinfo-output value="xml/tripinfo_static_cluster_11648561428_407729599_4.xml"/>
    </output>

    <traci_server>
        <remote-port value="54513"/>
    </traci_server>

</configuration>
-->

<tripinfos xmlns:xsi="http://www.w3.org/2001/XMLSchema-instance" xsi:noNamespaceSchemaLocation="http://sumo.dlr.de/xsd/tripinfo_file.xsd">
    <tripinfo id="flow_route_106_duration_20250327_2220.0" depart="0.00" departLane="1254519229#0_0" departPos="19.69" departSpeed="0.00" departDelay="0.00" arrival="17.00" arrivalLane="430416184_1" arrivalPos="13.15" arrivalSpeed="9.33" duration="17.00" routeLength="94.14" waitingTime="0.00" waitingCount="0" stopTime="0.00" timeLoss="10.50" rerouteNo="0" devices="tripinfo_flow_route_106_duration_20250327_2220.0" vType="car" speedFactor="1.01" vaporized=""/>
    <tripinfo id="flow_route_107_duration_20250327_2220.0" depart="0.00" departLane="1254519229#0_0" departPos="43.39" departSpeed="0.00" departDelay="0.00" arrival="20.00" arrivalLane="1342963997_0" arrivalPos="88.24" arrivalSpeed="14.75" duration="20.00" routeLength="145.44" waitingTime="0.00" waitingCount="0" stopTime="0.00" timeLoss="10.92" rerouteNo="0" devices="tripinfo_flow_route_107_duration_20250327_2220.0" vType="car" speedFactor="1.08" vaporized=""/>
    <tripinfo id="flow_route_101_duration_20250327_2220.0" depart="0.00" departLane="186409193_0" departPos="43.42" departSpeed="0.00" departDelay="0.00" arrival="34.00" arrivalLane="430416184_0" arrivalPos="206.05" arrivalSpeed="16.21" duration="34.00" routeLength="297.12" waitingTime="0.00" waitingCount="0" stopTime="0.00" timeLoss="14.79" rerouteNo="0" devices="tripinfo_flow_route_101_duration_20250327_2220.0" vType="car" speedFactor="0.94" vaporized=""/>
    <tripinfo id="flow_route_107_duration_20250327_2220.1" depart="15.00" departLane="1254519229#0_0" departPos="21.05" departSpeed="0.00" departDelay="0.00" arrival="36.00" arrivalLane="1342963997_0" arrivalPos="81.18" arrivalSpeed="15.84" duration="21.00" routeLength="160.71" waitingTime="0.00" waitingCount="0" stopTime="0.00" timeLoss="10.54" rerouteNo="0" devices="tripinfo_flow_route_107_duration_20250327_2220.1" vType="car" speedFactor="0.89" vaporized=""/>
    <tripinfo id="flow_route_100_duration_20250327_2220.0" depart="0.00" departLane="186409193_0" departPos="2.55" departSpeed="0.00" departDelay="0.00" arrival="37.00" arrivalLane="1254519229#0_1" arrivalPos="70.90" arrivalSpeed="10.62" duration="37.00" routeLength="299.97" waitingTime="0.00" waitingCount="0" stopTime="0.00" timeLoss="17.85" rerouteNo="0" devices="tripinfo_flow_route_100_duration_20250327_2220.0" vType="car" speedFactor="1.06" vaporized=""/>
    <tripinfo id="flow_route_106_duration_20250327_2220.1" depart="15.00" departLane="1254519229#0_0" departPos="45.06" departSpeed="0.00" departDelay="0.00" arrival="37.00" arrivalLane="430416184_1" arrivalPos="134.81" arrivalSpeed="16.14" duration="22.00" routeLength="190.43" waitingTime="0.00" waitingCount="0" stopTime="0.00" timeLoss="9.66" rerouteNo="0" devices="tripinfo_flow_route_106_duration_20250327_2220.1" vType="car" speedFactor="1.05" vaporized=""/>
    <tripinfo id="flow_route_101_duration_20250327_2220.1" depart="12.00" departLane="186409193_0" departPos="39.32" departSpeed="0.00" departDelay="0.00" arrival="59.00" arrivalLane="430416184_0" arrivalPos="1.75" arrivalSpeed="4.36" duration="47.00" routeLength="96.93" waitingTime="24.00" waitingCount="1" stopTime="0.00" timeLoss="39.03" rerouteNo="0" devices="tripinfo_flow_route_101_duration_20250327_2220.1" vType="car" speedFactor="0.83" vaporized=""/>
    <tripinfo id="flow_route_149_duration_20250327_2220.0" depart="0.00" departLane="186410975#0_0" departPos="192.32" departSpeed="0.00" departDelay="0.00" arrival="61.00" arrivalLane="430416184_1" arrivalPos="170.61" arrivalSpeed="16.16" duration="61.00" routeLength="523.96" waitingTime="4.00" waitingCount="1" stopTime="0.00" timeLoss="24.90" rerouteNo="0" devices="tripinfo_flow_route_149_duration_20250327_2220.0" vType="car" speedFactor="1.03" vaporized=""/>
    <tripinfo id="flow_route_101_duration_20250327_2220.2" depart="24.00" departLane="186409193_0" departPos="51.15" departSpeed="0.00" departDelay="0.00" arrival="64.00" arrivalLane="430416184_0" arrivalPos="17.43" arrivalSpeed="7.04" duration="40.00" routeLength="100.77" waitingTime="15.00" waitingCount="1" stopTime="0.00" timeLoss="32.60" rerouteNo="0" devices="tripinfo_flow_route_101_duration_20250327_2220.2" vType="car" speedFactor="0.94" vaporized=""/>
    <tripinfo id="flow_route_101_duration_20250327_2220.4" depart="48.00" departLane="186409193_0" departPos="17.63" departSpeed="0.00" departDelay="0.00" arrival="69.00" arrivalLane="430416184_0" arrivalPos="9.37" arrivalSpeed="6.65" duration="21.00" routeLength="126.25" waitingTime="0.00" waitingCount="0" stopTime="0.00" timeLoss="12.04" rerouteNo="0" devices="tripinfo_flow_route_101_duration_20250327_2220.4" vType="car" speedFactor="0.93" vaporized=""/>
    <tripinfo id="flow_route_106_duration_20250327_2220.2" depart="30.00" departLane="1254519229#0_0" departPos="40.82" departSpeed="0.00" departDelay="0.00" arrival="70.00" arrivalLane="430416184_1" arrivalPos="93.11" arrivalSpeed="12.84" duration="40.00" routeLength="152.97" waitingTime="9.00" waitingCount="1" stopTime="0.00" timeLoss="29.53" rerouteNo="0" devices="tripinfo_flow_route_106_duration_20250327_2220.2" vType="car" speedFactor="0.86" vaporized=""/>
    <tripinfo id="flow_route_107_duration_20250327_2220.3" depart="45.00" departLane="1254519229#0_0" departPos="18.84" departSpeed="0.00" departDelay="0.00" arrival="70.00" arrivalLane="1342963997_0" arrivalPos="71.21" arrivalSpeed="11.94" duration="25.00" routeLength="152.95" waitingTime="0.00" waitingCount="0" stopTime="0.00" timeLoss="15.75" rerouteNo="0" devices="tripinfo_flow_route_107_duration_20250327_2220.3" vType="car" speedFactor="0.99" vaporized=""/>
    <tripinfo id="flow_route_107_duration_20250327_2220.2" depart="30.00" departLane="1254519229#0_0" departPos="24.43" departSpeed="0.00" departDelay="0.00" arrival="73.00" arrivalLane="1342963997_0" arrivalPos="122.75" arrivalSpeed="15.13" duration="43.00" routeLength="198.90" waitingTime="9.00" waitingCount="1" stopTime="0.00" timeLoss="30.20" rerouteNo="0" devices="tripinfo_flow_route_107_duration_20250327_2220.2" vType="car" speedFactor="1.09" vaporized=""/>
    <tripinfo id="flow_route_106_duration_20250327_2220.3" depart="45.00" departLane="1254519229#0_0" departPos="43.31" departSpeed="0.00" departDelay="0.00" arrival="82.00" arrivalLane="430416184_1" arrivalPos="256.69" arrivalSpeed="16.37" duration="37.00" routeLength="314.06" waitingTime="0.00" waitingCount="0" stopTime="0.00" timeLoss="17.29" rerouteNo="0" devices="tripinfo_flow_route_106_duration_20250327_2220.3" vType="car" speedFactor="1.12" vaporized=""/>
    <tripinfo id="flow_route_101_duration_20250327_2220.3" depart="36.00" departLane="186409193_0" departPos="48.16" departSpeed="0.00" departDelay="0.00" arrival="86.00" arrivalLane="430416184_0" arrivalPos="271.56" arrivalSpeed="16.47" duration="50.00" routeLength="357.90" waitingTime="4.00" waitingCount="1" stopTime="0.00" timeLoss="27.11" rerouteNo="0" devices="tripinfo_flow_route_101_duration_20250327_2220.3" vType="car" speedFactor="1.05" vaporized=""/>
    <tripinfo id="flow_route_149_duration_20250327_2220.1" depart="30.00" departLane="186410975#0_0" departPos="163.51" departSpeed="0.00" departDelay="0.00" arrival="103.00" arrivalLane="430416184_1" arrivalPos="13.36" arrivalSpeed="7.82" duration="73.00" routeLength="395.52" waitingTime="25.00" waitingCount="1" stopTime="0.00" timeLoss="43.86" rerouteNo="0" devices="tripinfo_flow_route_149_duration_20250327_2220.1" vType="car" speedFactor="1.03" vaporized=""/>
</tripinfos>
