<?xml version="1.0" encoding="UTF-8"?>

<!-- generated on 2025-05-06 21:08:47 by Eclipse SUMO sumo Version 1.20.0
<configuration xmlns:xsi="http://www.w3.org/2001/XMLSchema-instance" xsi:noNamespaceSchemaLocation="http://sumo.dlr.de/xsd/sumoConfiguration.xsd">

    <input>
        <net-file value="osm.net.xml"/>
        <route-files value="xml/route_static_632031937_6.rou.xml"/>
    </input>

    <output>
        <tripinfo-output value="xml/tripinfo_static_632031937_6.xml"/>
    </output>

    <traci_server>
        <remote-port value="43439"/>
    </traci_server>

</configuration>
-->

<tripinfos xmlns:xsi="http://www.w3.org/2001/XMLSchema-instance" xsi:noNamespaceSchemaLocation="http://sumo.dlr.de/xsd/tripinfo_file.xsd">
    <tripinfo id="flow_route_53_duration_20250327_1910.1" depart="3.00" departLane="138002006#0_0" departPos="77.73" departSpeed="0.00" departDelay="0.27" arrival="18.00" arrivalLane="1369578052#0_0" arrivalPos="48.76" arrivalSpeed="10.51" duration="15.00" routeLength="78.95" waitingTime="0.00" waitingCount="0" stopTime="0.00" timeLoss="9.34" rerouteNo="0" devices="tripinfo_flow_route_53_duration_20250327_1910.1" vType="car" speedFactor="0.89" vaporized=""/>
    <tripinfo id="flow_route_66_duration_20250327_1910.0" depart="0.00" departLane="-138002002#2_0" departPos="85.87" departSpeed="0.00" departDelay="0.00" arrival="20.00" arrivalLane="-138002006#3_1" arrivalPos="3.87" arrivalSpeed="12.62" duration="20.00" routeLength="121.39" waitingTime="0.00" waitingCount="0" stopTime="0.00" timeLoss="10.88" rerouteNo="0" devices="tripinfo_flow_route_66_duration_20250327_1910.0" vType="car" speedFactor="0.83" vaporized=""/>
    <tripinfo id="flow_route_53_duration_20250327_1910.0" depart="0.00" departLane="138002006#0_0" departPos="48.40" departSpeed="0.00" departDelay="0.00" arrival="22.00" arrivalLane="1369578052#0_1" arrivalPos="131.33" arrivalSpeed="15.42" duration="22.00" routeLength="190.85" waitingTime="0.00" waitingCount="0" stopTime="0.00" timeLoss="9.47" rerouteNo="0" devices="tripinfo_flow_route_53_duration_20250327_1910.0" vType="car" speedFactor="0.94" vaporized=""/>
    <tripinfo id="flow_route_53_duration_20250327_1910.2" depart="6.00" departLane="138002006#0_0" departPos="56.23" departSpeed="0.00" departDelay="0.55" arrival="26.00" arrivalLane="1369578052#0_0" arrivalPos="94.56" arrivalSpeed="15.14" duration="20.00" routeLength="146.24" waitingTime="0.00" waitingCount="0" stopTime="0.00" timeLoss="10.73" rerouteNo="0" devices="tripinfo_flow_route_53_duration_20250327_1910.2" vType="car" speedFactor="1.09" vaporized=""/>
    <tripinfo id="flow_route_67_duration_20250327_1910.1" depart="6.00" departLane="-138002002#2_0" departPos="172.98" departSpeed="0.00" departDelay="0.55" arrival="27.00" arrivalLane="380351865#0_0" arrivalPos="5.24" arrivalSpeed="11.27" duration="21.00" routeLength="165.31" waitingTime="0.00" waitingCount="0" stopTime="0.00" timeLoss="6.25" rerouteNo="0" devices="tripinfo_flow_route_67_duration_20250327_1910.1" vType="car" speedFactor="1.03" vaporized=""/>
    <tripinfo id="flow_route_53_duration_20250327_1910.4" depart="14.00" departLane="138002006#0_0" departPos="52.93" departSpeed="0.00" departDelay="3.09" arrival="28.00" arrivalLane="1369578052#0_0" arrivalPos="23.85" arrivalSpeed="10.81" duration="14.00" routeLength="78.84" waitingTime="0.00" waitingCount="0" stopTime="0.00" timeLoss="8.68" rerouteNo="0" devices="tripinfo_flow_route_53_duration_20250327_1910.4" vType="car" speedFactor="0.94" vaporized=""/>
    <tripinfo id="flow_route_52_duration_20250327_1910.0" depart="0.00" departLane="138002006#0_0" departPos="21.97" departSpeed="0.00" departDelay="0.00" arrival="30.00" arrivalLane="380351865#0_1" arrivalPos="15.21" arrivalSpeed="11.55" duration="30.00" routeLength="234.80" waitingTime="0.00" waitingCount="0" stopTime="0.00" timeLoss="10.36" rerouteNo="0" devices="tripinfo_flow_route_52_duration_20250327_1910.0" vType="car" speedFactor="1.06" vaporized=""/>
    <tripinfo id="flow_route_67_duration_20250327_1910.0" depart="1.00" departLane="-138002002#2_0" departPos="104.31" departSpeed="0.00" departDelay="1.00" arrival="32.00" arrivalLane="380351865#0_0" arrivalPos="12.69" arrivalSpeed="11.37" duration="31.00" routeLength="241.42" waitingTime="0.00" waitingCount="0" stopTime="0.00" timeLoss="10.83" rerouteNo="0" devices="tripinfo_flow_route_67_duration_20250327_1910.0" vType="car" speedFactor="1.05" vaporized=""/>
    <tripinfo id="flow_route_53_duration_20250327_1910.3" depart="9.00" departLane="138002006#0_0" departPos="26.79" departSpeed="0.00" departDelay="0.82" arrival="33.00" arrivalLane="1369578052#0_1" arrivalPos="100.33" arrivalSpeed="16.17" duration="24.00" routeLength="181.47" waitingTime="0.00" waitingCount="0" stopTime="0.00" timeLoss="12.41" rerouteNo="0" devices="tripinfo_flow_route_53_duration_20250327_1910.3" vType="car" speedFactor="1.12" vaporized=""/>
    <tripinfo id="flow_route_53_duration_20250327_1910.6" depart="18.00" departLane="138002006#0_0" departPos="48.54" departSpeed="0.00" departDelay="1.64" arrival="33.00" arrivalLane="1369578052#0_1" arrivalPos="31.04" arrivalSpeed="11.34" duration="15.00" routeLength="90.42" waitingTime="0.00" waitingCount="0" stopTime="0.00" timeLoss="9.37" rerouteNo="0" devices="tripinfo_flow_route_53_duration_20250327_1910.6" vType="car" speedFactor="0.97" vaporized=""/>
    <tripinfo id="flow_route_53_duration_20250327_1910.8" depart="23.00" departLane="138002006#0_0" departPos="73.28" departSpeed="0.00" departDelay="1.18" arrival="38.00" arrivalLane="1369578052#0_0" arrivalPos="53.46" arrivalSpeed="11.20" duration="15.00" routeLength="88.10" waitingTime="0.00" waitingCount="0" stopTime="0.00" timeLoss="9.69" rerouteNo="0" devices="tripinfo_flow_route_53_duration_20250327_1910.8" vType="car" speedFactor="1.15" vaporized=""/>
    <tripinfo id="flow_route_52_duration_20250327_1910.1" depart="12.00" departLane="138002006#0_0" departPos="19.81" departSpeed="0.00" departDelay="2.00" arrival="42.00" arrivalLane="380351865#0_1" arrivalPos="2.72" arrivalSpeed="10.19" duration="30.00" routeLength="224.47" waitingTime="0.00" waitingCount="0" stopTime="0.00" timeLoss="9.30" rerouteNo="0" devices="tripinfo_flow_route_52_duration_20250327_1910.1" vType="car" speedFactor="0.93" vaporized=""/>
    <tripinfo id="flow_route_53_duration_20250327_1910.5" depart="15.00" departLane="138002006#0_0" departPos="27.32" departSpeed="0.00" departDelay="1.37" arrival="43.00" arrivalLane="1369578052#0_1" arrivalPos="123.16" arrivalSpeed="15.98" duration="28.00" routeLength="203.75" waitingTime="0.00" waitingCount="0" stopTime="0.00" timeLoss="15.48" rerouteNo="0" devices="tripinfo_flow_route_53_duration_20250327_1910.5" vType="car" speedFactor="1.02" vaporized=""/>
    <tripinfo id="flow_route_58_duration_20250327_1910.0" depart="0.00" departLane="186407685_0" departPos="1.07" departSpeed="0.00" departDelay="0.00" arrival="48.00" arrivalLane="-138002006#3_1" arrivalPos="43.63" arrivalSpeed="10.34" duration="48.00" routeLength="235.82" waitingTime="12.00" waitingCount="1" stopTime="0.00" timeLoss="32.92" rerouteNo="0" devices="tripinfo_flow_route_58_duration_20250327_1910.0" vType="car" speedFactor="1.08" vaporized=""/>
    <tripinfo id="flow_route_59_duration_20250327_1910.1" depart="3.00" departLane="186407685_0" departPos="57.01" departSpeed="0.00" departDelay="0.69" arrival="49.00" arrivalLane="1369578052#0_0" arrivalPos="11.11" arrivalSpeed="7.14" duration="46.00" routeLength="140.21" waitingTime="17.00" waitingCount="1" stopTime="0.00" timeLoss="36.04" rerouteNo="0" devices="tripinfo_flow_route_59_duration_20250327_1910.1" vType="car" speedFactor="0.94" vaporized=""/>
    <tripinfo id="flow_route_59_duration_20250327_1910.0" depart="0.00" departLane="186407685_0" departPos="119.17" departSpeed="0.00" departDelay="0.00" arrival="55.00" arrivalLane="1369578052#0_0" arrivalPos="108.75" arrivalSpeed="13.87" duration="55.00" routeLength="175.69" waitingTime="23.00" waitingCount="1" stopTime="0.00" timeLoss="43.65" rerouteNo="0" devices="tripinfo_flow_route_59_duration_20250327_1910.0" vType="car" speedFactor="1.03" vaporized=""/>
    <tripinfo id="flow_route_59_duration_20250327_1910.5" depart="16.00" departLane="186407685_0" departPos="87.22" departSpeed="0.00" departDelay="4.47" arrival="57.00" arrivalLane="1369578052#0_0" arrivalPos="48.68" arrivalSpeed="10.86" duration="41.00" routeLength="147.57" waitingTime="9.00" waitingCount="1" stopTime="0.00" timeLoss="30.93" rerouteNo="0" devices="tripinfo_flow_route_59_duration_20250327_1910.5" vType="car" speedFactor="1.16" vaporized=""/>
    <tripinfo id="flow_route_57_duration_20250327_1910.0" depart="0.00" departLane="186407685_0" departPos="131.94" departSpeed="0.00" departDelay="0.00" arrival="58.00" arrivalLane="380351865#0_0" arrivalPos="0.78" arrivalSpeed="11.11" duration="58.00" routeLength="205.45" waitingTime="24.00" waitingCount="1" stopTime="0.00" timeLoss="40.94" rerouteNo="0" devices="tripinfo_flow_route_57_duration_20250327_1910.0" vType="car" speedFactor="1.01" vaporized=""/>
    <tripinfo id="flow_route_57_duration_20250327_1910.1" depart="21.00" departLane="186407685_0" departPos="127.82" departSpeed="0.00" departDelay="1.00" arrival="59.00" arrivalLane="380351865#0_0" arrivalPos="5.79" arrivalSpeed="10.30" duration="38.00" routeLength="214.57" waitingTime="3.00" waitingCount="1" stopTime="0.00" timeLoss="18.63" rerouteNo="0" devices="tripinfo_flow_route_57_duration_20250327_1910.1" vType="car" speedFactor="0.93" vaporized=""/>
    <tripinfo id="flow_route_59_duration_20250327_1910.6" depart="16.00" departLane="186407685_0" departPos="102.71" departSpeed="0.00" departDelay="2.16" arrival="62.00" arrivalLane="1369578052#0_0" arrivalPos="131.90" arrivalSpeed="15.13" duration="46.00" routeLength="215.30" waitingTime="9.00" waitingCount="1" stopTime="0.00" timeLoss="31.85" rerouteNo="0" devices="tripinfo_flow_route_59_duration_20250327_1910.6" vType="car" speedFactor="1.01" vaporized=""/>
    <tripinfo id="flow_route_59_duration_20250327_1910.2" depart="5.00" departLane="186407685_0" departPos="8.18" departSpeed="0.00" departDelay="0.39" arrival="71.00" arrivalLane="1369578052#0_0" arrivalPos="126.01" arrivalSpeed="14.25" duration="66.00" routeLength="303.94" waitingTime="8.00" waitingCount="1" stopTime="0.00" timeLoss="44.62" rerouteNo="0" devices="tripinfo_flow_route_59_duration_20250327_1910.2" vType="car" speedFactor="0.86" vaporized=""/>
    <tripinfo id="flow_route_66_duration_20250327_1910.1" depart="10.00" departLane="-138002002#2_0" departPos="5.49" departSpeed="0.00" departDelay="1.43" arrival="72.00" arrivalLane="-138002006#3_1" arrivalPos="21.02" arrivalSpeed="7.92" duration="62.00" routeLength="218.91" waitingTime="27.00" waitingCount="1" stopTime="0.00" timeLoss="48.71" rerouteNo="0" devices="tripinfo_flow_route_66_duration_20250327_1910.1" vType="car" speedFactor="0.99" vaporized=""/>
    <tripinfo id="flow_route_59_duration_20250327_1910.4" depart="10.00" departLane="186407685_0" departPos="58.66" departSpeed="0.00" departDelay="0.77" arrival="72.00" arrivalLane="1369578052#0_0" arrivalPos="176.33" arrivalSpeed="14.63" duration="62.00" routeLength="303.77" waitingTime="8.00" waitingCount="1" stopTime="0.00" timeLoss="40.42" rerouteNo="0" devices="tripinfo_flow_route_59_duration_20250327_1910.4" vType="car" speedFactor="0.88" vaporized=""/>
    <tripinfo id="flow_route_66_duration_20250327_1910.2" depart="18.00" departLane="-138002002#2_0" departPos="170.97" departSpeed="0.00" departDelay="0.86" arrival="73.00" arrivalLane="-138002006#3_0" arrivalPos="24.76" arrivalSpeed="8.66" duration="55.00" routeLength="57.18" waitingTime="37.00" waitingCount="1" stopTime="0.00" timeLoss="50.67" rerouteNo="0" devices="tripinfo_flow_route_66_duration_20250327_1910.2" vType="car" speedFactor="0.87" vaporized=""/>
    <tripinfo id="flow_route_59_duration_20250327_1910.3" depart="9.00" departLane="186407685_0" departPos="5.74" departSpeed="0.00" departDelay="2.08" arrival="75.00" arrivalLane="1369578052#0_0" arrivalPos="151.94" arrivalSpeed="16.25" duration="66.00" routeLength="332.31" waitingTime="8.00" waitingCount="1" stopTime="0.00" timeLoss="44.67" rerouteNo="0" devices="tripinfo_flow_route_59_duration_20250327_1910.3" vType="car" speedFactor="1.05" vaporized=""/>
    <tripinfo id="flow_route_66_duration_20250327_1910.3" depart="27.00" departLane="-138002002#2_0" departPos="90.76" departSpeed="0.00" departDelay="1.29" arrival="76.00" arrivalLane="-138002006#3_1" arrivalPos="9.30" arrivalSpeed="8.32" duration="49.00" routeLength="121.93" waitingTime="17.00" waitingCount="2" stopTime="0.00" timeLoss="41.21" rerouteNo="0" devices="tripinfo_flow_route_66_duration_20250327_1910.3" vType="car" speedFactor="0.97" vaporized=""/>
    <tripinfo id="flow_route_53_duration_20250327_1910.7" depart="23.00" departLane="138002006#0_0" departPos="34.60" departSpeed="0.00" departDelay="3.91" arrival="77.00" arrivalLane="1369578052#0_0" arrivalPos="57.85" arrivalSpeed="11.31" duration="54.00" routeLength="131.18" waitingTime="26.00" waitingCount="1" stopTime="0.00" timeLoss="45.48" rerouteNo="0" devices="tripinfo_flow_route_53_duration_20250327_1910.7" vType="car" speedFactor="1.13" vaporized=""/>
    <tripinfo id="flow_route_66_duration_20250327_1910.4" depart="36.00" departLane="-138002002#2_0" departPos="151.25" departSpeed="0.00" departDelay="1.72" arrival="77.00" arrivalLane="-138002006#3_1" arrivalPos="38.25" arrivalSpeed="9.97" duration="41.00" routeLength="90.39" waitingTime="18.00" waitingCount="1" stopTime="0.00" timeLoss="34.69" rerouteNo="0" devices="tripinfo_flow_route_66_duration_20250327_1910.4" vType="car" speedFactor="0.90" vaporized=""/>
    <tripinfo id="flow_route_53_duration_20250327_1910.11" depart="35.00" departLane="138002006#0_0" departPos="33.68" departSpeed="0.00" departDelay="5.00" arrival="79.00" arrivalLane="1369578052#0_0" arrivalPos="18.71" arrivalSpeed="9.05" duration="44.00" routeLength="92.95" waitingTime="20.00" waitingCount="1" stopTime="0.00" timeLoss="37.87" rerouteNo="0" devices="tripinfo_flow_route_53_duration_20250327_1910.11" vType="car" speedFactor="0.96" vaporized=""/>
    <tripinfo id="flow_route_66_duration_20250327_1910.5" depart="44.00" departLane="-138002002#2_0" departPos="145.44" departSpeed="0.00" departDelay="1.15" arrival="79.00" arrivalLane="-138002006#3_1" arrivalPos="18.42" arrivalSpeed="9.32" duration="35.00" routeLength="76.37" waitingTime="14.00" waitingCount="1" stopTime="0.00" timeLoss="30.26" rerouteNo="0" devices="tripinfo_flow_route_66_duration_20250327_1910.5" vType="car" speedFactor="1.14" vaporized=""/>
    <tripinfo id="flow_route_53_duration_20250327_1910.12" depart="37.00" departLane="138002006#0_0" departPos="78.76" departSpeed="0.00" departDelay="4.28" arrival="81.00" arrivalLane="1369578052#0_0" arrivalPos="88.48" arrivalSpeed="12.61" duration="44.00" routeLength="117.65" waitingTime="23.00" waitingCount="1" stopTime="0.00" timeLoss="36.66" rerouteNo="0" devices="tripinfo_flow_route_53_duration_20250327_1910.12" vType="car" speedFactor="1.04" vaporized=""/>
    <tripinfo id="flow_route_53_duration_20250327_1910.10" depart="29.00" departLane="138002006#0_0" departPos="36.49" departSpeed="0.00" departDelay="1.73" arrival="82.00" arrivalLane="1369578052#0_0" arrivalPos="78.36" arrivalSpeed="12.48" duration="53.00" routeLength="149.79" waitingTime="22.00" waitingCount="1" stopTime="0.00" timeLoss="43.69" rerouteNo="0" devices="tripinfo_flow_route_53_duration_20250327_1910.10" vType="car" speedFactor="1.18" vaporized=""/>
    <tripinfo id="flow_route_66_duration_20250327_1910.6" depart="53.00" departLane="-138002002#2_0" departPos="97.32" departSpeed="0.00" departDelay="1.57" arrival="83.00" arrivalLane="-138002006#3_1" arrivalPos="38.20" arrivalSpeed="12.06" duration="30.00" routeLength="144.27" waitingTime="0.00" waitingCount="0" stopTime="0.00" timeLoss="20.91" rerouteNo="0" devices="tripinfo_flow_route_66_duration_20250327_1910.6" vType="car" speedFactor="1.02" vaporized=""/>
    <tripinfo id="flow_route_67_duration_20250327_1910.2" depart="12.00" departLane="-138002002#2_0" departPos="105.30" departSpeed="0.00" departDelay="1.09" arrival="86.00" arrivalLane="380351865#0_0" arrivalPos="2.14" arrivalSpeed="10.32" duration="74.00" routeLength="229.89" waitingTime="35.00" waitingCount="1" stopTime="0.00" timeLoss="53.55" rerouteNo="0" devices="tripinfo_flow_route_67_duration_20250327_1910.2" vType="car" speedFactor="0.94" vaporized=""/>
    <tripinfo id="flow_route_53_duration_20250327_1910.19" depart="59.00" departLane="138002006#0_0" departPos="18.79" departSpeed="0.00" departDelay="7.19" arrival="86.00" arrivalLane="1369578052#0_0" arrivalPos="15.68" arrivalSpeed="11.66" duration="27.00" routeLength="104.81" waitingTime="3.00" waitingCount="1" stopTime="0.00" timeLoss="20.27" rerouteNo="0" devices="tripinfo_flow_route_53_duration_20250327_1910.19" vType="car" speedFactor="1.04" vaporized=""/>
    <tripinfo id="flow_route_53_duration_20250327_1910.15" depart="44.00" departLane="138002006#0_0" departPos="11.50" departSpeed="0.00" departDelay="3.10" arrival="87.00" arrivalLane="1369578052#0_0" arrivalPos="72.53" arrivalSpeed="13.52" duration="43.00" routeLength="168.95" waitingTime="11.00" waitingCount="1" stopTime="0.00" timeLoss="32.51" rerouteNo="0" devices="tripinfo_flow_route_53_duration_20250327_1910.15" vType="car" speedFactor="1.00" vaporized=""/>
    <tripinfo id="flow_route_67_duration_20250327_1910.4" depart="22.00" departLane="-138002002#2_0" departPos="113.31" departSpeed="0.00" departDelay="0.18" arrival="88.00" arrivalLane="380351865#0_0" arrivalPos="3.63" arrivalSpeed="11.06" duration="66.00" routeLength="223.36" waitingTime="29.00" waitingCount="1" stopTime="0.00" timeLoss="47.19" rerouteNo="0" devices="tripinfo_flow_route_67_duration_20250327_1910.4" vType="car" speedFactor="1.01" vaporized=""/>
    <tripinfo id="flow_route_53_duration_20250327_1910.13" depart="38.00" departLane="138002006#0_0" departPos="14.87" departSpeed="0.00" departDelay="2.55" arrival="88.00" arrivalLane="1369578052#0_0" arrivalPos="105.68" arrivalSpeed="14.14" duration="50.00" routeLength="198.73" waitingTime="16.00" waitingCount="1" stopTime="0.00" timeLoss="35.81" rerouteNo="0" devices="tripinfo_flow_route_53_duration_20250327_1910.13" vType="car" speedFactor="0.88" vaporized=""/>
    <tripinfo id="flow_route_67_duration_20250327_1910.3" depart="17.00" departLane="-138002002#2_0" departPos="5.13" departSpeed="0.00" departDelay="0.64" arrival="92.00" arrivalLane="380351865#0_0" arrivalPos="3.13" arrivalSpeed="8.71" duration="75.00" routeLength="331.05" waitingTime="16.00" waitingCount="1" stopTime="0.00" timeLoss="44.33" rerouteNo="0" devices="tripinfo_flow_route_67_duration_20250327_1910.3" vType="car" speedFactor="0.83" vaporized=""/>
    <tripinfo id="flow_route_53_duration_20250327_1910.16" depart="50.00" departLane="138002006#0_0" departPos="3.07" departSpeed="0.00" departDelay="6.37" arrival="93.00" arrivalLane="1369578052#0_0" arrivalPos="133.30" arrivalSpeed="16.19" duration="43.00" routeLength="238.14" waitingTime="5.00" waitingCount="1" stopTime="0.00" timeLoss="27.81" rerouteNo="0" devices="tripinfo_flow_route_53_duration_20250327_1910.16" vType="car" speedFactor="1.02" vaporized=""/>
    <tripinfo id="flow_route_67_duration_20250327_1910.6" depart="34.00" departLane="-138002002#2_0" departPos="63.47" departSpeed="0.00" departDelay="1.28" arrival="94.00" arrivalLane="380351865#0_0" arrivalPos="6.67" arrivalSpeed="10.34" duration="60.00" routeLength="276.25" waitingTime="14.00" waitingCount="1" stopTime="0.00" timeLoss="38.72" rerouteNo="0" devices="tripinfo_flow_route_67_duration_20250327_1910.6" vType="car" speedFactor="1.09" vaporized=""/>
    <tripinfo id="flow_route_67_duration_20250327_1910.5" depart="31.00" departLane="-138002002#2_0" departPos="22.90" departSpeed="0.00" departDelay="3.73" arrival="96.00" arrivalLane="380351865#0_0" arrivalPos="7.78" arrivalSpeed="9.56" duration="65.00" routeLength="317.93" waitingTime="13.00" waitingCount="1" stopTime="0.00" timeLoss="37.71" rerouteNo="0" devices="tripinfo_flow_route_67_duration_20250327_1910.5" vType="car" speedFactor="0.90" vaporized=""/>
    <tripinfo id="flow_route_53_duration_20250327_1910.9" depart="25.00" departLane="138002006#0_0" departPos="2.12" departSpeed="0.00" departDelay="0.46" arrival="97.00" arrivalLane="1369578052#0_0" arrivalPos="67.31" arrivalSpeed="11.67" duration="72.00" routeLength="173.12" waitingTime="37.00" waitingCount="2" stopTime="0.00" timeLoss="61.06" rerouteNo="0" devices="tripinfo_flow_route_53_duration_20250327_1910.9" vType="car" speedFactor="0.99" vaporized=""/>
    <tripinfo id="flow_route_67_duration_20250327_1910.9" depart="51.00" departLane="-138002002#2_0" departPos="108.40" departSpeed="0.00" departDelay="1.91" arrival="97.00" arrivalLane="380351865#0_0" arrivalPos="1.44" arrivalSpeed="9.97" duration="46.00" routeLength="226.09" waitingTime="8.00" waitingCount="1" stopTime="0.00" timeLoss="25.26" rerouteNo="0" devices="tripinfo_flow_route_67_duration_20250327_1910.9" vType="car" speedFactor="0.91" vaporized=""/>
    <tripinfo id="flow_route_53_duration_20250327_1910.14" depart="39.00" departLane="138002006#0_0" departPos="58.47" departSpeed="0.00" departDelay="0.82" arrival="99.00" arrivalLane="1369578052#0_1" arrivalPos="63.75" arrivalSpeed="12.29" duration="60.00" routeLength="113.20" waitingTime="31.00" waitingCount="2" stopTime="0.00" timeLoss="51.35" rerouteNo="0" devices="tripinfo_flow_route_53_duration_20250327_1910.14" vType="car" speedFactor="0.85" vaporized=""/>
    <tripinfo id="flow_route_53_duration_20250327_1910.20" depart="68.00" departLane="138002006#0_0" departPos="26.05" departSpeed="0.00" departDelay="13.46" arrival="99.00" arrivalLane="1369578052#0_0" arrivalPos="173.65" arrivalSpeed="15.92" duration="31.00" routeLength="255.52" waitingTime="1.00" waitingCount="1" stopTime="0.00" timeLoss="14.96" rerouteNo="0" devices="tripinfo_flow_route_53_duration_20250327_1910.20" vType="car" speedFactor="0.97" vaporized=""/>
    <tripinfo id="flow_route_67_duration_20250327_1910.7" depart="44.00" departLane="-138002002#2_0" departPos="29.03" departSpeed="0.00" departDelay="5.82" arrival="100.00" arrivalLane="380351865#0_0" arrivalPos="13.62" arrivalSpeed="11.70" duration="56.00" routeLength="317.64" waitingTime="4.00" waitingCount="1" stopTime="0.00" timeLoss="33.28" rerouteNo="0" devices="tripinfo_flow_route_67_duration_20250327_1910.7" vType="car" speedFactor="1.17" vaporized=""/>
    <tripinfo id="flow_route_52_duration_20250327_1910.2" depart="21.00" departLane="138002006#0_0" departPos="4.16" departSpeed="0.00" departDelay="1.00" arrival="103.00" arrivalLane="380351865#0_1" arrivalPos="16.94" arrivalSpeed="10.38" duration="82.00" routeLength="254.34" waitingTime="40.00" waitingCount="2" stopTime="0.00" timeLoss="59.51" rerouteNo="0" devices="tripinfo_flow_route_52_duration_20250327_1910.2" vType="car" speedFactor="0.95" vaporized=""/>
    <tripinfo id="flow_route_53_duration_20250327_1910.17" depart="53.00" departLane="138002006#0_0" departPos="35.01" departSpeed="0.00" departDelay="6.64" arrival="105.00" arrivalLane="1369578052#0_0" arrivalPos="59.14" arrivalSpeed="12.92" duration="52.00" routeLength="132.05" waitingTime="18.00" waitingCount="2" stopTime="0.00" timeLoss="43.32" rerouteNo="0" devices="tripinfo_flow_route_53_duration_20250327_1910.17" vType="car" speedFactor="1.12" vaporized=""/>
    <tripinfo id="flow_route_52_duration_20250327_1910.3" depart="35.00" departLane="138002006#0_0" departPos="24.61" departSpeed="0.00" departDelay="5.00" arrival="108.00" arrivalLane="380351865#0_1" arrivalPos="11.94" arrivalSpeed="11.19" duration="73.00" routeLength="228.89" waitingTime="29.00" waitingCount="2" stopTime="0.00" timeLoss="53.62" rerouteNo="0" devices="tripinfo_flow_route_52_duration_20250327_1910.3" vType="car" speedFactor="1.03" vaporized=""/>
    <tripinfo id="flow_route_59_duration_20250327_1910.8" depart="20.00" departLane="186407685_0" departPos="15.23" departSpeed="0.00" departDelay="1.54" arrival="109.00" arrivalLane="1369578052#0_0" arrivalPos="12.35" arrivalSpeed="6.41" duration="89.00" routeLength="183.22" waitingTime="44.00" waitingCount="3" stopTime="0.00" timeLoss="76.92" rerouteNo="0" devices="tripinfo_flow_route_59_duration_20250327_1910.8" vType="car" speedFactor="0.92" vaporized=""/>
    <tripinfo id="flow_route_52_duration_20250327_1910.4" depart="44.00" departLane="138002006#0_0" departPos="51.45" departSpeed="0.00" departDelay="4.00" arrival="109.00" arrivalLane="380351865#0_1" arrivalPos="0.20" arrivalSpeed="10.84" duration="65.00" routeLength="190.31" waitingTime="28.00" waitingCount="2" stopTime="0.00" timeLoss="48.51" rerouteNo="0" devices="tripinfo_flow_route_52_duration_20250327_1910.4" vType="car" speedFactor="1.02" vaporized=""/>
    <tripinfo id="flow_route_59_duration_20250327_1910.11" depart="37.00" departLane="186407685_0" departPos="97.25" departSpeed="0.00" departDelay="11.62" arrival="116.00" arrivalLane="1369578052#0_0" arrivalPos="55.80" arrivalSpeed="10.48" duration="79.00" routeLength="144.66" waitingTime="42.00" waitingCount="2" stopTime="0.00" timeLoss="69.28" rerouteNo="0" devices="tripinfo_flow_route_59_duration_20250327_1910.11" vType="car" speedFactor="1.02" vaporized=""/>
    <tripinfo id="flow_route_59_duration_20250327_1910.14" depart="39.00" departLane="186407685_0" departPos="60.00" departSpeed="0.00" departDelay="6.70" arrival="118.00" arrivalLane="1369578052#0_0" arrivalPos="7.85" arrivalSpeed="6.98" duration="79.00" routeLength="133.96" waitingTime="36.00" waitingCount="2" stopTime="0.00" timeLoss="70.37" rerouteNo="0" devices="tripinfo_flow_route_59_duration_20250327_1910.14" vType="car" speedFactor="1.04" vaporized=""/>
    <tripinfo id="flow_route_59_duration_20250327_1910.7" depart="17.00" departLane="186407685_0" departPos="26.88" departSpeed="0.00" departDelay="0.85" arrival="121.00" arrivalLane="1369578052#0_0" arrivalPos="176.02" arrivalSpeed="14.48" duration="104.00" routeLength="335.24" waitingTime="44.00" waitingCount="2" stopTime="0.00" timeLoss="81.52" rerouteNo="0" devices="tripinfo_flow_route_59_duration_20250327_1910.7" vType="car" speedFactor="0.89" vaporized=""/>
    <tripinfo id="flow_route_59_duration_20250327_1910.13" depart="39.00" departLane="186407685_0" departPos="83.27" departSpeed="0.00" departDelay="9.01" arrival="121.00" arrivalLane="1369578052#0_0" arrivalPos="85.96" arrivalSpeed="13.64" duration="82.00" routeLength="188.79" waitingTime="39.00" waitingCount="2" stopTime="0.00" timeLoss="69.55" rerouteNo="0" devices="tripinfo_flow_route_59_duration_20250327_1910.13" vType="car" speedFactor="1.09" vaporized=""/>
    <tripinfo id="flow_route_57_duration_20250327_1910.2" depart="51.00" departLane="186407685_0" departPos="21.15" departSpeed="0.00" departDelay="11.00" arrival="121.00" arrivalLane="380351865#0_0" arrivalPos="8.30" arrivalSpeed="12.07" duration="70.00" routeLength="323.77" waitingTime="26.00" waitingCount="1" stopTime="0.00" timeLoss="47.08" rerouteNo="0" devices="tripinfo_flow_route_57_duration_20250327_1910.2" vType="car" speedFactor="1.10" vaporized=""/>
    <tripinfo id="flow_route_59_duration_20250327_1910.9" depart="32.00" departLane="186407685_0" departPos="24.99" departSpeed="0.00" departDelay="11.24" arrival="124.00" arrivalLane="1369578052#0_0" arrivalPos="33.30" arrivalSpeed="9.95" duration="92.00" routeLength="194.42" waitingTime="35.00" waitingCount="1" stopTime="0.00" timeLoss="78.73" rerouteNo="0" devices="tripinfo_flow_route_59_duration_20250327_1910.9" vType="car" speedFactor="1.18" vaporized=""/>
    <tripinfo id="flow_route_59_duration_20250327_1910.15" depart="40.00" departLane="186407685_0" departPos="72.93" departSpeed="0.00" departDelay="5.40" arrival="127.00" arrivalLane="1369578052#0_0" arrivalPos="122.27" arrivalSpeed="14.33" duration="87.00" routeLength="235.45" waitingTime="38.00" waitingCount="2" stopTime="0.00" timeLoss="71.98" rerouteNo="0" devices="tripinfo_flow_route_59_duration_20250327_1910.15" vType="car" speedFactor="1.00" vaporized=""/>
    <tripinfo id="flow_route_59_duration_20250327_1910.10" depart="36.00" departLane="186407685_0" departPos="18.22" departSpeed="0.00" departDelay="12.93" arrival="132.00" arrivalLane="1369578052#0_0" arrivalPos="107.84" arrivalSpeed="14.90" duration="96.00" routeLength="275.73" waitingTime="35.00" waitingCount="1" stopTime="0.00" timeLoss="77.78" rerouteNo="0" devices="tripinfo_flow_route_59_duration_20250327_1910.10" vType="car" speedFactor="1.17" vaporized=""/>
    <tripinfo id="flow_route_53_duration_20250327_1910.18" depart="59.00" departLane="138002006#0_0" departPos="1.18" departSpeed="0.00" departDelay="9.91" arrival="143.00" arrivalLane="1369578052#0_0" arrivalPos="74.34" arrivalSpeed="11.99" duration="84.00" routeLength="181.08" waitingTime="36.00" waitingCount="2" stopTime="0.00" timeLoss="71.33" rerouteNo="0" devices="tripinfo_flow_route_53_duration_20250327_1910.18" vType="car" speedFactor="0.88" vaporized=""/>
    <tripinfo id="flow_route_53_duration_20250327_1910.21" depart="68.00" departLane="138002006#0_0" departPos="13.63" departSpeed="0.00" departDelay="10.73" arrival="146.00" arrivalLane="1369578052#0_0" arrivalPos="140.28" arrivalSpeed="14.38" duration="78.00" routeLength="234.56" waitingTime="33.00" waitingCount="2" stopTime="0.00" timeLoss="63.15" rerouteNo="0" devices="tripinfo_flow_route_53_duration_20250327_1910.21" vType="car" speedFactor="0.96" vaporized=""/>