<?xml version="1.0" encoding="UTF-8"?>

<!-- generated on 2025-05-06 21:08:06 by Eclipse SUMO sumo Version 1.20.0
<configuration xmlns:xsi="http://www.w3.org/2001/XMLSchema-instance" xsi:noNamespaceSchemaLocation="http://sumo.dlr.de/xsd/sumoConfiguration.xsd">

    <input>
        <net-file value="osm.net.xml"/>
        <route-files value="xml/route_static_632031937_2.rou.xml"/>
    </input>

    <output>
        <tripinfo-output value="xml/tripinfo_static_632031937_2.xml"/>
    </output>

    <traci_server>
        <remote-port value="41965"/>
    </traci_server>

</configuration>
-->

<tripinfos xmlns:xsi="http://www.w3.org/2001/XMLSchema-instance" xsi:noNamespaceSchemaLocation="http://sumo.dlr.de/xsd/tripinfo_file.xsd">
    <tripinfo id="flow_route_66_duration_20250327_1920.0" depart="0.00" departLane="-138002002#2_0" departPos="85.87" departSpeed="0.00" departDelay="0.00" arrival="20.00" arrivalLane="-138002006#3_1" arrivalPos="3.87" arrivalSpeed="12.78" duration="20.00" routeLength="121.39" waitingTime="0.00" waitingCount="0" stopTime="0.00" timeLoss="10.80" rerouteNo="0" devices="tripinfo_flow_route_66_duration_20250327_1920.0" vType="car" speedFactor="0.83" vaporized=""/>
    <tripinfo id="flow_route_53_duration_20250327_1920.0" depart="0.00" departLane="138002006#0_0" departPos="48.40" departSpeed="0.00" departDelay="0.00" arrival="22.00" arrivalLane="1369578052#0_0" arrivalPos="131.33" arrivalSpeed="15.64" duration="22.00" routeLength="190.85" waitingTime="0.00" waitingCount="0" stopTime="0.00" timeLoss="9.72" rerouteNo="0" devices="tripinfo_flow_route_53_duration_20250327_1920.0" vType="car" speedFactor="0.94" vaporized=""/>
    <tripinfo id="flow_route_66_duration_20250327_1920.1" depart="5.00" departLane="-138002002#2_0" departPos="163.51" departSpeed="0.00" departDelay="0.39" arrival="24.00" arrivalLane="-138002006#3_1" arrivalPos="83.37" arrivalSpeed="14.16" duration="19.00" routeLength="123.25" waitingTime="0.00" waitingCount="0" stopTime="0.00" timeLoss="11.22" rerouteNo="0" devices="tripinfo_flow_route_66_duration_20250327_1920.1" vType="car" speedFactor="1.05" vaporized=""/>
    <tripinfo id="flow_route_53_duration_20250327_1920.4" depart="12.00" departLane="138002006#0_0" departPos="61.39" departSpeed="0.00" departDelay="4.94" arrival="25.00" arrivalLane="1369578052#0_0" arrivalPos="5.50" arrivalSpeed="6.79" duration="13.00" routeLength="52.02" waitingTime="0.00" waitingCount="0" stopTime="0.00" timeLoss="9.37" rerouteNo="0" devices="tripinfo_flow_route_53_duration_20250327_1920.4" vType="car" speedFactor="0.88" vaporized=""/>
    <tripinfo id="flow_route_53_duration_20250327_1920.2" depart="4.00" departLane="138002006#0_0" departPos="45.54" departSpeed="0.00" departDelay="0.47" arrival="26.00" arrivalLane="1369578052#0_0" arrivalPos="126.01" arrivalSpeed="14.20" duration="22.00" routeLength="188.39" waitingTime="0.00" waitingCount="0" stopTime="0.00" timeLoss="8.67" rerouteNo="0" devices="tripinfo_flow_route_53_duration_20250327_1920.2" vType="car" speedFactor="0.86" vaporized=""/>
    <tripinfo id="flow_route_53_duration_20250327_1920.7" depart="15.00" departLane="138002006#0_0" departPos="88.08" departSpeed="0.00" departDelay="2.65" arrival="29.00" arrivalLane="1369578052#0_0" arrivalPos="56.73" arrivalSpeed="10.83" duration="14.00" routeLength="76.57" waitingTime="0.00" waitingCount="0" stopTime="0.00" timeLoss="8.11" rerouteNo="0" devices="tripinfo_flow_route_53_duration_20250327_1920.7" vType="car" speedFactor="0.83" vaporized=""/>
    <tripinfo id="flow_route_67_duration_20250327_1920.2" depart="7.00" departLane="-138002002#2_0" departPos="176.21" departSpeed="0.00" departDelay="0.33" arrival="30.00" arrivalLane="380351865#0_0" arrivalPos="5.15" arrivalSpeed="10.05" duration="23.00" routeLength="161.99" waitingTime="0.00" waitingCount="0" stopTime="0.00" timeLoss="6.41" rerouteNo="0" devices="tripinfo_flow_route_67_duration_20250327_1920.2" vType="car" speedFactor="0.93" vaporized=""/>
    <tripinfo id="flow_route_67_duration_20250327_1920.0" depart="1.00" departLane="-138002002#2_0" departPos="104.31" departSpeed="0.00" departDelay="1.00" arrival="32.00" arrivalLane="380351865#0_0" arrivalPos="12.69" arrivalSpeed="11.57" duration="31.00" routeLength="241.42" waitingTime="0.00" waitingCount="0" stopTime="0.00" timeLoss="11.61" rerouteNo="0" devices="tripinfo_flow_route_67_duration_20250327_1920.0" vType="car" speedFactor="1.05" vaporized=""/>
    <tripinfo id="flow_route_53_duration_20250327_1920.5" depart="13.00" departLane="138002006#0_0" departPos="43.73" departSpeed="0.00" departDelay="4.18" arrival="32.00" arrivalLane="1369578052#0_0" arrivalPos="61.07" arrivalSpeed="12.91" duration="19.00" routeLength="125.26" waitingTime="0.00" waitingCount="0" stopTime="0.00" timeLoss="10.81" rerouteNo="0" devices="tripinfo_flow_route_53_duration_20250327_1920.5" vType="car" speedFactor="0.94" vaporized=""/>
    <tripinfo id="flow_route_53_duration_20250327_1920.8" depart="18.00" departLane="138002006#0_0" departPos="45.52" departSpeed="0.00" departDelay="3.89" arrival="32.00" arrivalLane="1369578052#0_0" arrivalPos="12.35" arrivalSpeed="10.23" duration="14.00" routeLength="74.74" waitingTime="0.00" waitingCount="0" stopTime="0.00" timeLoss="9.50" rerouteNo="0" devices="tripinfo_flow_route_53_duration_20250327_1920.8" vType="car" speedFactor="1.13" vaporized=""/>
    <tripinfo id="flow_route_53_duration_20250327_1920.1" depart="2.00" departLane="138002006#0_0" departPos="5.35" departSpeed="0.00" departDelay="0.24" arrival="36.00" arrivalLane="1369578052#0_1" arrivalPos="48.76" arrivalSpeed="10.07" duration="34.00" routeLength="151.33" waitingTime="4.00" waitingCount="1" stopTime="0.00" timeLoss="23.55" rerouteNo="0" devices="tripinfo_flow_route_53_duration_20250327_1920.1" vType="car" speedFactor="0.89" vaporized=""/>
    <tripinfo id="flow_route_53_duration_20250327_1920.3" depart="9.00" departLane="138002006#0_0" departPos="11.48" departSpeed="0.00" departDelay="3.71" arrival="41.00" arrivalLane="1369578052#0_1" arrivalPos="73.10" arrivalSpeed="11.92" duration="32.00" routeLength="169.54" waitingTime="0.00" waitingCount="0" stopTime="0.00" timeLoss="21.62" rerouteNo="0" devices="tripinfo_flow_route_53_duration_20250327_1920.3" vType="car" speedFactor="1.12" vaporized=""/>
    <tripinfo id="flow_route_52_duration_20250327_1920.0" depart="0.00" departLane="138002006#0_0" departPos="21.97" departSpeed="0.00" departDelay="0.00" arrival="44.00" arrivalLane="380351865#0_1" arrivalPos="15.21" arrivalSpeed="11.62" duration="44.00" routeLength="234.80" waitingTime="6.00" waitingCount="1" stopTime="0.00" timeLoss="24.33" rerouteNo="0" devices="tripinfo_flow_route_52_duration_20250327_1920.0" vType="car" speedFactor="1.06" vaporized=""/>
    <tripinfo id="flow_route_58_duration_20250327_1920.0" depart="0.00" departLane="186407685_0" departPos="1.07" departSpeed="0.00" departDelay="0.00" arrival="48.00" arrivalLane="-138002006#3_1" arrivalPos="43.63" arrivalSpeed="9.98" duration="48.00" routeLength="235.82" waitingTime="12.00" waitingCount="1" stopTime="0.00" timeLoss="32.78" rerouteNo="0" devices="tripinfo_flow_route_58_duration_20250327_1920.0" vType="car" speedFactor="1.08" vaporized=""/>
    <tripinfo id="flow_route_53_duration_20250327_1920.6" depart="14.00" departLane="138002006#0_0" departPos="2.47" departSpeed="0.00" departDelay="3.42" arrival="48.00" arrivalLane="1369578052#0_1" arrivalPos="149.62" arrivalSpeed="16.20" duration="34.00" routeLength="255.07" waitingTime="0.00" waitingCount="0" stopTime="0.00" timeLoss="18.40" rerouteNo="0" devices="tripinfo_flow_route_53_duration_20250327_1920.6" vType="car" speedFactor="1.01" vaporized=""/>
    <tripinfo id="flow_route_53_duration_20250327_1920.15" depart="32.00" departLane="138002006#0_0" departPos="88.48" departSpeed="0.00" departDelay="5.54" arrival="50.00" arrivalLane="1369578052#0_0" arrivalPos="108.59" arrivalSpeed="13.63" duration="18.00" routeLength="128.03" waitingTime="0.00" waitingCount="0" stopTime="0.00" timeLoss="9.21" rerouteNo="0" devices="tripinfo_flow_route_53_duration_20250327_1920.15" vType="car" speedFactor="0.90" vaporized=""/>
    <tripinfo id="flow_route_59_duration_20250327_1920.3" depart="7.00" departLane="186407685_0" departPos="28.17" departSpeed="0.00" departDelay="0.08" arrival="54.00" arrivalLane="1369578052#0_0" arrivalPos="5.98" arrivalSpeed="6.78" duration="47.00" routeLength="163.91" waitingTime="9.00" waitingCount="1" stopTime="0.00" timeLoss="35.65" rerouteNo="0" devices="tripinfo_flow_route_59_duration_20250327_1920.3" vType="car" speedFactor="0.99" vaporized=""/>
    <tripinfo id="flow_route_59_duration_20250327_1920.0" depart="0.00" departLane="186407685_0" departPos="119.17" departSpeed="0.00" departDelay="0.00" arrival="57.00" arrivalLane="1369578052#0_0" arrivalPos="108.75" arrivalSpeed="13.66" duration="57.00" routeLength="175.69" waitingTime="17.00" waitingCount="2" stopTime="0.00" timeLoss="44.83" rerouteNo="0" devices="tripinfo_flow_route_59_duration_20250327_1920.0" vType="car" speedFactor="1.03" vaporized=""/>
    <tripinfo id="flow_route_57_duration_20250327_1920.0" depart="0.00" departLane="186407685_0" departPos="131.94" departSpeed="0.00" departDelay="0.00" arrival="58.00" arrivalLane="380351865#0_0" arrivalPos="0.78" arrivalSpeed="10.88" duration="58.00" routeLength="205.45" waitingTime="24.00" waitingCount="1" stopTime="0.00" timeLoss="41.39" rerouteNo="0" devices="tripinfo_flow_route_57_duration_20250327_1920.0" vType="car" speedFactor="1.01" vaporized=""/>
    <tripinfo id="flow_route_59_duration_20250327_1920.2" depart="6.00" departLane="186407685_0" departPos="96.38" departSpeed="0.00" departDelay="1.39" arrival="60.00" arrivalLane="1369578052#0_0" arrivalPos="116.77" arrivalSpeed="13.09" duration="54.00" routeLength="206.50" waitingTime="12.00" waitingCount="1" stopTime="0.00" timeLoss="40.63" rerouteNo="0" devices="tripinfo_flow_route_59_duration_20250327_1920.2" vType="car" speedFactor="1.03" vaporized=""/>
    <tripinfo id="flow_route_57_duration_20250327_1920.1" depart="16.00" departLane="186407685_0" departPos="100.42" departSpeed="0.00" departDelay="4.00" arrival="62.00" arrivalLane="380351865#0_1" arrivalPos="12.21" arrivalSpeed="10.83" duration="46.00" routeLength="248.40" waitingTime="6.00" waitingCount="1" stopTime="0.00" timeLoss="25.28" rerouteNo="0" devices="tripinfo_flow_route_57_duration_20250327_1920.1" vType="car" speedFactor="0.97" vaporized=""/>
    <tripinfo id="flow_route_59_duration_20250327_1920.9" depart="26.00" departLane="186407685_0" departPos="117.45" departSpeed="0.00" departDelay="5.24" arrival="64.00" arrivalLane="1369578052#0_0" arrivalPos="84.01" arrivalSpeed="13.41" duration="38.00" routeLength="152.67" waitingTime="5.00" waitingCount="1" stopTime="0.00" timeLoss="27.54" rerouteNo="0" devices="tripinfo_flow_route_59_duration_20250327_1920.9" vType="car" speedFactor="1.10" vaporized=""/>
    <tripinfo id="flow_route_57_duration_20250327_1920.2" depart="30.00" departLane="186407685_0" departPos="60.00" departSpeed="0.00" departDelay="6.00" arrival="64.00" arrivalLane="380351865#0_1" arrivalPos="13.33" arrivalSpeed="10.47" duration="34.00" routeLength="289.94" waitingTime="0.00" waitingCount="0" stopTime="0.00" timeLoss="10.48" rerouteNo="0" devices="tripinfo_flow_route_57_duration_20250327_1920.2" vType="car" speedFactor="0.96" vaporized=""/>
    <tripinfo id="flow_route_59_duration_20250327_1920.1" depart="3.00" departLane="186407685_0" departPos="57.01" departSpeed="0.00" departDelay="0.69" arrival="66.00" arrivalLane="1369578052#0_0" arrivalPos="161.40" arrivalSpeed="15.52" duration="63.00" routeLength="290.50" waitingTime="11.00" waitingCount="1" stopTime="0.00" timeLoss="42.95" rerouteNo="0" devices="tripinfo_flow_route_59_duration_20250327_1920.1" vType="car" speedFactor="0.94" vaporized=""/>
    <tripinfo id="flow_route_59_duration_20250327_1920.5" depart="17.00" departLane="186407685_0" departPos="51.36" departSpeed="0.00" departDelay="5.47" arrival="72.00" arrivalLane="1369578052#0_0" arrivalPos="109.90" arrivalSpeed="13.30" duration="55.00" routeLength="244.66" waitingTime="5.00" waitingCount="1" stopTime="0.00" timeLoss="38.17" rerouteNo="0" devices="tripinfo_flow_route_59_duration_20250327_1920.5" vType="car" speedFactor="0.89" vaporized=""/>
    <tripinfo id="flow_route_66_duration_20250327_1920.4" depart="21.00" departLane="-138002002#2_0" departPos="178.96" departSpeed="0.00" departDelay="2.54" arrival="74.00" arrivalLane="-138002006#3_0" arrivalPos="32.42" arrivalSpeed="9.20" duration="53.00" routeLength="56.85" waitingTime="37.00" waitingCount="1" stopTime="0.00" timeLoss="49.37" rerouteNo="0" devices="tripinfo_flow_route_66_duration_20250327_1920.4" vType="car" speedFactor="0.99" vaporized=""/>
    <tripinfo id="flow_route_59_duration_20250327_1920.6" depart="18.00" departLane="186407685_0" departPos="69.01" departSpeed="0.00" departDelay="4.16" arrival="75.00" arrivalLane="1369578052#0_0" arrivalPos="176.02" arrivalSpeed="14.25" duration="57.00" routeLength="293.11" waitingTime="6.00" waitingCount="1" stopTime="0.00" timeLoss="35.68" rerouteNo="0" devices="tripinfo_flow_route_59_duration_20250327_1920.6" vType="car" speedFactor="0.87" vaporized=""/>
    <tripinfo id="flow_route_53_duration_20250327_1920.16" depart="33.00" departLane="138002006#0_0" departPos="13.61" departSpeed="0.00" departDelay="4.78" arrival="75.00" arrivalLane="1369578052#0_0" arrivalPos="2.70" arrivalSpeed="6.88" duration="42.00" routeLength="97.00" waitingTime="17.00" waitingCount="1" stopTime="0.00" timeLoss="35.97" rerouteNo="0" devices="tripinfo_flow_route_53_duration_20250327_1920.16" vType="car" speedFactor="1.17" vaporized=""/>
    <tripinfo id="flow_route_66_duration_20250327_1920.3" depart="16.00" departLane="-138002002#2_0" departPos="33.28" departSpeed="0.00" departDelay="2.16" arrival="76.00" arrivalLane="-138002006#3_1" arrivalPos="16.28" arrivalSpeed="8.39" duration="60.00" routeLength="186.39" waitingTime="28.00" waitingCount="1" stopTime="0.00" timeLoss="47.72" rerouteNo="0" devices="tripinfo_flow_route_66_duration_20250327_1920.3" vType="car" speedFactor="0.92" vaporized=""/>
    <tripinfo id="flow_route_66_duration_20250327_1920.2" depart="10.00" departLane="-138002002#2_0" departPos="105.30" departSpeed="0.00" departDelay="0.77" arrival="79.00" arrivalLane="-138002006#3_0" arrivalPos="85.63" arrivalSpeed="12.95" duration="69.00" routeLength="183.73" waitingTime="36.00" waitingCount="1" stopTime="0.00" timeLoss="57.44" rerouteNo="0" devices="tripinfo_flow_route_66_duration_20250327_1920.2" vType="car" speedFactor="1.16" vaporized=""/>
    <tripinfo id="flow_route_53_duration_20250327_1920.13" depart="31.00" departLane="138002006#0_0" departPos="1.04" departSpeed="0.00" departDelay="8.07" arrival="79.00" arrivalLane="1369578052#0_0" arrivalPos="18.71" arrivalSpeed="8.73" duration="48.00" routeLength="125.60" waitingTime="15.00" waitingCount="2" stopTime="0.00" timeLoss="40.41" rerouteNo="0" devices="tripinfo_flow_route_53_duration_20250327_1920.13" vType="car" speedFactor="1.03" vaporized=""/>
    <tripinfo id="flow_route_66_duration_20250327_1920.5" depart="25.00" departLane="-138002002#2_0" departPos="155.75" departSpeed="0.00" departDelay="1.93" arrival="79.00" arrivalLane="-138002006#3_1" arrivalPos="63.23" arrivalSpeed="12.44" duration="54.00" routeLength="110.87" waitingTime="30.00" waitingCount="1" stopTime="0.00" timeLoss="46.63" rerouteNo="0" devices="tripinfo_flow_route_66_duration_20250327_1920.5" vType="car" speedFactor="1.04" vaporized=""/>
    <tripinfo id="flow_route_66_duration_20250327_1920.6" depart="33.00" departLane="-138002002#2_0" departPos="38.22" departSpeed="0.00" departDelay="5.31" arrival="80.00" arrivalLane="-138002006#3_1" arrivalPos="9.13" arrivalSpeed="8.93" duration="47.00" routeLength="174.30" waitingTime="13.00" waitingCount="1" stopTime="0.00" timeLoss="34.67" rerouteNo="0" devices="tripinfo_flow_route_66_duration_20250327_1920.6" vType="car" speedFactor="0.85" vaporized=""/>
    <tripinfo id="flow_route_66_duration_20250327_1920.7" depart="39.00" departLane="-138002002#2_0" departPos="136.51" departSpeed="0.00" departDelay="6.70" arrival="80.00" arrivalLane="-138002006#3_1" arrivalPos="29.55" arrivalSpeed="10.83" duration="41.00" routeLength="96.42" waitingTime="17.00" waitingCount="1" stopTime="0.00" timeLoss="34.82" rerouteNo="0" devices="tripinfo_flow_route_66_duration_20250327_1920.7" vType="car" speedFactor="1.14" vaporized=""/>
    <tripinfo id="flow_route_53_duration_20250327_1920.11" depart="28.00" departLane="138002006#0_0" departPos="56.91" departSpeed="0.00" departDelay="8.60" arrival="82.00" arrivalLane="1369578052#0_0" arrivalPos="115.25" arrivalSpeed="14.80" duration="54.00" routeLength="166.26" waitingTime="24.00" waitingCount="1" stopTime="0.00" timeLoss="42.93" rerouteNo="0" devices="tripinfo_flow_route_53_duration_20250327_1920.11" vType="car" speedFactor="0.97" vaporized=""/>
    <tripinfo id="flow_route_53_duration_20250327_1920.14" depart="31.00" departLane="138002006#0_0" departPos="43.18" departSpeed="0.00" departDelay="6.30" arrival="82.00" arrivalLane="1369578052#0_0" arrivalPos="88.48" arrivalSpeed="12.75" duration="51.00" routeLength="153.22" waitingTime="21.00" waitingCount="1" stopTime="0.00" timeLoss="41.29" rerouteNo="0" devices="tripinfo_flow_route_53_duration_20250327_1920.14" vType="car" speedFactor="1.09" vaporized=""/>
    <tripinfo id="flow_route_66_duration_20250327_1920.8" depart="43.00" departLane="-138002002#2_0" departPos="34.63" departSpeed="0.00" departDelay="6.08" arrival="84.00" arrivalLane="-138002006#3_1" arrivalPos="21.17" arrivalSpeed="11.06" duration="41.00" routeLength="189.93" waitingTime="7.00" waitingCount="1" stopTime="0.00" timeLoss="28.19" rerouteNo="0" devices="tripinfo_flow_route_66_duration_20250327_1920.8" vType="car" speedFactor="0.94" vaporized=""/>
    <tripinfo id="flow_route_67_duration_20250327_1920.1" depart="4.00" departLane="-138002002#2_0" departPos="56.56" departSpeed="0.00" departDelay="0.67" arrival="85.00" arrivalLane="380351865#0_0" arrivalPos="0.79" arrivalSpeed="11.64" duration="81.00" routeLength="277.27" waitingTime="36.00" waitingCount="1" stopTime="0.00" timeLoss="59.62" rerouteNo="0" devices="tripinfo_flow_route_67_duration_20250327_1920.1" vType="car" speedFactor="1.09" vaporized=""/>
    <tripinfo id="flow_route_67_duration_20250327_1920.5" depart="17.00" departLane="-138002002#2_0" departPos="77.96" departSpeed="0.00" departDelay="0.34" arrival="87.00" arrivalLane="380351865#0_0" arrivalPos="6.01" arrivalSpeed="12.72" duration="70.00" routeLength="261.09" waitingTime="29.00" waitingCount="1" stopTime="0.00" timeLoss="50.64" rerouteNo="0" devices="tripinfo_flow_route_67_duration_20250327_1920.5" vType="car" speedFactor="1.15" vaporized=""/>
    <tripinfo id="flow_route_66_duration_20250327_1920.10" depart="57.00" departLane="-138002002#2_0" departPos="3.02" departSpeed="0.00" departDelay="10.85" arrival="87.00" arrivalLane="-138002006#3_1" arrivalPos="25.28" arrivalSpeed="11.60" duration="30.00" routeLength="225.65" waitingTime="0.00" waitingCount="0" stopTime="0.00" timeLoss="16.36" rerouteNo="0" devices="tripinfo_flow_route_66_duration_20250327_1920.10" vType="car" speedFactor="1.03" vaporized=""/>
    <tripinfo id="flow_route_53_duration_20250327_1920.19" depart="46.00" departLane="138002006#0_0" departPos="4.35" departSpeed="0.00" departDelay="12.48" arrival="88.00" arrivalLane="1369578052#0_0" arrivalPos="81.95" arrivalSpeed="13.92" duration="42.00" routeLength="185.53" waitingTime="8.00" waitingCount="1" stopTime="0.00" timeLoss="30.66" rerouteNo="0" devices="tripinfo_flow_route_53_duration_20250327_1920.19" vType="car" speedFactor="1.02" vaporized=""/>
    <tripinfo id="flow_route_66_duration_20250327_1920.9" depart="51.00" departLane="-138002002#2_0" departPos="2.04" departSpeed="0.00" departDelay="9.47" arrival="88.00" arrivalLane="-138002006#3_1" arrivalPos="51.42" arrivalSpeed="13.63" duration="37.00" routeLength="252.77" waitingTime="0.00" waitingCount="0" stopTime="0.00" timeLoss="21.23" rerouteNo="0" devices="tripinfo_flow_route_66_duration_20250327_1920.9" vType="car" speedFactor="1.06" vaporized=""/>
    <tripinfo id="flow_route_67_duration_20250327_1920.3" depart="10.00" departLane="-138002002#2_0" departPos="44.47" departSpeed="0.00" departDelay="0.00" arrival="90.00" arrivalLane="380351865#0_0" arrivalPos="4.51" arrivalSpeed="10.84" duration="80.00" routeLength="293.09" waitingTime="27.00" waitingCount="1" stopTime="0.00" timeLoss="56.81" rerouteNo="0" devices="tripinfo_flow_route_67_duration_20250327_1920.3" vType="car" speedFactor="1.02" vaporized=""/>
    <tripinfo id="flow_route_67_duration_20250327_1920.6" depart="21.00" departLane="-138002002#2_0" departPos="54.59" departSpeed="0.00" departDelay="1.00" arrival="92.00" arrivalLane="380351865#0_0" arrivalPos="15.79" arrivalSpeed="12.64" duration="71.00" routeLength="294.25" waitingTime="27.00" waitingCount="1" stopTime="0.00" timeLoss="49.96" rerouteNo="0" devices="tripinfo_flow_route_67_duration_20250327_1920.6" vType="car" speedFactor="1.18" vaporized=""/>
    <tripinfo id="flow_route_53_duration_20250327_1920.17" depart="40.00" departLane="138002006#0_0" departPos="7.55" departSpeed="0.00" departDelay="10.01" arrival="92.00" arrivalLane="1369578052#0_0" arrivalPos="166.52" arrivalSpeed="16.45" duration="52.00" routeLength="266.89" waitingTime="11.00" waitingCount="1" stopTime="0.00" timeLoss="35.52" rerouteNo="0" devices="tripinfo_flow_route_53_duration_20250327_1920.17" vType="car" speedFactor="1.02" vaporized=""/>
    <tripinfo id="flow_route_53_duration_20250327_1920.23" depart="69.00" departLane="138002006#0_0" departPos="23.82" departSpeed="0.00" departDelay="28.43" arrival="94.00" arrivalLane="1369578052#0_0" arrivalPos="111.44" arrivalSpeed="15.80" duration="25.00" routeLength="195.54" waitingTime="0.00" waitingCount="0" stopTime="0.00" timeLoss="12.51" rerouteNo="0" devices="tripinfo_flow_route_53_duration_20250327_1920.23" vType="car" speedFactor="0.97" vaporized=""/>
    <tripinfo id="flow_route_67_duration_20250327_1920.4" depart="16.00" departLane="-138002002#2_0" departPos="8.63" departSpeed="0.00" departDelay="2.67" arrival="95.00" arrivalLane="380351865#0_0" arrivalPos="10.95" arrivalSpeed="10.10" duration="79.00" routeLength="335.37" waitingTime="27.00" waitingCount="1" stopTime="0.00" timeLoss="52.29" rerouteNo="0" devices="tripinfo_flow_route_67_duration_20250327_1920.4" vType="car" speedFactor="0.95" vaporized=""/>
    <tripinfo id="flow_route_53_duration_20250327_1920.21" depart="58.00" departLane="138002006#0_0" departPos="28.54" departSpeed="0.00" departDelay="20.96" arrival="95.00" arrivalLane="1369578052#0_0" arrivalPos="146.18" arrivalSpeed="14.66" duration="37.00" routeLength="225.55" waitingTime="2.00" waitingCount="1" stopTime="0.00" timeLoss="21.13" rerouteNo="0" devices="tripinfo_flow_route_53_duration_20250327_1920.21" vType="car" speedFactor="0.91" vaporized=""/>
    <tripinfo id="flow_route_67_duration_20250327_1920.7" depart="25.00" departLane="-138002002#2_0" departPos="28.29" departSpeed="0.00" departDelay="1.67" arrival="96.00" arrivalLane="380351865#0_0" arrivalPos="2.12" arrivalSpeed="11.40" duration="71.00" routeLength="306.88" waitingTime="26.00" waitingCount="1" stopTime="0.00" timeLoss="48.03" rerouteNo="0" devices="tripinfo_flow_route_67_duration_20250327_1920.7" vType="car" speedFactor="1.04" vaporized=""/>
    <tripinfo id="flow_route_53_duration_20250327_1920.9" depart="25.00" departLane="138002006#0_0" departPos="3.78" departSpeed="0.00" departDelay="9.12" arrival="97.00" arrivalLane="1369578052#0_0" arrivalPos="15.86" arrivalSpeed="8.05" duration="72.00" routeLength="119.99" waitingTime="34.00" waitingCount="2" stopTime="0.00" timeLoss="64.07" rerouteNo="0" devices="tripinfo_flow_route_53_duration_20250327_1920.9" vType="car" speedFactor="0.93" vaporized=""/>
    <tripinfo id="flow_route_67_duration_20250327_1920.10" depart="42.00" departLane="-138002002#2_0" departPos="100.52" departSpeed="0.00" departDelay="8.67" arrival="100.00" arrivalLane="380351865#0_0" arrivalPos="6.26" arrivalSpeed="10.31" duration="58.00" routeLength="238.78" waitingTime="19.00" waitingCount="1" stopTime="0.00" timeLoss="37.32" rerouteNo="0" devices="tripinfo_flow_route_67_duration_20250327_1920.10" vType="car" speedFactor="0.97" vaporized=""/>
    <tripinfo id="flow_route_53_duration_20250327_1920.12" depart="30.00" departLane="138002006#0_0" departPos="70.83" departSpeed="0.00" departDelay="8.83" arrival="101.00" arrivalLane="1369578052#0_0" arrivalPos="75.77" arrivalSpeed="12.85" duration="71.00" routeLength="112.86" waitingTime="43.00" waitingCount="3" stopTime="0.00" timeLoss="62.76" rerouteNo="0" devices="tripinfo_flow_route_53_duration_20250327_1920.12" vType="car" speedFactor="0.90" vaporized=""/>
    <tripinfo id="flow_route_53_duration_20250327_1920.24" depart="72.00" departLane="138002006#0_0" departPos="0.46" departSpeed="0.00" departDelay="29.66" arrival="102.00" arrivalLane="1369578052#0_0" arrivalPos="40.91" arrivalSpeed="10.33" duration="30.00" routeLength="148.37" waitingTime="0.00" waitingCount="0" stopTime="0.00" timeLoss="20.40" rerouteNo="0" devices="tripinfo_flow_route_53_duration_20250327_1920.24" vType="car" speedFactor="0.96" vaporized=""/>
    <tripinfo id="flow_route_53_duration_20250327_1920.10" depart="25.00" departLane="138002006#0_0" departPos="34.68" departSpeed="0.00" departDelay="7.36" arrival="104.00" arrivalLane="1369578052#0_1" arrivalPos="113.38" arrivalSpeed="14.53" duration="79.00" routeLength="186.63" waitingTime="38.00" waitingCount="2" stopTime="0.00" timeLoss="67.19" rerouteNo="0" devices="tripinfo_flow_route_53_duration_20250327_1920.10" vType="car" speedFactor="1.01" vaporized=""/>
    <tripinfo id="flow_route_52_duration_20250327_1920.1" depart="28.00" departLane="138002006#0_0" departPos="76.04" departSpeed="0.00" departDelay="8.00" arrival="107.00" arrivalLane="380351865#0_1" arrivalPos="14.95" arrivalSpeed="11.07" duration="79.00" routeLength="180.47" waitingTime="45.00" waitingCount="3" stopTime="0.00" timeLoss="62.30" rerouteNo="0" devices="tripinfo_flow_route_52_duration_20250327_1920.1" vType="car" speedFactor="1.02" vaporized=""/>
    <tripinfo id="flow_route_53_duration_20250327_1920.18" depart="41.00" departLane="138002006#0_0" departPos="16.92" departSpeed="0.00" departDelay="9.25" arrival="108.00" arrivalLane="1369578052#0_1" arrivalPos="151.03" arrivalSpeed="16.28" duration="67.00" routeLength="242.03" waitingTime="23.00" waitingCount="2" stopTime="0.00" timeLoss="52.05" rerouteNo="0" devices="tripinfo_flow_route_53_duration_20250327_1920.18" vType="car" speedFactor="1.00" vaporized=""/>
    <tripinfo id="flow_route_53_duration_20250327_1920.20" depart="51.00" departLane="138002006#0_0" departPos="4.31" departSpeed="0.00" departDelay="15.72" arrival="111.00" arrivalLane="1369578052#0_1" arrivalPos="169.50" arrivalSpeed="16.37" duration="60.00" routeLength="273.12" waitingTime="11.00" waitingCount="2" stopTime="0.00" timeLoss="42.84" rerouteNo="0" devices="tripinfo_flow_route_53_duration_20250327_1920.20" vType="car" speedFactor="1.12" vaporized=""/>
    <tripinfo id="flow_route_59_duration_20250327_1920.4" depart="14.00" departLane="186407685_0" departPos="26.88" departSpeed="0.00" departDelay="4.77" arrival="114.00" arrivalLane="1369578052#0_0" arrivalPos="75.82" arrivalSpeed="11.80" duration="100.00" routeLength="235.05" waitingTime="40.00" waitingCount="2" stopTime="0.00" timeLoss="83.94" rerouteNo="0" devices="tripinfo_flow_route_59_duration_20250327_1920.4" vType="car" speedFactor="0.94" vaporized=""/>
    <tripinfo id="flow_route_59_duration_20250327_1920.12" depart="32.00" departLane="186407685_0" departPos="86.31" departSpeed="0.00" departDelay="4.32" arrival="119.00" arrivalLane="1369578052#0_0" arrivalPos="105.68" arrivalSpeed="13.39" duration="87.00" routeLength="205.48" waitingTime="38.00" waitingCount="2" stopTime="0.00" timeLoss="71.81" rerouteNo="0" devices="tripinfo_flow_route_59_duration_20250327_1920.12" vType="car" speedFactor="0.85" vaporized=""/>
    <tripinfo id="flow_route_59_duration_20250327_1920.8" depart="24.00" departLane="186407685_0" departPos="24.99" departSpeed="0.00" departDelay="5.54" arrival="120.00" arrivalLane="1369578052#0_0" arrivalPos="76.90" arrivalSpeed="12.29" duration="96.00" routeLength="238.01" waitingTime="37.00" waitingCount="3" stopTime="0.00" timeLoss="80.43" rerouteNo="0" devices="tripinfo_flow_route_59_duration_20250327_1920.8" vType="car" speedFactor="1.17" vaporized=""/>
    <tripinfo id="flow_route_57_duration_20250327_1920.3" depart="46.00" departLane="186407685_0" departPos="5.58" departSpeed="0.00" departDelay="10.00" arrival="122.00" arrivalLane="380351865#0_1" arrivalPos="5.48" arrivalSpeed="11.17" duration="76.00" routeLength="336.51" waitingTime="30.00" waitingCount="1" stopTime="0.00" timeLoss="50.73" rerouteNo="0" devices="tripinfo_flow_route_57_duration_20250327_1920.3" vType="car" speedFactor="1.02" vaporized=""/>
    <tripinfo id="flow_route_59_duration_20250327_1920.13" depart="34.00" departLane="186407685_0" departPos="27.91" departSpeed="0.00" departDelay="4.01" arrival="123.00" arrivalLane="1369578052#0_0" arrivalPos="30.88" arrivalSpeed="8.84" duration="89.00" routeLength="189.08" waitingTime="36.00" waitingCount="2" stopTime="0.00" timeLoss="77.10" rerouteNo="0" devices="tripinfo_flow_route_59_duration_20250327_1920.13" vType="car" speedFactor="1.10" vaporized=""/>