<?xml version="1.0" encoding="UTF-8"?>

<!-- generated on 2025-05-06 21:08:12 by Eclipse SUMO sumo Version 1.20.0
<configuration xmlns:xsi="http://www.w3.org/2001/XMLSchema-instance" xsi:noNamespaceSchemaLocation="http://sumo.dlr.de/xsd/sumoConfiguration.xsd">

    <input>
        <net-file value="osm.net.xml"/>
        <route-files value="xml/route_rl_GS_cluster_1342409365_3839031467_3.rou.xml"/>
    </input>

    <output>
        <tripinfo-output value="xml/tripinfo_rl_GS_cluster_1342409365_3839031467_3.xml"/>
    </output>

    <traci_server>
        <remote-port value="36627"/>
    </traci_server>

</configuration>
-->

<tripinfos xmlns:xsi="http://www.w3.org/2001/XMLSchema-instance" xsi:noNamespaceSchemaLocation="http://sumo.dlr.de/xsd/tripinfo_file.xsd">
    <tripinfo id="flow_route_128_duration_20250327_1930.0" depart="0.00" departLane="134133272_0" departPos="226.49" departSpeed="0.00" departDelay="0.00" arrival="31.00" arrivalLane="380585338#0_0" arrivalPos="7.57" arrivalSpeed="5.40" duration="31.00" routeLength="279.28" waitingTime="0.00" waitingCount="0" stopTime="0.00" timeLoss="10.58" rerouteNo="0" devices="tripinfo_flow_route_128_duration_20250327_1930.0" vType="car" speedFactor="0.83" vaporized=""/>
    <tripinfo id="flow_route_92_duration_20250327_1930.0" depart="0.00" departLane="133000063_0" departPos="1.04" departSpeed="0.00" departDelay="0.00" arrival="46.00" arrivalLane="186409193_0" arrivalPos="41.62" arrivalSpeed="15.49" duration="46.00" routeLength="432.44" waitingTime="0.00" waitingCount="0" stopTime="0.00" timeLoss="17.30" rerouteNo="0" devices="tripinfo_flow_route_92_duration_20250327_1930.0" vType="car" speedFactor="0.94" vaporized=""/>
    <tripinfo id="flow_route_103_duration_20250327_1930.0" depart="1.00" departLane="1342963997_0" departPos="122.75" departSpeed="0.00" departDelay="1.00" arrival="47.00" arrivalLane="683079387#1_0" arrivalPos="6.02" arrivalSpeed="16.53" duration="46.00" routeLength="459.49" waitingTime="0.00" waitingCount="0" stopTime="0.00" timeLoss="17.28" rerouteNo="0" devices="tripinfo_flow_route_103_duration_20250327_1930.0" vType="car" speedFactor="1.03" vaporized=""/>
    <tripinfo id="flow_route_91_duration_20250327_1930.0" depart="0.00" departLane="133000063_0" departPos="128.34" departSpeed="0.00" departDelay="0.00" arrival="50.00" arrivalLane="683079387#1_0" arrivalPos="9.10" arrivalSpeed="16.56" duration="50.00" routeLength="599.49" waitingTime="0.00" waitingCount="0" stopTime="0.00" timeLoss="13.33" rerouteNo="0" devices="tripinfo_flow_route_91_duration_20250327_1930.0" vType="car" speedFactor="1.06" vaporized=""/>
    <tripinfo id="flow_route_128_duration_20250327_1930.1" depart="20.00" departLane="134133272_0" departPos="229.32" departSpeed="0.00" departDelay="0.00" arrival="62.00" arrivalLane="380585338#0_0" arrivalPos="102.30" arrivalSpeed="12.75" duration="42.00" routeLength="371.18" waitingTime="0.00" waitingCount="0" stopTime="0.00" timeLoss="15.57" rerouteNo="0" devices="tripinfo_flow_route_128_duration_20250327_1930.1" vType="car" speedFactor="0.88" vaporized=""/>
    <tripinfo id="flow_route_145_duration_20250327_1930.0" depart="0.00" departLane="683079388#0_0" departPos="22.61" departSpeed="0.00" departDelay="0.00" arrival="68.00" arrivalLane="380585336_0" arrivalPos="229.76" arrivalSpeed="15.16" duration="68.00" routeLength="831.39" waitingTime="0.00" waitingCount="0" stopTime="0.00" timeLoss="15.35" rerouteNo="0" devices="tripinfo_flow_route_145_duration_20250327_1930.0" vType="car" speedFactor="0.94" vaporized=""/>
    <tripinfo id="flow_route_102_duration_20250327_1930.6" depart="8.00" departLane="1342963997_0" departPos="171.46" departSpeed="0.00" departDelay="0.94" arrival="70.00" arrivalLane="380585336_1" arrivalPos="207.55" arrivalSpeed="15.74" duration="62.00" routeLength="747.04" waitingTime="0.00" waitingCount="0" stopTime="0.00" timeLoss="14.13" rerouteNo="0" devices="tripinfo_flow_route_102_duration_20250327_1930.6" vType="car" speedFactor="0.95" vaporized=""/>
    <tripinfo id="flow_route_93_duration_20250327_1930.0" depart="0.00" departLane="133000063_0" departPos="115.92" departSpeed="0.00" departDelay="0.00" arrival="72.00" arrivalLane="380585336_1" arrivalPos="19.16" arrivalSpeed="16.57" duration="72.00" routeLength="758.54" waitingTime="0.00" waitingCount="0" stopTime="0.00" timeLoss="25.67" rerouteNo="0" devices="tripinfo_flow_route_93_duration_20250327_1930.0" vType="car" speedFactor="1.01" vaporized=""/>
    <tripinfo id="flow_route_93_duration_20250327_1930.3" depart="2.00" departLane="133000063_0" departPos="152.88" departSpeed="0.00" departDelay="0.09" arrival="73.00" arrivalLane="380585336_2" arrivalPos="129.38" arrivalSpeed="16.41" duration="71.00" routeLength="831.79" waitingTime="0.00" waitingCount="0" stopTime="0.00" timeLoss="20.40" rerouteNo="0" devices="tripinfo_flow_route_93_duration_20250327_1930.3" vType="car" speedFactor="1.03" vaporized=""/>
    <tripinfo id="flow_route_128_duration_20250327_1930.2" depart="40.00" departLane="134133272_0" departPos="318.57" departSpeed="0.00" departDelay="0.00" arrival="74.00" arrivalLane="380585338#0_0" arrivalPos="94.58" arrivalSpeed="13.84" duration="34.00" routeLength="274.21" waitingTime="0.00" waitingCount="0" stopTime="0.00" timeLoss="16.17" rerouteNo="0" devices="tripinfo_flow_route_128_duration_20250327_1930.2" vType="car" speedFactor="1.06" vaporized=""/>
    <tripinfo id="flow_route_93_duration_20250327_1930.1" depart="2.00" departLane="133000063_0" departPos="161.74" departSpeed="0.00" departDelay="1.36" arrival="75.00" arrivalLane="380585336_1" arrivalPos="135.66" arrivalSpeed="14.14" duration="73.00" routeLength="829.21" waitingTime="0.00" waitingCount="0" stopTime="0.00" timeLoss="15.05" rerouteNo="0" devices="tripinfo_flow_route_93_duration_20250327_1930.1" vType="car" speedFactor="0.86" vaporized=""/>
    <tripinfo id="flow_route_145_duration_20250327_1930.1" depart="8.00" departLane="683079388#0_0" departPos="4.73" departSpeed="0.00" departDelay="0.50" arrival="77.00" arrivalLane="380585336_0" arrivalPos="244.42" arrivalSpeed="16.12" duration="69.00" routeLength="863.92" waitingTime="0.00" waitingCount="0" stopTime="0.00" timeLoss="16.44" rerouteNo="0" devices="tripinfo_flow_route_145_duration_20250327_1930.1" vType="car" speedFactor="1.13" vaporized=""/>
    <tripinfo id="flow_route_93_duration_20250327_1930.6" depart="7.00" departLane="133000063_0" departPos="119.12" departSpeed="0.00" departDelay="3.17" arrival="79.00" arrivalLane="380585336_1" arrivalPos="67.04" arrivalSpeed="14.59" duration="72.00" routeLength="803.21" waitingTime="0.00" waitingCount="0" stopTime="0.00" timeLoss="17.67" rerouteNo="0" devices="tripinfo_flow_route_93_duration_20250327_1930.6" vType="car" speedFactor="0.88" vaporized=""/>
    <tripinfo id="flow_route_93_duration_20250327_1930.2" depart="2.00" departLane="133000063_0" departPos="141.98" departSpeed="0.00" departDelay="0.72" arrival="81.00" arrivalLane="380585336_1" arrivalPos="216.14" arrivalSpeed="16.52" duration="79.00" routeLength="929.45" waitingTime="0.00" waitingCount="0" stopTime="0.00" timeLoss="22.94" rerouteNo="0" devices="tripinfo_flow_route_93_duration_20250327_1930.2" vType="car" speedFactor="1.09" vaporized=""/>
    <tripinfo id="flow_route_129_duration_20250327_1930.0" depart="0.00" departLane="134133272_0" departPos="105.80" departSpeed="0.00" departDelay="0.00" arrival="83.00" arrivalLane="683079387#1_0" arrivalPos="7.59" arrivalSpeed="16.32" duration="83.00" routeLength="945.90" waitingTime="1.00" waitingCount="1" stopTime="0.00" timeLoss="25.05" rerouteNo="0" devices="tripinfo_flow_route_129_duration_20250327_1930.0" vType="car" speedFactor="1.05" vaporized=""/>
    <tripinfo id="flow_route_93_duration_20250327_1930.7" depart="12.00" departLane="133000063_0" departPos="49.96" departSpeed="0.00" departDelay="7.53" arrival="85.00" arrivalLane="380585336_1" arrivalPos="54.51" arrivalSpeed="16.32" duration="73.00" routeLength="859.85" waitingTime="0.00" waitingCount="0" stopTime="0.00" timeLoss="20.95" rerouteNo="0" devices="tripinfo_flow_route_93_duration_20250327_1930.7" vType="car" speedFactor="1.16" vaporized=""/>
    <tripinfo id="flow_route_144_duration_20250327_1930.0" depart="0.00" departLane="683079388#0_0" departPos="1.56" departSpeed="0.00" departDelay="0.00" arrival="88.00" arrivalLane="380585338#0_1" arrivalPos="42.98" arrivalSpeed="9.32" duration="88.00" routeLength="621.16" waitingTime="26.00" waitingCount="1" stopTime="0.00" timeLoss="45.89" rerouteNo="0" devices="tripinfo_flow_route_144_duration_20250327_1930.0" vType="car" speedFactor="0.89" vaporized=""/>
    <tripinfo id="flow_route_93_duration_20250327_1930.4" depart="5.00" departLane="133000063_0" departPos="70.85" departSpeed="0.00" departDelay="2.45" arrival="91.00" arrivalLane="380585336_2" arrivalPos="229.35" arrivalSpeed="16.37" duration="86.00" routeLength="1013.79" waitingTime="0.00" waitingCount="0" stopTime="0.00" timeLoss="23.99" rerouteNo="0" devices="tripinfo_flow_route_93_duration_20250327_1930.4" vType="car" speedFactor="1.12" vaporized=""/>
    <tripinfo id="flow_route_93_duration_20250327_1930.8" depart="17.00" departLane="133000063_0" departPos="80.32" departSpeed="0.00" departDelay="11.90" arrival="91.00" arrivalLane="380585336_2" arrivalPos="70.77" arrivalSpeed="16.13" duration="74.00" routeLength="845.74" waitingTime="0.00" waitingCount="0" stopTime="0.00" timeLoss="23.03" rerouteNo="0" devices="tripinfo_flow_route_93_duration_20250327_1930.8" vType="car" speedFactor="1.01" vaporized=""/>
    <tripinfo id="flow_route_93_duration_20250327_1930.12" depart="23.00" departLane="133000063_0" departPos="137.44" departSpeed="0.00" departDelay="15.34" arrival="95.00" arrivalLane="380585336_1" arrivalPos="129.69" arrivalSpeed="15.09" duration="72.00" routeLength="847.54" waitingTime="0.00" waitingCount="0" stopTime="0.00" timeLoss="16.16" rerouteNo="0" devices="tripinfo_flow_route_93_duration_20250327_1930.12" vType="car" speedFactor="0.92" vaporized=""/>
    <tripinfo id="flow_route_93_duration_20250327_1930.5" depart="7.00" departLane="133000063_0" departPos="102.69" departSpeed="0.00" departDelay="3.81" arrival="98.00" arrivalLane="380585336_0" arrivalPos="322.13" arrivalSpeed="15.25" duration="91.00" routeLength="1074.73" waitingTime="0.00" waitingCount="0" stopTime="0.00" timeLoss="20.95" rerouteNo="0" devices="tripinfo_flow_route_93_duration_20250327_1930.5" vType="car" speedFactor="0.93" vaporized=""/>
    <tripinfo id="flow_route_144_duration_20250327_1930.1" depart="15.00" departLane="683079388#0_0" departPos="10.98" departSpeed="0.00" departDelay="0.00" arrival="98.00" arrivalLane="380585338#0_0" arrivalPos="152.04" arrivalSpeed="14.39" duration="83.00" routeLength="720.80" waitingTime="11.00" waitingCount="1" stopTime="0.00" timeLoss="32.75" rerouteNo="0" devices="tripinfo_flow_route_144_duration_20250327_1930.1" vType="car" speedFactor="0.88" vaporized=""/>
    <tripinfo id="flow_route_144_duration_20250327_1930.3" depart="45.00" departLane="683079388#0_0" departPos="13.07" departSpeed="0.00" departDelay="0.00" arrival="98.00" arrivalLane="380585338#0_0" arrivalPos="112.87" arrivalSpeed="14.90" duration="53.00" routeLength="679.53" waitingTime="0.00" waitingCount="0" stopTime="0.00" timeLoss="11.68" rerouteNo="0" devices="tripinfo_flow_route_144_duration_20250327_1930.3" vType="car" speedFactor="1.00" vaporized=""/>
    <tripinfo id="flow_route_129_duration_20250327_1930.1" depart="30.00" departLane="134133272_0" departPos="186.32" departSpeed="0.00" departDelay="0.00" arrival="100.00" arrivalLane="683079387#1_0" arrivalPos="1.99" arrivalSpeed="15.24" duration="70.00" routeLength="859.79" waitingTime="0.00" waitingCount="0" stopTime="0.00" timeLoss="14.12" rerouteNo="0" devices="tripinfo_flow_route_129_duration_20250327_1930.1" vType="car" speedFactor="0.92" vaporized=""/>
    <tripinfo id="flow_route_144_duration_20250327_1930.2" depart="30.00" departLane="683079388#0_0" departPos="4.92" departSpeed="0.00" departDelay="0.00" arrival="100.00" arrivalLane="380585338#0_0" arrivalPos="159.68" arrivalSpeed="15.90" duration="70.00" routeLength="734.50" waitingTime="0.00" waitingCount="0" stopTime="0.00" timeLoss="24.89" rerouteNo="0" devices="tripinfo_flow_route_144_duration_20250327_1930.2" vType="car" speedFactor="1.09" vaporized=""/>
    <tripinfo id="flow_route_92_duration_20250327_1930.1" depart="11.00" departLane="133000063_0" departPos="35.68" departSpeed="0.00" departDelay="6.39" arrival="105.00" arrivalLane="186409193_0" arrivalPos="19.35" arrivalSpeed="14.51" duration="94.00" routeLength="375.53" waitingTime="37.00" waitingCount="1" stopTime="0.00" timeLoss="69.00" rerouteNo="0" devices="tripinfo_flow_route_92_duration_20250327_1930.1" vType="car" speedFactor="0.94" vaporized=""/>
    <tripinfo id="flow_route_102_duration_20250327_1930.5" depart="6.00" departLane="1342963997_0" departPos="119.97" departSpeed="0.00" departDelay="0.12" arrival="107.00" arrivalLane="380585336_1" arrivalPos="101.71" arrivalSpeed="14.68" duration="101.00" routeLength="692.69" waitingTime="26.00" waitingCount="1" stopTime="0.00" timeLoss="53.84" rerouteNo="0" devices="tripinfo_flow_route_102_duration_20250327_1930.5" vType="car" speedFactor="0.89" vaporized=""/>
    <tripinfo id="flow_route_102_duration_20250327_1930.0" depart="0.00" departLane="1342963997_0" departPos="83.70" departSpeed="0.00" departDelay="0.00" arrival="108.00" arrivalLane="380585336_1" arrivalPos="207.08" arrivalSpeed="16.41" duration="108.00" routeLength="834.32" waitingTime="27.00" waitingCount="1" stopTime="0.00" timeLoss="56.49" rerouteNo="0" devices="tripinfo_flow_route_102_duration_20250327_1930.0" vType="car" speedFactor="1.08" vaporized=""/>
    <tripinfo id="flow_route_102_duration_20250327_1930.11" depart="13.00" departLane="1342963997_0" departPos="105.05" departSpeed="0.00" departDelay="0.06" arrival="119.00" arrivalLane="380585336_1" arrivalPos="216.08" arrivalSpeed="16.47" duration="106.00" routeLength="821.99" waitingTime="25.00" waitingCount="1" stopTime="0.00" timeLoss="55.60" rerouteNo="0" devices="tripinfo_flow_route_102_duration_20250327_1930.11" vType="car" speedFactor="1.09" vaporized=""/>
    <tripinfo id="flow_route_102_duration_20250327_1930.18" depart="22.00" departLane="1342963997_0" departPos="159.31" departSpeed="0.00" departDelay="0.83" arrival="123.00" arrivalLane="380585336_1" arrivalPos="231.43" arrivalSpeed="16.35" duration="101.00" routeLength="783.07" waitingTime="25.00" waitingCount="2" stopTime="0.00" timeLoss="53.03" rerouteNo="0" devices="tripinfo_flow_route_102_duration_20250327_1930.18" vType="car" speedFactor="1.02" vaporized=""/>
    <tripinfo id="flow_route_102_duration_20250327_1930.1" depart="2.00" departLane="1342963997_0" departPos="71.21" departSpeed="0.00" departDelay="0.82" arrival="124.00" arrivalLane="380585336_1" arrivalPos="266.92" arrivalSpeed="16.46" duration="122.00" routeLength="906.66" waitingTime="29.00" waitingCount="3" stopTime="0.00" timeLoss="66.07" rerouteNo="0" devices="tripinfo_flow_route_102_duration_20250327_1930.1" vType="car" speedFactor="1.05" vaporized=""/>
    <tripinfo id="flow_route_102_duration_20250327_1930.7" depart="9.00" departLane="1342963997_0" departPos="98.18" departSpeed="0.00" departDelay="0.77" arrival="130.00" arrivalLane="380585336_1" arrivalPos="11.73" arrivalSpeed="16.28" duration="121.00" routeLength="624.50" waitingTime="30.00" waitingCount="4" stopTime="0.00" timeLoss="82.43" rerouteNo="0" devices="tripinfo_flow_route_102_duration_20250327_1930.7" vType="car" speedFactor="1.15" vaporized=""/>
    <tripinfo id="flow_route_92_duration_20250327_1930.2" depart="34.00" departLane="133000063_0" departPos="32.83" departSpeed="0.00" departDelay="24.77" arrival="131.00" arrivalLane="186409193_0" arrivalPos="54.22" arrivalSpeed="16.36" duration="97.00" routeLength="413.25" waitingTime="15.00" waitingCount="3" stopTime="0.00" timeLoss="70.86" rerouteNo="0" devices="tripinfo_flow_route_92_duration_20250327_1930.2" vType="car" speedFactor="1.01" vaporized=""/>
    <tripinfo id="flow_route_92_duration_20250327_1930.3" depart="48.00" departLane="133000063_0" departPos="1.35" departSpeed="0.00" departDelay="34.16" arrival="134.00" arrivalLane="186409193_0" arrivalPos="24.37" arrivalSpeed="14.64" duration="86.00" routeLength="414.88" waitingTime="4.00" waitingCount="1" stopTime="0.00" timeLoss="60.35" rerouteNo="0" devices="tripinfo_flow_route_92_duration_20250327_1930.3" vType="car" speedFactor="1.04" vaporized=""/>
    <tripinfo id="flow_route_145_duration_20250327_1930.2" depart="21.00" departLane="683079388#0_0" departPos="16.55" departSpeed="0.00" departDelay="6.00" arrival="138.00" arrivalLane="380585336_0" arrivalPos="263.45" arrivalSpeed="13.96" duration="117.00" routeLength="871.13" waitingTime="36.00" waitingCount="1" stopTime="0.00" timeLoss="58.07" rerouteNo="0" devices="tripinfo_flow_route_145_duration_20250327_1930.2" vType="car" speedFactor="0.85" vaporized=""/>
    <tripinfo id="flow_route_102_duration_20250327_1930.9" depart="12.00" departLane="1342963997_0" departPos="121.86" departSpeed="0.00" departDelay="1.42" arrival="139.00" arrivalLane="380585336_1" arrivalPos="238.97" arrivalSpeed="16.14" duration="127.00" routeLength="828.06" waitingTime="31.00" waitingCount="4" stopTime="0.00" timeLoss="76.72" rerouteNo="0" devices="tripinfo_flow_route_102_duration_20250327_1930.9" vType="car" speedFactor="1.18" vaporized=""/>
    <tripinfo id="flow_route_102_duration_20250327_1930.27" depart="41.00" departLane="1342963997_0" departPos="159.41" departSpeed="0.00" departDelay="9.25" arrival="142.00" arrivalLane="380585336_1" arrivalPos="240.00" arrivalSpeed="16.21" duration="101.00" routeLength="791.54" waitingTime="22.00" waitingCount="2" stopTime="0.00" timeLoss="52.33" rerouteNo="0" devices="tripinfo_flow_route_102_duration_20250327_1930.27" vType="car" speedFactor="1.06" vaporized=""/>
    <tripinfo id="flow_route_92_duration_20250327_1930.4" depart="79.00" departLane="133000063_0" departPos="27.94" departSpeed="0.00" departDelay="60.54" arrival="143.00" arrivalLane="186409193_0" arrivalPos="2.49" arrivalSpeed="13.34" duration="64.00" routeLength="366.41" waitingTime="0.00" waitingCount="0" stopTime="0.00" timeLoss="40.91" rerouteNo="0" devices="tripinfo_flow_route_92_duration_20250327_1930.4" vType="car" speedFactor="1.02" vaporized=""/>
    <tripinfo id="flow_route_93_duration_20250327_1930.17" depart="40.00" departLane="133000063_0" departPos="100.51" departSpeed="0.00" departDelay="29.15" arrival="145.00" arrivalLane="380585336_1" arrivalPos="36.24" arrivalSpeed="16.08" duration="105.00" routeLength="791.02" waitingTime="14.00" waitingCount="2" stopTime="0.00" timeLoss="55.62" rerouteNo="0" devices="tripinfo_flow_route_93_duration_20250327_1930.17" vType="car" speedFactor="0.97" vaporized=""/>
    <tripinfo id="flow_route_102_duration_20250327_1930.21" depart="26.00" departLane="1342963997_0" departPos="151.49" departSpeed="0.00" departDelay="1.30" arrival="145.00" arrivalLane="380585336_1" arrivalPos="358.70" arrivalSpeed="16.58" duration="119.00" routeLength="918.16" waitingTime="32.00" waitingCount="4" stopTime="0.00" timeLoss="62.94" rerouteNo="0" devices="tripinfo_flow_route_102_duration_20250327_1930.21" vType="car" speedFactor="1.09" vaporized=""/>
    <tripinfo id="flow_route_102_duration_20250327_1930.41" depart="54.00" departLane="1342963997_0" departPos="153.38" departSpeed="0.00" departDelay="5.78" arrival="145.00" arrivalLane="380585336_1" arrivalPos="227.69" arrivalSpeed="16.54" duration="91.00" routeLength="785.26" waitingTime="20.00" waitingCount="2" stopTime="0.00" timeLoss="42.99" rerouteNo="0" devices="tripinfo_flow_route_102_duration_20250327_1930.41" vType="car" speedFactor="1.04" vaporized=""/>
    <tripinfo id="flow_route_93_duration_20250327_1930.16" depart="35.00" departLane="133000063_0" departPos="99.76" departSpeed="0.00" departDelay="24.79" arrival="146.00" arrivalLane="380585336_2" arrivalPos="142.85" arrivalSpeed="16.56" duration="111.00" routeLength="898.38" waitingTime="23.00" waitingCount="2" stopTime="0.00" timeLoss="56.37" rerouteNo="0" devices="tripinfo_flow_route_93_duration_20250327_1930.16" vType="car" speedFactor="1.02" vaporized=""/>
    <tripinfo id="flow_route_93_duration_20250327_1930.15" depart="35.00" departLane="133000063_0" departPos="2.01" departSpeed="0.00" departDelay="25.43" arrival="147.00" arrivalLane="380585336_1" arrivalPos="28.22" arrivalSpeed="16.46" duration="112.00" routeLength="881.50" waitingTime="5.00" waitingCount="3" stopTime="0.00" timeLoss="58.77" rerouteNo="0" devices="tripinfo_flow_route_93_duration_20250327_1930.15" vType="car" speedFactor="1.17" vaporized=""/>
    <tripinfo id="flow_route_91_duration_20250327_1930.1" depart="82.00" departLane="133000063_0" departPos="89.80" departSpeed="0.00" departDelay="62.00" arrival="149.00" arrivalLane="683079387#1_0" arrivalPos="9.23" arrivalSpeed="16.29" duration="67.00" routeLength="638.16" waitingTime="0.00" waitingCount="0" stopTime="0.00" timeLoss="28.49" rerouteNo="0" devices="tripinfo_flow_route_91_duration_20250327_1930.1" vType="car" speedFactor="1.12" vaporized=""/>
    <tripinfo id="flow_route_93_duration_20250327_1930.21" depart="54.00" departLane="133000063_0" departPos="89.66" departSpeed="0.00" departDelay="40.60" arrival="150.00" arrivalLane="380585336_1" arrivalPos="153.87" arrivalSpeed="16.28" duration="96.00" routeLength="919.50" waitingTime="4.00" waitingCount="1" stopTime="0.00" timeLoss="40.34" rerouteNo="0" devices="tripinfo_flow_route_93_duration_20250327_1930.21" vType="car" speedFactor="1.04" vaporized=""/>
    <tripinfo id="flow_route_93_duration_20250327_1930.14" depart="32.00" departLane="133000063_0" departPos="129.11" departSpeed="0.00" departDelay="23.07" arrival="151.00" arrivalLane="380585336_1" arrivalPos="63.98" arrivalSpeed="16.31" duration="119.00" routeLength="790.16" waitingTime="31.00" waitingCount="1" stopTime="0.00" timeLoss="71.27" rerouteNo="0" devices="tripinfo_flow_route_93_duration_20250327_1930.14" vType="car" speedFactor="1.18" vaporized=""/>
    <tripinfo id="flow_route_102_duration_20250327_1930.48" depart="82.00" departLane="1342963997_0" departPos="155.31" departSpeed="0.00" departDelay="25.55" arrival="161.00" arrivalLane="380585336_0" arrivalPos="356.11" arrivalSpeed="14.48" duration="79.00" routeLength="911.75" waitingTime="0.00" waitingCount="0" stopTime="0.00" timeLoss="17.64" rerouteNo="0" devices="tripinfo_flow_route_102_duration_20250327_1930.48" vType="car" speedFactor="0.89" vaporized=""/>
    <tripinfo id="flow_route_93_duration_20250327_1930.20" depart="48.00" departLane="133000063_0" departPos="60.10" departSpeed="0.00" departDelay="35.24" arrival="164.00" arrivalLane="380585336_1" arrivalPos="164.23" arrivalSpeed="15.72" duration="116.00" routeLength="959.42" waitingTime="12.00" waitingCount="1" stopTime="0.00" timeLoss="55.37" rerouteNo="0" devices="tripinfo_flow_route_93_duration_20250327_1930.20" vType="car" speedFactor="0.96" vaporized=""/>
    <tripinfo id="flow_route_93_duration_20250327_1930.22" depart="57.00" departLane="133000063_0" departPos="25.22" departSpeed="0.00" departDelay="42.96" arrival="166.00" arrivalLane="380585336_1" arrivalPos="10.05" arrivalSpeed="16.15" duration="109.00" routeLength="840.12" waitingTime="4.00" waitingCount="1" stopTime="0.00" timeLoss="58.34" rerouteNo="0" devices="tripinfo_flow_route_93_duration_20250327_1930.22" vType="car" speedFactor="1.09" vaporized=""/>
    <tripinfo id="flow_route_93_duration_20250327_1930.18" depart="40.00" departLane="133000063_0" departPos="87.31" departSpeed="0.00" departDelay="28.52" arrival="170.00" arrivalLane="380585336_0" arrivalPos="304.17" arrivalSpeed="16.18" duration="130.00" routeLength="1072.15" waitingTime="14.00" waitingCount="2" stopTime="0.00" timeLoss="64.92" rerouteNo="0" devices="tripinfo_flow_route_93_duration_20250327_1930.18" vType="car" speedFactor="1.10" vaporized=""/>
    <tripinfo id="flow_route_93_duration_20250327_1930.24" depart="63.00" departLane="133000063_0" departPos="73.27" departSpeed="0.00" departDelay="47.69" arrival="171.00" arrivalLane="380585336_0" arrivalPos="192.05" arrivalSpeed="14.13" duration="108.00" routeLength="974.07" waitingTime="1.00" waitingCount="1" stopTime="0.00" timeLoss="40.45" rerouteNo="0" devices="tripinfo_flow_route_93_duration_20250327_1930.24" vType="car" speedFactor="0.85" vaporized=""/>
    <tripinfo id="flow_route_93_duration_20250327_1930.9" depart="18.00" departLane="133000063_0" departPos="24.31" departSpeed="0.00" departDelay="12.26" arrival="177.00" arrivalLane="380585336_1" arrivalPos="240.85" arrivalSpeed="16.04" duration="159.00" routeLength="1071.83" waitingTime="24.00" waitingCount="2" stopTime="0.00" timeLoss="93.06" rerouteNo="0" devices="tripinfo_flow_route_93_duration_20250327_1930.9" vType="car" speedFactor="0.97" vaporized=""/>
    <tripinfo id="flow_route_93_duration_20250327_1930.29" depart="79.00" departLane="133000063_0" departPos="76.50" departSpeed="0.00" departDelay="60.50" arrival="178.00" arrivalLane="380585336_1" arrivalPos="164.61" arrivalSpeed="15.84" duration="99.00" routeLength="943.40" waitingTime="0.00" waitingCount="0" stopTime="0.00" timeLoss="40.37" rerouteNo="0" devices="tripinfo_flow_route_93_duration_20250327_1930.29" vType="car" speedFactor="0.97" vaporized=""/>
    <tripinfo id="flow_route_93_duration_20250327_1930.10" depart="20.00" departLane="133000063_0" departPos="47.76" departSpeed="0.00" departDelay="13.62" arrival="182.00" arrivalLane="380585336_0" arrivalPos="301.51" arrivalSpeed="13.46" duration="162.00" routeLength="1109.04" waitingTime="31.00" waitingCount="1" stopTime="0.00" timeLoss="82.15" rerouteNo="0" devices="tripinfo_flow_route_93_duration_20250327_1930.10" vType="car" speedFactor="0.83" vaporized=""/>
    <tripinfo id="flow_route_93_duration_20250327_1930.25" depart="64.00" departLane="133000063_0" departPos="14.21" departSpeed="0.00" departDelay="48.05" arrival="187.00" arrivalLane="380585336_1" arrivalPos="368.20" arrivalSpeed="16.32" duration="123.00" routeLength="1209.28" waitingTime="0.00" waitingCount="0" stopTime="0.00" timeLoss="49.33" rerouteNo="0" devices="tripinfo_flow_route_93_duration_20250327_1930.25" vType="car" speedFactor="1.17" vaporized=""/>
    <tripinfo id="flow_route_93_duration_20250327_1930.23" depart="58.00" departLane="133000063_0" departPos="6.87" departSpeed="0.00" departDelay="43.33" arrival="188.00" arrivalLane="380585336_1" arrivalPos="127.56" arrivalSpeed="16.16" duration="130.00" routeLength="975.98" waitingTime="2.00" waitingCount="1" stopTime="0.00" timeLoss="71.02" rerouteNo="0" devices="tripinfo_flow_route_93_duration_20250327_1930.23" vType="car" speedFactor="1.00" vaporized=""/>
    <tripinfo id="flow_route_93_duration_20250327_1930.27" depart="76.00" departLane="133000063_0" departPos="96.78" departSpeed="0.00" departDelay="58.77" arrival="189.00" arrivalLane="380585336_1" arrivalPos="300.10" arrivalSpeed="16.34" duration="113.00" routeLength="1058.61" waitingTime="0.00" waitingCount="0" stopTime="0.00" timeLoss="48.71" rerouteNo="0" devices="tripinfo_flow_route_93_duration_20250327_1930.27" vType="car" speedFactor="1.00" vaporized=""/>
    <tripinfo id="flow_route_93_duration_20250327_1930.28" depart="77.00" departLane="133000063_0" departPos="50.02" departSpeed="0.00" departDelay="59.14" arrival="190.00" arrivalLane="380585336_1" arrivalPos="52.37" arrivalSpeed="14.59" duration="113.00" routeLength="857.65" waitingTime="0.00" waitingCount="0" stopTime="0.00" timeLoss="55.78" rerouteNo="0" devices="tripinfo_flow_route_93_duration_20250327_1930.28" vType="car" speedFactor="0.90" vaporized=""/>
    <tripinfo id="flow_route_92_duration_20250327_1930.5" depart="108.00" departLane="133000063_0" departPos="114.43" departSpeed="0.00" departDelay="84.93" arrival="193.00" arrivalLane="186409193_0" arrivalPos="38.48" arrivalSpeed="14.82" duration="85.00" routeLength="315.90" waitingTime="25.00" waitingCount="3" stopTime="0.00" timeLoss="64.11" rerouteNo="0" devices="tripinfo_flow_route_92_duration_20250327_1930.5" vType="car" speedFactor="0.96" vaporized=""/>
    <tripinfo id="flow_route_93_duration_20250327_1930.13" depart="32.00" departLane="133000063_0" departPos="5.96" departSpeed="0.00" departDelay="23.71" arrival="194.00" arrivalLane="380585336_1" arrivalPos="270.36" arrivalSpeed="15.07" duration="162.00" routeLength="1119.69" waitingTime="13.00" waitingCount="2" stopTime="0.00" timeLoss="89.79" rerouteNo="0" devices="tripinfo_flow_route_93_duration_20250327_1930.13" vType="car" speedFactor="0.93" vaporized=""/>
    <tripinfo id="flow_route_93_duration_20250327_1930.19" depart="44.00" departLane="133000063_0" departPos="4.59" departSpeed="0.00" departDelay="31.88" arrival="195.00" arrivalLane="380585336_1" arrivalPos="259.18" arrivalSpeed="15.74" duration="151.00" routeLength="1109.89" waitingTime="5.00" waitingCount="2" stopTime="0.00" timeLoss="83.52" rerouteNo="0" devices="tripinfo_flow_route_93_duration_20250327_1930.19" vType="car" speedFactor="1.03" vaporized=""/>
    <tripinfo id="flow_route_93_duration_20250327_1930.30" depart="83.00" departLane="133000063_0" departPos="58.36" departSpeed="0.00" departDelay="63.86" arrival="196.00" arrivalLane="380585336_2" arrivalPos="145.18" arrivalSpeed="16.35" duration="113.00" routeLength="942.11" waitingTime="0.00" waitingCount="0" stopTime="0.00" timeLoss="55.62" rerouteNo="0" devices="tripinfo_flow_route_93_duration_20250327_1930.30" vType="car" speedFactor="1.02" vaporized=""/>