<?xml version="1.0" encoding="UTF-8"?>

<!-- generated on 2025-05-06 21:08:47 by Eclipse SUMO sumo Version 1.20.0
<configuration xmlns:xsi="http://www.w3.org/2001/XMLSchema-instance" xsi:noNamespaceSchemaLocation="http://sumo.dlr.de/xsd/sumoConfiguration.xsd">

    <input>
        <net-file value="osm.net.xml"/>
        <route-files value="xml/route_static_J7_6.rou.xml"/>
    </input>

    <output>
        <tripinfo-output value="xml/tripinfo_static_J7_6.xml"/>
    </output>

    <traci_server>
        <remote-port value="51131"/>
    </traci_server>

</configuration>
-->

<tripinfos xmlns:xsi="http://www.w3.org/2001/XMLSchema-instance" xsi:noNamespaceSchemaLocation="http://sumo.dlr.de/xsd/tripinfo_file.xsd">
    <tripinfo id="flow_route_131_duration_20250327_2240.0" depart="0.00" departLane="714011134#0_0" departPos="6.35" departSpeed="0.00" departDelay="0.00" arrival="26.00" arrivalLane="134194079#0_1" arrivalPos="73.02" arrivalSpeed="14.32" duration="26.00" routeLength="232.63" waitingTime="0.00" waitingCount="0" stopTime="0.00" timeLoss="9.56" rerouteNo="0" devices="tripinfo_flow_route_131_duration_20250327_2240.0" vType="car" speedFactor="0.89" vaporized=""/>
    <tripinfo id="flow_route_127_duration_20250327_2240.0" depart="0.00" departLane="-138000461_0" departPos="55.90" departSpeed="0.00" departDelay="0.00" arrival="31.00" arrivalLane="189240000#0-AddedOnRampEdge_0" arrivalPos="70.17" arrivalSpeed="14.55" duration="31.00" routeLength="273.38" waitingTime="0.00" waitingCount="0" stopTime="0.00" timeLoss="13.71" rerouteNo="0" devices="tripinfo_flow_route_127_duration_20250327_2240.0" vType="car" speedFactor="1.05" vaporized=""/>
    <tripinfo id="flow_route_132_duration_20250327_2240.0" depart="0.00" departLane="714011134#0_0" departPos="92.28" departSpeed="0.00" departDelay="0.00" arrival="35.00" arrivalLane="189240000#0-AddedOnRampEdge_1" arrivalPos="51.48" arrivalSpeed="15.31" duration="35.00" routeLength="375.34" waitingTime="0.00" waitingCount="0" stopTime="0.00" timeLoss="10.03" rerouteNo="0" devices="tripinfo_flow_route_132_duration_20250327_2240.0" vType="car" speedFactor="0.94" vaporized=""/>
    <tripinfo id="flow_route_121_duration_20250327_2240.0" depart="1.00" departLane="799091563#0_0" departPos="259.58" departSpeed="0.00" departDelay="1.00" arrival="36.00" arrivalLane="134194079#0_0" arrivalPos="144.99" arrivalSpeed="16.47" duration="35.00" routeLength="274.57" waitingTime="0.00" waitingCount="0" stopTime="0.00" timeLoss="16.92" rerouteNo="0" devices="tripinfo_flow_route_121_duration_20250327_2240.0" vType="car" speedFactor="1.08" vaporized=""/>
    <tripinfo id="flow_route_121_duration_20250327_2240.1" depart="10.00" departLane="799091563#0_0" departPos="356.57" departSpeed="0.00" departDelay="0.00" arrival="36.00" arrivalLane="134194079#0_0" arrivalPos="186.89" arrivalSpeed="16.34" duration="26.00" routeLength="219.48" waitingTime="0.00" waitingCount="0" stopTime="0.00" timeLoss="11.25" rerouteNo="0" devices="tripinfo_flow_route_121_duration_20250327_2240.1" vType="car" speedFactor="1.03" vaporized=""/>
    <tripinfo id="flow_route_127_duration_20250327_2240.1" depart="9.00" departLane="-138000461_0" departPos="64.89" departSpeed="0.00" departDelay="0.43" arrival="37.00" arrivalLane="189240000#0-AddedOnRampEdge_0" arrivalPos="48.43" arrivalSpeed="12.65" duration="28.00" routeLength="242.65" waitingTime="0.00" waitingCount="0" stopTime="0.00" timeLoss="13.03" rerouteNo="0" devices="tripinfo_flow_route_127_duration_20250327_2240.1" vType="car" speedFactor="1.09" vaporized=""/>
    <tripinfo id="flow_route_116_duration_20250327_2240.0" depart="0.00" departLane="177211987#1_0" departPos="0.88" departSpeed="0.00" departDelay="0.00" arrival="38.00" arrivalLane="688883939#0_0" arrivalPos="93.94" arrivalSpeed="16.39" duration="38.00" routeLength="448.08" waitingTime="0.00" waitingCount="0" stopTime="0.00" timeLoss="10.63" rerouteNo="0" devices="tripinfo_flow_route_116_duration_20250327_2240.0" vType="car" speedFactor="1.06" vaporized=""/>
    <tripinfo id="flow_route_132_duration_20250327_2240.1" depart="12.00" departLane="714011134#0_0" departPos="93.55" departSpeed="0.00" departDelay="0.00" arrival="47.00" arrivalLane="189240000#0-AddedOnRampEdge_1" arrivalPos="77.82" arrivalSpeed="16.35" duration="35.00" routeLength="400.42" waitingTime="0.00" waitingCount="0" stopTime="0.00" timeLoss="10.72" rerouteNo="0" devices="tripinfo_flow_route_132_duration_20250327_2240.1" vType="car" speedFactor="1.05" vaporized=""/>
    <tripinfo id="flow_route_127_duration_20250327_2240.2" depart="19.00" departLane="-138000461_0" departPos="50.03" departSpeed="0.00" departDelay="1.86" arrival="47.00" arrivalLane="189240000#0-AddedOnRampEdge_0" arrivalPos="37.44" arrivalSpeed="13.03" duration="28.00" routeLength="246.53" waitingTime="0.00" waitingCount="0" stopTime="0.00" timeLoss="12.68" rerouteNo="0" devices="tripinfo_flow_route_127_duration_20250327_2240.2" vType="car" speedFactor="1.12" vaporized=""/>
    <tripinfo id="flow_route_126_duration_20250327_2240.0" depart="0.00" departLane="-138000461_0" departPos="119.67" departSpeed="0.00" departDelay="0.00" arrival="52.00" arrivalLane="138000492#0_1" arrivalPos="18.35" arrivalSpeed="13.45" duration="52.00" routeLength="582.25" waitingTime="0.00" waitingCount="0" stopTime="0.00" timeLoss="9.15" rerouteNo="0" devices="tripinfo_flow_route_126_duration_20250327_2240.0" vType="car" speedFactor="0.83" vaporized=""/>
    <tripinfo id="flow_route_133_duration_20250327_2240.0" depart="0.00" departLane="714011134#0_0" departPos="33.93" departSpeed="0.00" departDelay="0.00" arrival="59.00" arrivalLane="138000492#0_0" arrivalPos="313.58" arrivalSpeed="13.96" duration="59.00" routeLength="604.48" waitingTime="0.00" waitingCount="0" stopTime="0.00" timeLoss="15.68" rerouteNo="0" devices="tripinfo_flow_route_133_duration_20250327_2240.0" vType="car" speedFactor="0.86" vaporized=""/>
    <tripinfo id="flow_route_121_duration_20250327_2240.2" depart="20.00" departLane="799091563#0_0" departPos="114.59" departSpeed="0.00" departDelay="0.00" arrival="60.00" arrivalLane="134194079#0_0" arrivalPos="9.56" arrivalSpeed="6.10" duration="40.00" routeLength="284.14" waitingTime="4.00" waitingCount="1" stopTime="0.00" timeLoss="21.31" rerouteNo="0" devices="tripinfo_flow_route_121_duration_20250327_2240.2" vType="car" speedFactor="0.99" vaporized=""/>
    <tripinfo id="flow_route_117_duration_20250327_2240.0" depart="0.00" departLane="177211987#1_0" departPos="98.51" departSpeed="0.00" departDelay="0.00" arrival="62.00" arrivalLane="138000492#0_0" arrivalPos="299.85" arrivalSpeed="15.29" duration="62.00" routeLength="701.60" waitingTime="0.00" waitingCount="0" stopTime="0.00" timeLoss="16.78" rerouteNo="0" devices="tripinfo_flow_route_117_duration_20250327_2240.0" vType="car" speedFactor="0.94" vaporized=""/>
    <tripinfo id="flow_route_127_duration_20250327_2240.3" depart="26.00" departLane="-138000461_0" departPos="6.30" departSpeed="0.00" departDelay="0.29" arrival="63.00" arrivalLane="189240000#0-AddedOnRampEdge_0" arrivalPos="90.31" arrivalSpeed="14.02" duration="37.00" routeLength="343.12" waitingTime="0.00" waitingCount="0" stopTime="0.00" timeLoss="12.41" rerouteNo="0" devices="tripinfo_flow_route_127_duration_20250327_2240.3" vType="car" speedFactor="0.88" vaporized=""/>
    <tripinfo id="flow_route_132_duration_20250327_2240.2" depart="24.00" departLane="714011134#0_0" departPos="16.77" departSpeed="0.00" departDelay="0.00" arrival="64.00" arrivalLane="189240000#0-AddedOnRampEdge_1" arrivalPos="72.18" arrivalSpeed="15.28" duration="40.00" routeLength="471.55" waitingTime="0.00" waitingCount="0" stopTime="0.00" timeLoss="9.39" rerouteNo="0" devices="tripinfo_flow_route_132_duration_20250327_2240.2" vType="car" speedFactor="0.93" vaporized=""/>
    <tripinfo id="flow_route_127_duration_20250327_2240.4" depart="35.00" departLane="-138000461_0" departPos="26.50" departSpeed="0.00" departDelay="0.72" arrival="64.00" arrivalLane="189240000#0-AddedOnRampEdge_0" arrivalPos="12.21" arrivalSpeed="9.42" duration="29.00" routeLength="244.83" waitingTime="0.00" waitingCount="0" stopTime="0.00" timeLoss="12.28" rerouteNo="0" devices="tripinfo_flow_route_127_duration_20250327_2240.4" vType="car" speedFactor="0.94" vaporized=""/>
    <tripinfo id="flow_route_122_duration_20250327_2240.0" depart="1.00" departLane="799091563#0_0" departPos="17.54" departSpeed="0.00" departDelay="1.00" arrival="67.00" arrivalLane="688883939#0_2" arrivalPos="62.20" arrivalSpeed="13.30" duration="66.00" routeLength="483.30" waitingTime="13.00" waitingCount="1" stopTime="0.00" timeLoss="36.81" rerouteNo="0" devices="tripinfo_flow_route_122_duration_20250327_2240.0" vType="car" speedFactor="1.03" vaporized=""/>
    <tripinfo id="flow_route_120_duration_20250327_2240.0" depart="0.00" departLane="799091563#0_0" departPos="177.01" departSpeed="0.00" departDelay="0.00" arrival="78.00" arrivalLane="138000492#0_1" arrivalPos="19.14" arrivalSpeed="11.47" duration="78.00" routeLength="440.29" waitingTime="26.00" waitingCount="1" stopTime="0.00" timeLoss="51.42" rerouteNo="0" devices="tripinfo_flow_route_120_duration_20250327_2240.0" vType="car" speedFactor="1.01" vaporized=""/>
    <tripinfo id="flow_route_121_duration_20250327_2240.5" depart="50.00" departLane="799091563#0_0" departPos="355.06" departSpeed="0.00" departDelay="0.00" arrival="79.00" arrivalLane="134194079#0_0" arrivalPos="204.04" arrivalSpeed="14.43" duration="29.00" routeLength="238.14" waitingTime="0.00" waitingCount="0" stopTime="0.00" timeLoss="11.48" rerouteNo="0" devices="tripinfo_flow_route_121_duration_20250327_2240.5" vType="car" speedFactor="0.89" vaporized=""/>
    <tripinfo id="flow_route_121_duration_20250327_2240.4" depart="40.00" departLane="799091563#0_0" departPos="63.77" departSpeed="0.00" departDelay="0.00" arrival="81.00" arrivalLane="134194079#0_0" arrivalPos="65.83" arrivalSpeed="11.37" duration="41.00" routeLength="391.21" waitingTime="0.00" waitingCount="0" stopTime="0.00" timeLoss="16.40" rerouteNo="0" devices="tripinfo_flow_route_121_duration_20250327_2240.4" vType="car" speedFactor="1.02" vaporized=""/>
    <tripinfo id="flow_route_121_duration_20250327_2240.3" depart="30.00" departLane="799091563#0_0" departPos="125.80" departSpeed="0.00" departDelay="0.00" arrival="82.00" arrivalLane="134194079#0_0" arrivalPos="202.11" arrivalSpeed="15.20" duration="52.00" routeLength="465.47" waitingTime="0.00" waitingCount="0" stopTime="0.00" timeLoss="20.74" rerouteNo="0" devices="tripinfo_flow_route_121_duration_20250327_2240.3" vType="car" speedFactor="0.94" vaporized=""/>
    <tripinfo id="flow_route_127_duration_20250327_2240.5" depart="45.00" departLane="-138000461_0" departPos="18.81" departSpeed="0.00" departDelay="2.15" arrival="85.00" arrivalLane="189240000#0-AddedOnRampEdge_0" arrivalPos="53.97" arrivalSpeed="11.67" duration="40.00" routeLength="294.26" waitingTime="0.00" waitingCount="0" stopTime="0.00" timeLoss="21.73" rerouteNo="0" devices="tripinfo_flow_route_127_duration_20250327_2240.5" vType="car" speedFactor="1.01" vaporized=""/>
    <tripinfo id="flow_route_127_duration_20250327_2240.6" depart="52.00" departLane="-138000461_0" departPos="65.04" departSpeed="0.00" departDelay="0.57" arrival="86.00" arrivalLane="189240000#0-AddedOnRampEdge_0" arrivalPos="90.63" arrivalSpeed="13.15" duration="34.00" routeLength="284.69" waitingTime="0.00" waitingCount="0" stopTime="0.00" timeLoss="13.33" rerouteNo="0" devices="tripinfo_flow_route_127_duration_20250327_2240.6" vType="car" speedFactor="0.83" vaporized=""/>
    <tripinfo id="flow_route_132_duration_20250327_2240.3" depart="37.00" departLane="714011134#0_0" departPos="27.83" departSpeed="0.00" departDelay="1.00" arrival="157.00" arrivalLane="189240000#0-AddedOnRampEdge_1" arrivalPos="38.84" arrivalSpeed="16.19" duration="120.00" routeLength="427.14" waitingTime="72.00" waitingCount="1" stopTime="0.00" timeLoss="94.01" rerouteNo="0" devices="tripinfo_flow_route_132_duration_20250327_2240.3" vType="car" speedFactor="1.16" vaporized=""/>
    <tripinfo id="flow_route_132_duration_20250327_2240.4" depart="49.00" departLane="714011134#0_0" departPos="62.84" departSpeed="0.00" departDelay="1.00" arrival="161.00" arrivalLane="189240000#0-AddedOnRampEdge_1" arrivalPos="63.08" arrivalSpeed="16.14" duration="112.00" routeLength="416.38" waitingTime="65.00" waitingCount="1" stopTime="0.00" timeLoss="85.61" rerouteNo="0" devices="tripinfo_flow_route_132_duration_20250327_2240.4" vType="car" speedFactor="0.97" vaporized=""/>
</tripinfos>
