<?xml version="1.0" encoding="UTF-8"?>

<!-- generated on 2025-05-06 21:08:57 by Eclipse SUMO sumo Version 1.20.0
<configuration xmlns:xsi="http://www.w3.org/2001/XMLSchema-instance" xsi:noNamespaceSchemaLocation="http://sumo.dlr.de/xsd/sumoConfiguration.xsd">

    <input>
        <net-file value="osm.net.xml"/>
        <route-files value="xml/route_static_632031937_7.rou.xml"/>
    </input>

    <output>
        <tripinfo-output value="xml/tripinfo_static_632031937_7.xml"/>
    </output>

    <traci_server>
        <remote-port value="39409"/>
    </traci_server>

</configuration>
-->

<tripinfos xmlns:xsi="http://www.w3.org/2001/XMLSchema-instance" xsi:noNamespaceSchemaLocation="http://sumo.dlr.de/xsd/tripinfo_file.xsd">
    <tripinfo id="flow_route_66_duration_20250327_1920.0" depart="0.00" departLane="-138002002#2_0" departPos="85.87" departSpeed="0.00" departDelay="0.00" arrival="19.00" arrivalLane="-138002006#3_1" arrivalPos="3.87" arrivalSpeed="12.89" duration="19.00" routeLength="121.39" waitingTime="0.00" waitingCount="0" stopTime="0.00" timeLoss="9.96" rerouteNo="0" devices="tripinfo_flow_route_66_duration_20250327_1920.0" vType="car" speedFactor="0.83" vaporized=""/>
    <tripinfo id="flow_route_66_duration_20250327_1920.1" depart="5.00" departLane="-138002002#2_0" departPos="163.51" departSpeed="0.00" departDelay="0.72" arrival="19.00" arrivalLane="-138002006#3_0" arrivalPos="27.26" arrivalSpeed="10.21" duration="14.00" routeLength="67.14" waitingTime="0.00" waitingCount="0" stopTime="0.00" timeLoss="9.44" rerouteNo="0" devices="tripinfo_flow_route_66_duration_20250327_1920.1" vType="car" speedFactor="1.03" vaporized=""/>
    <tripinfo id="flow_route_53_duration_20250327_1920.0" depart="0.00" departLane="138002006#0_0" departPos="48.40" departSpeed="0.00" departDelay="0.00" arrival="23.00" arrivalLane="1369578052#0_1" arrivalPos="131.33" arrivalSpeed="15.27" duration="23.00" routeLength="190.85" waitingTime="0.00" waitingCount="0" stopTime="0.00" timeLoss="9.93" rerouteNo="0" devices="tripinfo_flow_route_53_duration_20250327_1920.0" vType="car" speedFactor="0.94" vaporized=""/>
    <tripinfo id="flow_route_53_duration_20250327_1920.5" depart="11.00" departLane="138002006#0_0" departPos="83.00" departSpeed="0.00" departDelay="1.91" arrival="24.00" arrivalLane="1369578052#0_0" arrivalPos="48.68" arrivalSpeed="10.58" duration="13.00" routeLength="73.59" waitingTime="0.00" waitingCount="0" stopTime="0.00" timeLoss="8.43" rerouteNo="0" devices="tripinfo_flow_route_53_duration_20250327_1920.5" vType="car" speedFactor="1.16" vaporized=""/>
    <tripinfo id="flow_route_53_duration_20250327_1920.2" depart="5.00" departLane="138002006#0_0" departPos="83.36" departSpeed="0.00" departDelay="1.36" arrival="25.00" arrivalLane="1369578052#0_0" arrivalPos="126.01" arrivalSpeed="13.80" duration="20.00" routeLength="150.57" waitingTime="0.00" waitingCount="0" stopTime="0.00" timeLoss="9.37" rerouteNo="0" devices="tripinfo_flow_route_53_duration_20250327_1920.2" vType="car" speedFactor="0.86" vaporized=""/>
    <tripinfo id="flow_route_53_duration_20250327_1920.4" depart="10.00" departLane="138002006#0_0" departPos="50.74" departSpeed="0.00" departDelay="2.73" arrival="27.00" arrivalLane="1369578052#0_0" arrivalPos="55.62" arrivalSpeed="13.93" duration="17.00" routeLength="112.80" waitingTime="0.00" waitingCount="0" stopTime="0.00" timeLoss="9.55" rerouteNo="0" devices="tripinfo_flow_route_53_duration_20250327_1920.4" vType="car" speedFactor="0.99" vaporized=""/>
    <tripinfo id="flow_route_66_duration_20250327_1920.2" depart="10.00" departLane="-138002002#2_0" departPos="149.52" departSpeed="0.00" departDelay="1.43" arrival="28.00" arrivalLane="-138002006#3_1" arrivalPos="60.82" arrivalSpeed="13.32" duration="18.00" routeLength="114.69" waitingTime="0.00" waitingCount="0" stopTime="0.00" timeLoss="10.62" rerouteNo="0" devices="tripinfo_flow_route_66_duration_20250327_1920.2" vType="car" speedFactor="0.94" vaporized=""/>
    <tripinfo id="flow_route_53_duration_20250327_1920.6" depart="11.00" departLane="138002006#0_0" departPos="27.32" departSpeed="0.00" departDelay="0.09" arrival="33.00" arrivalLane="1369578052#0_0" arrivalPos="109.90" arrivalSpeed="16.03" duration="22.00" routeLength="190.50" waitingTime="0.00" waitingCount="0" stopTime="0.00" timeLoss="9.63" rerouteNo="0" devices="tripinfo_flow_route_53_duration_20250327_1920.6" vType="car" speedFactor="0.97" vaporized=""/>
    <tripinfo id="flow_route_67_duration_20250327_1920.3" depart="14.00" departLane="-138002002#2_0" departPos="170.97" departSpeed="0.00" departDelay="0.16" arrival="37.00" arrivalLane="380351865#0_0" arrivalPos="4.76" arrivalSpeed="9.98" duration="23.00" routeLength="166.84" waitingTime="0.00" waitingCount="0" stopTime="0.00" timeLoss="6.20" rerouteNo="0" devices="tripinfo_flow_route_67_duration_20250327_1920.3" vType="car" speedFactor="0.92" vaporized=""/>
    <tripinfo id="flow_route_53_duration_20250327_1920.1" depart="2.00" departLane="138002006#0_0" departPos="5.35" departSpeed="0.00" departDelay="0.18" arrival="38.00" arrivalLane="1369578052#0_0" arrivalPos="48.76" arrivalSpeed="11.02" duration="36.00" routeLength="151.33" waitingTime="1.00" waitingCount="1" stopTime="0.00" timeLoss="25.19" rerouteNo="0" devices="tripinfo_flow_route_53_duration_20250327_1920.1" vType="car" speedFactor="0.89" vaporized=""/>
    <tripinfo id="flow_route_53_duration_20250327_1920.3" depart="6.00" departLane="138002006#0_0" departPos="2.88" departSpeed="0.00" departDelay="0.55" arrival="44.00" arrivalLane="1369578052#0_1" arrivalPos="100.33" arrivalSpeed="13.61" duration="38.00" routeLength="205.38" waitingTime="0.00" waitingCount="0" stopTime="0.00" timeLoss="25.51" rerouteNo="0" devices="tripinfo_flow_route_53_duration_20250327_1920.3" vType="car" speedFactor="1.12" vaporized=""/>
    <tripinfo id="flow_route_52_duration_20250327_1920.0" depart="0.00" departLane="138002006#0_0" departPos="21.97" departSpeed="0.00" departDelay="0.00" arrival="45.00" arrivalLane="380351865#0_1" arrivalPos="15.21" arrivalSpeed="11.62" duration="45.00" routeLength="234.80" waitingTime="8.00" waitingCount="1" stopTime="0.00" timeLoss="25.78" rerouteNo="0" devices="tripinfo_flow_route_52_duration_20250327_1920.0" vType="car" speedFactor="1.06" vaporized=""/>
    <tripinfo id="flow_route_58_duration_20250327_1920.0" depart="0.00" departLane="186407685_0" departPos="1.07" departSpeed="0.00" departDelay="0.00" arrival="48.00" arrivalLane="-138002006#3_1" arrivalPos="43.63" arrivalSpeed="9.96" duration="48.00" routeLength="235.82" waitingTime="12.00" waitingCount="1" stopTime="0.00" timeLoss="32.90" rerouteNo="0" devices="tripinfo_flow_route_58_duration_20250327_1920.0" vType="car" speedFactor="1.08" vaporized=""/>
    <tripinfo id="flow_route_52_duration_20250327_1920.1" depart="11.00" departLane="138002006#0_0" departPos="61.39" departSpeed="0.00" departDelay="1.00" arrival="49.00" arrivalLane="380351865#0_1" arrivalPos="16.46" arrivalSpeed="10.40" duration="38.00" routeLength="196.63" waitingTime="4.00" waitingCount="1" stopTime="0.00" timeLoss="18.39" rerouteNo="0" devices="tripinfo_flow_route_52_duration_20250327_1920.1" vType="car" speedFactor="0.94" vaporized=""/>
    <tripinfo id="flow_route_59_duration_20250327_1920.4" depart="10.00" departLane="186407685_0" departPos="118.31" departSpeed="0.00" departDelay="0.40" arrival="52.00" arrivalLane="1369578052#0_0" arrivalPos="41.13" arrivalSpeed="10.23" duration="42.00" routeLength="108.93" waitingTime="17.00" waitingCount="1" stopTime="0.00" timeLoss="34.38" rerouteNo="0" devices="tripinfo_flow_route_59_duration_20250327_1920.4" vType="car" speedFactor="1.02" vaporized=""/>
    <tripinfo id="flow_route_59_duration_20250327_1920.0" depart="0.00" departLane="186407685_0" departPos="119.17" departSpeed="0.00" departDelay="0.00" arrival="55.00" arrivalLane="1369578052#0_0" arrivalPos="108.75" arrivalSpeed="13.42" duration="55.00" routeLength="175.69" waitingTime="23.00" waitingCount="1" stopTime="0.00" timeLoss="43.38" rerouteNo="0" devices="tripinfo_flow_route_59_duration_20250327_1920.0" vType="car" speedFactor="1.03" vaporized=""/>
    <tripinfo id="flow_route_57_duration_20250327_1920.0" depart="0.00" departLane="186407685_0" departPos="131.94" departSpeed="0.00" departDelay="0.00" arrival="58.00" arrivalLane="380351865#0_0" arrivalPos="0.78" arrivalSpeed="10.85" duration="58.00" routeLength="205.45" waitingTime="25.00" waitingCount="1" stopTime="0.00" timeLoss="40.62" rerouteNo="0" devices="tripinfo_flow_route_57_duration_20250327_1920.0" vType="car" speedFactor="1.01" vaporized=""/>
    <tripinfo id="flow_route_58_duration_20250327_1920.1" depart="38.00" departLane="186407685_0" departPos="40.01" departSpeed="0.00" departDelay="8.00" arrival="58.00" arrivalLane="-138002006#3_1" arrivalPos="1.30" arrivalSpeed="9.44" duration="20.00" routeLength="154.54" waitingTime="0.00" waitingCount="0" stopTime="0.00" timeLoss="10.25" rerouteNo="0" devices="tripinfo_flow_route_58_duration_20250327_1920.1" vType="car" speedFactor="1.10" vaporized=""/>
    <tripinfo id="flow_route_57_duration_20250327_1920.1" depart="10.00" departLane="186407685_0" departPos="42.74" departSpeed="0.00" departDelay="1.43" arrival="59.00" arrivalLane="380351865#0_1" arrivalPos="0.51" arrivalSpeed="9.57" duration="49.00" routeLength="294.38" waitingTime="4.00" waitingCount="1" stopTime="0.00" timeLoss="25.02" rerouteNo="0" devices="tripinfo_flow_route_57_duration_20250327_1920.1" vType="car" speedFactor="0.88" vaporized=""/>
    <tripinfo id="flow_route_57_duration_20250327_1920.2" depart="21.00" departLane="186407685_0" departPos="53.61" departSpeed="0.00" departDelay="3.86" arrival="61.00" arrivalLane="380351865#0_1" arrivalPos="1.37" arrivalSpeed="11.28" duration="40.00" routeLength="284.37" waitingTime="0.00" waitingCount="0" stopTime="0.00" timeLoss="19.98" rerouteNo="0" devices="tripinfo_flow_route_57_duration_20250327_1920.2" vType="car" speedFactor="1.15" vaporized=""/>
    <tripinfo id="flow_route_59_duration_20250327_1920.5" depart="14.00" departLane="186407685_0" departPos="96.82" departSpeed="0.00" departDelay="2.00" arrival="63.00" arrivalLane="1369578052#0_0" arrivalPos="90.80" arrivalSpeed="12.52" duration="49.00" routeLength="180.09" waitingTime="13.00" waitingCount="1" stopTime="0.00" timeLoss="35.48" rerouteNo="0" devices="tripinfo_flow_route_59_duration_20250327_1920.5" vType="car" speedFactor="0.89" vaporized=""/>
    <tripinfo id="flow_route_59_duration_20250327_1920.1" depart="3.00" departLane="186407685_0" departPos="57.01" departSpeed="0.00" departDelay="0.60" arrival="64.00" arrivalLane="1369578052#0_0" arrivalPos="161.40" arrivalSpeed="15.14" duration="61.00" routeLength="290.50" waitingTime="16.00" waitingCount="1" stopTime="0.00" timeLoss="41.74" rerouteNo="0" devices="tripinfo_flow_route_59_duration_20250327_1920.1" vType="car" speedFactor="0.94" vaporized=""/>
    <tripinfo id="flow_route_59_duration_20250327_1920.2" depart="6.00" departLane="186407685_0" departPos="41.92" departSpeed="0.00" departDelay="1.20" arrival="65.00" arrivalLane="1369578052#0_0" arrivalPos="94.56" arrivalSpeed="12.53" duration="59.00" routeLength="238.75" waitingTime="12.00" waitingCount="1" stopTime="0.00" timeLoss="43.58" rerouteNo="0" devices="tripinfo_flow_route_59_duration_20250327_1920.2" vType="car" speedFactor="1.09" vaporized=""/>
    <tripinfo id="flow_route_57_duration_20250327_1920.3" depart="34.00" departLane="186407685_0" departPos="69.67" departSpeed="0.00" departDelay="8.29" arrival="66.00" arrivalLane="380351865#0_1" arrivalPos="15.06" arrivalSpeed="11.83" duration="32.00" routeLength="281.99" waitingTime="0.00" waitingCount="0" stopTime="0.00" timeLoss="10.67" rerouteNo="0" devices="tripinfo_flow_route_57_duration_20250327_1920.3" vType="car" speedFactor="1.09" vaporized=""/>
    <tripinfo id="flow_route_59_duration_20250327_1920.8" depart="26.00" departLane="186407685_0" departPos="85.00" departSpeed="0.00" departDelay="6.80" arrival="67.00" arrivalLane="1369578052#0_0" arrivalPos="76.90" arrivalSpeed="12.52" duration="41.00" routeLength="178.01" waitingTime="8.00" waitingCount="1" stopTime="0.00" timeLoss="29.71" rerouteNo="0" devices="tripinfo_flow_route_59_duration_20250327_1920.8" vType="car" speedFactor="1.18" vaporized=""/>
    <tripinfo id="flow_route_59_duration_20250327_1920.3" depart="9.00" departLane="186407685_0" departPos="22.91" departSpeed="0.00" departDelay="1.80" arrival="70.00" arrivalLane="1369578052#0_0" arrivalPos="140.92" arrivalSpeed="15.29" duration="61.00" routeLength="304.12" waitingTime="13.00" waitingCount="1" stopTime="0.00" timeLoss="40.45" rerouteNo="0" devices="tripinfo_flow_route_59_duration_20250327_1920.3" vType="car" speedFactor="0.93" vaporized=""/>
    <tripinfo id="flow_route_53_duration_20250327_1920.8" depart="16.00" departLane="138002006#0_0" departPos="30.09" departSpeed="0.00" departDelay="1.46" arrival="71.00" arrivalLane="1369578052#0_0" arrivalPos="12.35" arrivalSpeed="7.39" duration="55.00" routeLength="90.17" waitingTime="28.00" waitingCount="1" stopTime="0.00" timeLoss="49.01" rerouteNo="0" devices="tripinfo_flow_route_53_duration_20250327_1920.8" vType="car" speedFactor="0.95" vaporized=""/>
    <tripinfo id="flow_route_66_duration_20250327_1920.3" depart="13.00" departLane="-138002002#2_0" departPos="5.13" departSpeed="0.00" departDelay="0.15" arrival="72.00" arrivalLane="-138002006#3_0" arrivalPos="16.28" arrivalSpeed="7.76" duration="59.00" routeLength="214.54" waitingTime="25.00" waitingCount="1" stopTime="0.00" timeLoss="43.98" rerouteNo="0" devices="tripinfo_flow_route_66_duration_20250327_1920.3" vType="car" speedFactor="0.87" vaporized=""/>
    <tripinfo id="flow_route_66_duration_20250327_1920.4" depart="18.00" departLane="-138002002#2_0" departPos="39.12" departSpeed="0.00" departDelay="0.86" arrival="79.00" arrivalLane="-138002006#3_1" arrivalPos="64.09" arrivalSpeed="11.93" duration="61.00" routeLength="228.36" waitingTime="24.00" waitingCount="1" stopTime="0.00" timeLoss="46.91" rerouteNo="0" devices="tripinfo_flow_route_66_duration_20250327_1920.4" vType="car" speedFactor="1.01" vaporized=""/>
    <tripinfo id="flow_route_66_duration_20250327_1920.5" depart="23.00" departLane="-138002002#2_0" departPos="75.72" departSpeed="0.00" departDelay="1.58" arrival="79.00" arrivalLane="-138002006#3_1" arrivalPos="43.74" arrivalSpeed="10.99" duration="56.00" routeLength="171.41" waitingTime="21.00" waitingCount="1" stopTime="0.00" timeLoss="45.60" rerouteNo="0" devices="tripinfo_flow_route_66_duration_20250327_1920.5" vType="car" speedFactor="1.03" vaporized=""/>
    <tripinfo id="flow_route_66_duration_20250327_1920.6" depart="29.00" departLane="-138002002#2_0" departPos="118.10" departSpeed="0.00" departDelay="3.29" arrival="80.00" arrivalLane="-138002006#3_1" arrivalPos="32.99" arrivalSpeed="10.15" duration="51.00" routeLength="118.28" waitingTime="15.00" waitingCount="1" stopTime="0.00" timeLoss="43.87" rerouteNo="0" devices="tripinfo_flow_route_66_duration_20250327_1920.6" vType="car" speedFactor="1.00" vaporized=""/>
    <tripinfo id="flow_route_53_duration_20250327_1920.13" depart="31.00" departLane="138002006#0_0" departPos="30.70" departSpeed="0.00" departDelay="7.37" arrival="83.00" arrivalLane="1369578052#0_0" arrivalPos="63.20" arrivalSpeed="12.18" duration="52.00" routeLength="140.42" waitingTime="23.00" waitingCount="1" stopTime="0.00" timeLoss="43.07" rerouteNo="0" devices="tripinfo_flow_route_53_duration_20250327_1920.13" vType="car" speedFactor="0.96" vaporized=""/>
    <tripinfo id="flow_route_67_duration_20250327_1920.0" depart="1.00" departLane="-138002002#2_0" departPos="104.31" departSpeed="0.00" departDelay="1.00" arrival="84.00" arrivalLane="380351865#0_0" arrivalPos="12.69" arrivalSpeed="11.37" duration="83.00" routeLength="241.42" waitingTime="38.00" waitingCount="1" stopTime="0.00" timeLoss="63.29" rerouteNo="0" devices="tripinfo_flow_route_67_duration_20250327_1920.0" vType="car" speedFactor="1.05" vaporized=""/>
    <tripinfo id="flow_route_53_duration_20250327_1920.10" depart="22.00" departLane="138002006#0_0" departPos="37.74" departSpeed="0.00" departDelay="3.82" arrival="84.00" arrivalLane="1369578052#0_0" arrivalPos="125.10" arrivalSpeed="15.41" duration="62.00" routeLength="195.28" waitingTime="27.00" waitingCount="1" stopTime="0.00" timeLoss="49.36" rerouteNo="0" devices="tripinfo_flow_route_53_duration_20250327_1920.10" vType="car" speedFactor="1.17" vaporized=""/>
    <tripinfo id="flow_route_66_duration_20250327_1920.9" depart="41.00" departLane="-138002002#2_0" departPos="122.70" departSpeed="0.00" departDelay="2.44" arrival="84.00" arrivalLane="-138002006#3_1" arrivalPos="22.24" arrivalSpeed="10.60" duration="43.00" routeLength="102.93" waitingTime="14.00" waitingCount="1" stopTime="0.00" timeLoss="36.64" rerouteNo="0" devices="tripinfo_flow_route_66_duration_20250327_1920.9" vType="car" speedFactor="1.04" vaporized=""/>
    <tripinfo id="flow_route_67_duration_20250327_1920.2" depart="12.00" departLane="-138002002#2_0" departPos="106.85" departSpeed="0.00" departDelay="2.77" arrival="85.00" arrivalLane="380351865#0_0" arrivalPos="2.87" arrivalSpeed="11.01" duration="73.00" routeLength="229.06" waitingTime="36.00" waitingCount="1" stopTime="0.00" timeLoss="54.18" rerouteNo="0" devices="tripinfo_flow_route_67_duration_20250327_1920.2" vType="car" speedFactor="1.01" vaporized=""/>
    <tripinfo id="flow_route_53_duration_20250327_1920.11" depart="25.00" departLane="138002006#0_0" departPos="24.96" departSpeed="0.00" departDelay="5.00" arrival="85.00" arrivalLane="1369578052#0_0" arrivalPos="107.84" arrivalSpeed="14.07" duration="60.00" routeLength="190.79" waitingTime="27.00" waitingCount="1" stopTime="0.00" timeLoss="47.73" rerouteNo="0" devices="tripinfo_flow_route_53_duration_20250327_1920.11" vType="car" speedFactor="0.97" vaporized=""/>
    <tripinfo id="flow_route_53_duration_20250327_1920.14" depart="36.00" departLane="138002006#0_0" departPos="13.61" departSpeed="0.00" departDelay="10.55" arrival="85.00" arrivalLane="1369578052#0_0" arrivalPos="26.02" arrivalSpeed="11.28" duration="49.00" routeLength="120.33" waitingTime="19.00" waitingCount="1" stopTime="0.00" timeLoss="41.14" rerouteNo="0" devices="tripinfo_flow_route_53_duration_20250327_1920.14" vType="car" speedFactor="1.04" vaporized=""/>
    <tripinfo id="flow_route_66_duration_20250327_1920.11" depart="50.00" departLane="-138002002#2_0" departPos="93.38" departSpeed="0.00" departDelay="2.87" arrival="86.00" arrivalLane="-138002006#3_1" arrivalPos="1.18" arrivalSpeed="10.17" duration="36.00" routeLength="111.19" waitingTime="7.00" waitingCount="1" stopTime="0.00" timeLoss="28.73" rerouteNo="0" devices="tripinfo_flow_route_66_duration_20250327_1920.11" vType="car" speedFactor="0.97" vaporized=""/>
    <tripinfo id="flow_route_53_duration_20250327_1920.15" depart="36.00" departLane="138002006#0_0" departPos="28.71" departSpeed="0.00" departDelay="8.73" arrival="87.00" arrivalLane="1369578052#0_0" arrivalPos="79.42" arrivalSpeed="13.71" duration="51.00" routeLength="158.63" waitingTime="20.00" waitingCount="1" stopTime="0.00" timeLoss="39.55" rerouteNo="0" devices="tripinfo_flow_route_53_duration_20250327_1920.15" vType="car" speedFactor="0.88" vaporized=""/>
    <tripinfo id="flow_route_66_duration_20250327_1920.7" depart="31.00" departLane="-138002002#2_0" departPos="62.42" departSpeed="0.00" departDelay="1.01" arrival="87.00" arrivalLane="-138002006#3_1" arrivalPos="87.09" arrivalSpeed="14.49" duration="56.00" routeLength="228.06" waitingTime="15.00" waitingCount="1" stopTime="0.00" timeLoss="41.79" rerouteNo="0" devices="tripinfo_flow_route_66_duration_20250327_1920.7" vType="car" speedFactor="1.00" vaporized=""/>
    <tripinfo id="flow_route_67_duration_20250327_1920.1" depart="5.00" departLane="-138002002#2_0" departPos="73.05" departSpeed="0.00" departDelay="0.39" arrival="88.00" arrivalLane="380351865#0_0" arrivalPos="10.81" arrivalSpeed="11.59" duration="83.00" routeLength="270.81" waitingTime="35.00" waitingCount="1" stopTime="0.00" timeLoss="61.30" rerouteNo="0" devices="tripinfo_flow_route_67_duration_20250327_1920.1" vType="car" speedFactor="1.05" vaporized=""/>
    <tripinfo id="flow_route_66_duration_20250327_1920.8" depart="35.00" departLane="-138002002#2_0" departPos="61.31" departSpeed="0.00" departDelay="0.72" arrival="90.00" arrivalLane="-138002006#3_1" arrivalPos="69.61" arrivalSpeed="14.41" duration="55.00" routeLength="211.69" waitingTime="14.00" waitingCount="1" stopTime="0.00" timeLoss="41.61" rerouteNo="0" devices="tripinfo_flow_route_66_duration_20250327_1920.8" vType="car" speedFactor="1.02" vaporized=""/>
    <tripinfo id="flow_route_67_duration_20250327_1920.6" depart="29.00" departLane="-138002002#2_0" departPos="151.25" departSpeed="0.00" departDelay="1.31" arrival="91.00" arrivalLane="380351865#0_0" arrivalPos="10.06" arrivalSpeed="8.98" duration="62.00" routeLength="191.85" waitingTime="30.00" waitingCount="1" stopTime="0.00" timeLoss="42.14" rerouteNo="0" devices="tripinfo_flow_route_67_duration_20250327_1920.6" vType="car" speedFactor="0.85" vaporized=""/>
    <tripinfo id="flow_route_53_duration_20250327_1920.19" depart="51.00" departLane="138002006#0_0" departPos="42.52" departSpeed="0.00" departDelay="16.46" arrival="91.00" arrivalLane="1369578052#0_0" arrivalPos="89.85" arrivalSpeed="14.22" duration="40.00" routeLength="155.25" waitingTime="16.00" waitingCount="1" stopTime="0.00" timeLoss="30.56" rerouteNo="0" devices="tripinfo_flow_route_53_duration_20250327_1920.19" vType="car" speedFactor="1.08" vaporized=""/>
    <tripinfo id="flow_route_67_duration_20250327_1920.5" depart="25.00" departLane="-138002002#2_0" departPos="131.39" departSpeed="0.00" departDelay="1.93" arrival="92.00" arrivalLane="380351865#0_0" arrivalPos="1.73" arrivalSpeed="9.91" duration="67.00" routeLength="203.39" waitingTime="30.00" waitingCount="1" stopTime="0.00" timeLoss="50.33" rerouteNo="0" devices="tripinfo_flow_route_67_duration_20250327_1920.5" vType="car" speedFactor="1.04" vaporized=""/>
    <tripinfo id="flow_route_53_duration_20250327_1920.20" depart="51.00" departLane="138002006#0_0" departPos="34.17" departSpeed="0.00" departDelay="14.64" arrival="92.00" arrivalLane="1369578052#0_0" arrivalPos="67.56" arrivalSpeed="14.34" duration="41.00" routeLength="141.31" waitingTime="16.00" waitingCount="1" stopTime="0.00" timeLoss="31.35" rerouteNo="0" devices="tripinfo_flow_route_53_duration_20250327_1920.20" vType="car" speedFactor="0.94" vaporized=""/>
    <tripinfo id="flow_route_53_duration_20250327_1920.22" depart="74.00" departLane="138002006#0_0" departPos="9.99" departSpeed="0.00" departDelay="34.00" arrival="93.00" arrivalLane="1369578052#0_0" arrivalPos="40.67" arrivalSpeed="13.79" duration="19.00" routeLength="138.60" waitingTime="0.00" waitingCount="0" stopTime="0.00" timeLoss="10.53" rerouteNo="0" devices="tripinfo_flow_route_53_duration_20250327_1920.22" vType="car" speedFactor="1.02" vaporized=""/>
    <tripinfo id="flow_route_67_duration_20250327_1920.4" depart="19.00" departLane="-138002002#2_0" departPos="94.47" departSpeed="0.00" departDelay="0.54" arrival="95.00" arrivalLane="380351865#0_0" arrivalPos="7.22" arrivalSpeed="10.97" duration="76.00" routeLength="245.81" waitingTime="29.00" waitingCount="1" stopTime="0.00" timeLoss="54.97" rerouteNo="0" devices="tripinfo_flow_route_67_duration_20250327_1920.4" vType="car" speedFactor="0.99" vaporized=""/>
    <tripinfo id="flow_route_67_duration_20250327_1920.8" depart="41.00" departLane="-138002002#2_0" departPos="136.51" departSpeed="0.00" departDelay="4.08" arrival="99.00" arrivalLane="380351865#0_0" arrivalPos="13.69" arrivalSpeed="9.34" duration="58.00" routeLength="210.22" waitingTime="24.00" waitingCount="1" stopTime="0.00" timeLoss="37.03" rerouteNo="0" devices="tripinfo_flow_route_67_duration_20250327_1920.8" vType="car" speedFactor="0.88" vaporized=""/>
    <tripinfo id="flow_route_67_duration_20250327_1920.7" depart="33.00" departLane="-138002002#2_0" departPos="21.06" departSpeed="0.00" departDelay="0.70" arrival="100.00" arrivalLane="380351865#0_0" arrivalPos="8.30" arrivalSpeed="10.15" duration="67.00" routeLength="320.29" waitingTime="16.00" waitingCount="1" stopTime="0.00" timeLoss="42.48" rerouteNo="0" devices="tripinfo_flow_route_67_duration_20250327_1920.7" vType="car" speedFactor="1.02" vaporized=""/>
    <tripinfo id="flow_route_53_duration_20250327_1920.21" depart="63.00" departLane="138002006#0_0" departPos="6.96" departSpeed="0.00" departDelay="24.82" arrival="100.00" arrivalLane="1369578052#0_0" arrivalPos="169.50" arrivalSpeed="15.11" duration="37.00" routeLength="270.46" waitingTime="0.00" waitingCount="0" stopTime="0.00" timeLoss="18.97" rerouteNo="0" devices="tripinfo_flow_route_53_duration_20250327_1920.21" vType="car" speedFactor="0.91" vaporized=""/>
    <tripinfo id="flow_route_52_duration_20250327_1920.2" depart="22.00" departLane="138002006#0_0" departPos="63.09" departSpeed="0.00" departDelay="2.00" arrival="108.00" arrivalLane="380351865#0_1" arrivalPos="14.09" arrivalSpeed="11.21" duration="86.00" routeLength="192.56" waitingTime="50.00" waitingCount="3" stopTime="0.00" timeLoss="68.59" rerouteNo="0" devices="tripinfo_flow_route_52_duration_20250327_1920.2" vType="car" speedFactor="1.02" vaporized=""/>
    <tripinfo id="flow_route_53_duration_20250327_1920.9" depart="21.00" departLane="138002006#0_0" departPos="2.12" departSpeed="0.00" departDelay="4.64" arrival="109.00" arrivalLane="1369578052#0_0" arrivalPos="104.54" arrivalSpeed="14.39" duration="88.00" routeLength="210.35" waitingTime="45.00" waitingCount="2" stopTime="0.00" timeLoss="73.80" rerouteNo="0" devices="tripinfo_flow_route_53_duration_20250327_1920.9" vType="car" speedFactor="0.93" vaporized=""/>
    <tripinfo id="flow_route_59_duration_20250327_1920.6" depart="16.00" departLane="186407685_0" departPos="15.23" departSpeed="0.00" departDelay="1.60" arrival="111.00" arrivalLane="1369578052#0_0" arrivalPos="32.99" arrivalSpeed="7.69" duration="95.00" routeLength="203.87" waitingTime="46.00" waitingCount="2" stopTime="0.00" timeLoss="81.81" rerouteNo="0" devices="tripinfo_flow_route_59_duration_20250327_1920.6" vType="car" speedFactor="1.13" vaporized=""/>
    <tripinfo id="flow_route_52_duration_20250327_1920.3" depart="36.00" departLane="138002006#0_0" departPos="64.19" departSpeed="0.00" departDelay="6.00" arrival="111.00" arrivalLane="380351865#0_1" arrivalPos="16.13" arrivalSpeed="12.57" duration="75.00" routeLength="193.49" waitingTime="44.00" waitingCount="3" stopTime="0.00" timeLoss="59.74" rerouteNo="0" devices="tripinfo_flow_route_52_duration_20250327_1920.3" vType="car" speedFactor="1.17" vaporized=""/>
    <tripinfo id="flow_route_53_duration_20250327_1920.7" depart="13.00" departLane="138002006#0_0" departPos="13.48" departSpeed="0.00" departDelay="0.27" arrival="112.00" arrivalLane="1369578052#0_0" arrivalPos="176.02" arrivalSpeed="13.33" duration="99.00" routeLength="270.46" waitingTime="47.00" waitingCount="2" stopTime="0.00" timeLoss="78.48" rerouteNo="0" devices="tripinfo_flow_route_53_duration_20250327_1920.7" vType="car" speedFactor="0.83" vaporized=""/>
    <tripinfo id="flow_route_59_duration_20250327_1920.7" depart="17.00" departLane="186407685_0" departPos="8.29" departSpeed="0.00" departDelay="0.20" arrival="113.00" arrivalLane="1369578052#0_0" arrivalPos="38.19" arrivalSpeed="8.26" duration="96.00" routeLength="216.00" waitingTime="45.00" waitingCount="2" stopTime="0.00" timeLoss="82.36" rerouteNo="0" devices="tripinfo_flow_route_59_duration_20250327_1920.7" vType="car" speedFactor="1.18" vaporized=""/>
    <tripinfo id="flow_route_59_duration_20250327_1920.13" depart="39.00" departLane="186407685_0" departPos="82.48" departSpeed="0.00" departDelay="7.80" arrival="113.00" arrivalLane="1369578052#0_0" arrivalPos="0.16" arrivalSpeed="5.33" duration="74.00" routeLength="103.78" waitingTime="39.00" waitingCount="2" stopTime="0.00" timeLoss="66.17" rerouteNo="0" devices="tripinfo_flow_route_59_duration_20250327_1920.13" vType="car" speedFactor="0.90" vaporized=""/>
    <tripinfo id="flow_route_57_duration_20250327_1920.4" depart="41.00" departLane="186407685_0" departPos="6.13" departSpeed="0.00" departDelay="6.72" arrival="122.00" arrivalLane="380351865#0_0" arrivalPos="15.98" arrivalSpeed="12.03" duration="81.00" routeLength="346.46" waitingTime="36.00" waitingCount="1" stopTime="0.00" timeLoss="56.94" rerouteNo="0" devices="tripinfo_flow_route_57_duration_20250327_1920.4" vType="car" speedFactor="1.12" vaporized=""/>
    <tripinfo id="flow_route_57_duration_20250327_1920.5" depart="60.00" departLane="186407685_0" departPos="58.00" departSpeed="0.00" departDelay="17.15" arrival="123.00" arrivalLane="380351865#0_1" arrivalPos="13.53" arrivalSpeed="10.29" duration="63.00" routeLength="292.15" waitingTime="16.00" waitingCount="2" stopTime="0.00" timeLoss="39.62" rerouteNo="0" devices="tripinfo_flow_route_57_duration_20250327_1920.5" vType="car" speedFactor="0.96" vaporized=""/>
    <tripinfo id="flow_route_57_duration_20250327_1920.6" depart="85.00" departLane="186407685_0" departPos="0.91" departSpeed="0.00" departDelay="33.57" arrival="124.00" arrivalLane="380351865#0_1" arrivalPos="2.62" arrivalSpeed="11.16" duration="39.00" routeLength="338.32" waitingTime="0.00" waitingCount="0" stopTime="0.00" timeLoss="13.87" rerouteNo="0" devices="tripinfo_flow_route_57_duration_20250327_1920.6" vType="car" speedFactor="1.02" vaporized=""/>