<?xml version="1.0" encoding="UTF-8"?>

<!-- generated on 2025-05-06 21:09:18 by Eclipse SUMO sumo Version 1.20.0
<configuration xmlns:xsi="http://www.w3.org/2001/XMLSchema-instance" xsi:noNamespaceSchemaLocation="http://sumo.dlr.de/xsd/sumoConfiguration.xsd">

    <input>
        <net-file value="osm.net.xml"/>
        <route-files value="xml/route_static_cluster3839130731_cluster_11644940326_11644940327_11648561426_9.rou.xml"/>
    </input>

    <output>
        <tripinfo-output value="xml/tripinfo_static_cluster3839130731_cluster_11644940326_11644940327_11648561426_9.xml"/>
    </output>

    <traci_server>
        <remote-port value="52799"/>
    </traci_server>

</configuration>
-->

<tripinfos xmlns:xsi="http://www.w3.org/2001/XMLSchema-instance" xsi:noNamespaceSchemaLocation="http://sumo.dlr.de/xsd/tripinfo_file.xsd">
    <tripinfo id="flow_route_96_duration_20250327_2020.0" depart="0.00" departLane="1341093416#0_0" departPos="184.53" departSpeed="0.00" departDelay="0.00" arrival="20.00" arrivalLane="1254519229#0_1" arrivalPos="3.62" arrivalSpeed="5.63" duration="20.00" routeLength="114.10" waitingTime="0.00" waitingCount="0" stopTime="0.00" timeLoss="11.88" rerouteNo="0" devices="tripinfo_flow_route_96_duration_20250327_2020.0" vType="car" speedFactor="1.01" vaporized=""/>
    <tripinfo id="flow_route_123_duration_20250327_2020.0" depart="0.00" departLane="189240000#0-AddedOnRampEdge_0" departPos="5.69" departSpeed="0.00" departDelay="0.00" arrival="22.00" arrivalLane="1254519229#0_0" arrivalPos="19.69" arrivalSpeed="11.80" duration="22.00" routeLength="156.33" waitingTime="0.00" waitingCount="0" stopTime="0.00" timeLoss="10.66" rerouteNo="0" devices="tripinfo_flow_route_123_duration_20250327_2020.0" vType="car" speedFactor="0.89" vaporized=""/>
    <tripinfo id="flow_route_111_duration_20250327_2020.0" depart="0.00" departLane="1253188486#8_0" departPos="138.93" departSpeed="0.00" departDelay="0.00" arrival="33.00" arrivalLane="1254519229#0_0" arrivalPos="3.47" arrivalSpeed="6.91" duration="33.00" routeLength="140.76" waitingTime="4.00" waitingCount="1" stopTime="0.00" timeLoss="24.39" rerouteNo="0" devices="tripinfo_flow_route_111_duration_20250327_2020.0" vType="car" speedFactor="0.83" vaporized=""/>
    <tripinfo id="flow_route_95_duration_20250327_2020.1" depart="5.00" departLane="1341093416#0_0" departPos="173.69" departSpeed="0.00" departDelay="0.72" arrival="33.00" arrivalLane="1254519225#0.109_0" arrivalPos="32.00" arrivalSpeed="15.26" duration="28.00" routeLength="240.68" waitingTime="0.00" waitingCount="0" stopTime="0.00" timeLoss="12.46" rerouteNo="0" devices="tripinfo_flow_route_95_duration_20250327_2020.1" vType="car" speedFactor="1.09" vaporized=""/>
    <tripinfo id="flow_route_111_duration_20250327_2020.2" depart="8.00" departLane="1253188486#8_0" departPos="133.54" departSpeed="0.00" departDelay="0.50" arrival="34.00" arrivalLane="1254519229#0_1" arrivalPos="70.63" arrivalSpeed="14.86" duration="26.00" routeLength="213.31" waitingTime="0.00" waitingCount="0" stopTime="0.00" timeLoss="12.82" rerouteNo="0" devices="tripinfo_flow_route_111_duration_20250327_2020.2" vType="car" speedFactor="1.12" vaporized=""/>
    <tripinfo id="flow_route_124_duration_20250327_2020.0" depart="0.00" departLane="189240000#0-AddedOnRampEdge_0" departPos="82.66" departSpeed="0.00" departDelay="0.00" arrival="35.00" arrivalLane="1254519225#0.109_3" arrivalPos="34.02" arrivalSpeed="15.12" duration="35.00" routeLength="196.39" waitingTime="3.00" waitingCount="1" stopTime="0.00" timeLoss="20.52" rerouteNo="0" devices="tripinfo_flow_route_124_duration_20250327_2020.0" vType="car" speedFactor="0.94" vaporized=""/>
    <tripinfo id="flow_route_111_duration_20250327_2020.1" depart="4.00" departLane="1253188486#8_0" departPos="11.33" departSpeed="0.00" departDelay="0.25" arrival="35.00" arrivalLane="1254519229#0_1" arrivalPos="54.39" arrivalSpeed="16.33" duration="31.00" routeLength="319.28" waitingTime="0.00" waitingCount="0" stopTime="0.00" timeLoss="11.19" rerouteNo="0" devices="tripinfo_flow_route_111_duration_20250327_2020.1" vType="car" speedFactor="0.86" vaporized=""/>
    <tripinfo id="flow_route_124_duration_20250327_2020.1" depart="5.00" departLane="189240000#0-AddedOnRampEdge_0" departPos="88.65" departSpeed="0.00" departDelay="0.39" arrival="36.00" arrivalLane="1254519225#0.109_3" arrivalPos="19.16" arrivalSpeed="14.69" duration="31.00" routeLength="175.53" waitingTime="1.00" waitingCount="1" stopTime="0.00" timeLoss="18.91" rerouteNo="0" devices="tripinfo_flow_route_124_duration_20250327_2020.1" vType="car" speedFactor="1.03" vaporized=""/>
    <tripinfo id="flow_route_94_duration_20250327_2020.0" depart="0.00" departLane="1341093416#0_0" departPos="204.30" departSpeed="0.00" departDelay="0.00" arrival="37.00" arrivalLane="799091563#0_0" arrivalPos="338.33" arrivalSpeed="16.41" duration="37.00" routeLength="440.38" waitingTime="0.00" waitingCount="0" stopTime="0.00" timeLoss="10.10" rerouteNo="0" devices="tripinfo_flow_route_94_duration_20250327_2020.0" vType="car" speedFactor="1.06" vaporized=""/>
    <tripinfo id="flow_route_111_duration_20250327_2020.3" depart="12.00" departLane="1253188486#8_0" departPos="64.79" departSpeed="0.00" departDelay="0.75" arrival="38.00" arrivalLane="1254519229#0_1" arrivalPos="32.73" arrivalSpeed="16.60" duration="26.00" routeLength="244.16" waitingTime="0.00" waitingCount="0" stopTime="0.00" timeLoss="11.14" rerouteNo="0" devices="tripinfo_flow_route_111_duration_20250327_2020.3" vType="car" speedFactor="1.16" vaporized=""/>
    <tripinfo id="flow_route_111_duration_20250327_2020.4" depart="16.00" departLane="1253188486#8_0" departPos="169.68" departSpeed="0.00" departDelay="1.00" arrival="40.00" arrivalLane="1254519229#0_0" arrivalPos="53.16" arrivalSpeed="11.91" duration="24.00" routeLength="159.70" waitingTime="0.00" waitingCount="0" stopTime="0.00" timeLoss="14.01" rerouteNo="0" devices="tripinfo_flow_route_111_duration_20250327_2020.4" vType="car" speedFactor="0.83" vaporized=""/>
    <tripinfo id="flow_route_104_duration_20250327_2020.0" depart="0.00" departLane="189240001_0" departPos="36.52" departSpeed="0.00" departDelay="0.00" arrival="43.00" arrivalLane="1254519225#0.109_0" arrivalPos="30.66" arrivalSpeed="15.67" duration="43.00" routeLength="198.30" waitingTime="12.00" waitingCount="1" stopTime="0.00" timeLoss="30.23" rerouteNo="0" devices="tripinfo_flow_route_104_duration_20250327_2020.0" vType="car" speedFactor="1.08" vaporized=""/>
    <tripinfo id="flow_route_104_duration_20250327_2020.1" depart="10.00" departLane="189240001_0" departPos="53.68" departSpeed="0.00" departDelay="0.00" arrival="46.00" arrivalLane="1254519225#0.109_0" arrivalPos="47.70" arrivalSpeed="14.25" duration="36.00" routeLength="198.18" waitingTime="7.00" waitingCount="1" stopTime="0.00" timeLoss="22.24" rerouteNo="0" devices="tripinfo_flow_route_104_duration_20250327_2020.1" vType="car" speedFactor="0.88" vaporized=""/>
    <tripinfo id="flow_route_111_duration_20250327_2020.8" depart="30.00" departLane="1253188486#8_0" departPos="214.80" departSpeed="0.00" departDelay="0.00" arrival="46.00" arrivalLane="1254519229#0_0" arrivalPos="29.06" arrivalSpeed="12.07" duration="16.00" routeLength="90.47" waitingTime="0.00" waitingCount="0" stopTime="0.00" timeLoss="9.87" rerouteNo="0" devices="tripinfo_flow_route_111_duration_20250327_2020.8" vType="car" speedFactor="1.04" vaporized=""/>
    <tripinfo id="flow_route_111_duration_20250327_2020.5" depart="19.00" departLane="1253188486#8_0" departPos="41.31" departSpeed="0.00" departDelay="0.25" arrival="47.00" arrivalLane="1254519229#0_1" arrivalPos="24.49" arrivalSpeed="16.37" duration="28.00" routeLength="259.40" waitingTime="0.00" waitingCount="0" stopTime="0.00" timeLoss="11.57" rerouteNo="0" devices="tripinfo_flow_route_111_duration_20250327_2020.5" vType="car" speedFactor="0.92" vaporized=""/>
    <tripinfo id="flow_route_111_duration_20250327_2020.7" depart="27.00" departLane="1253188486#8_0" departPos="103.83" departSpeed="0.00" departDelay="0.75" arrival="49.00" arrivalLane="1254519229#0_0" arrivalPos="16.90" arrivalSpeed="16.10" duration="22.00" routeLength="189.29" waitingTime="0.00" waitingCount="0" stopTime="0.00" timeLoss="10.55" rerouteNo="0" devices="tripinfo_flow_route_111_duration_20250327_2020.7" vType="car" speedFactor="1.18" vaporized=""/>
    <tripinfo id="flow_route_111_duration_20250327_2020.6" depart="23.00" departLane="1253188486#8_0" departPos="21.10" departSpeed="0.00" departDelay="0.50" arrival="52.00" arrivalLane="1254519229#0_0" arrivalPos="24.97" arrivalSpeed="16.31" duration="29.00" routeLength="280.09" waitingTime="0.00" waitingCount="0" stopTime="0.00" timeLoss="11.75" rerouteNo="0" devices="tripinfo_flow_route_111_duration_20250327_2020.6" vType="car" speedFactor="1.17" vaporized=""/>
    <tripinfo id="flow_route_104_duration_20250327_2020.3" depart="30.00" departLane="189240001_0" departPos="8.20" departSpeed="0.00" departDelay="0.00" arrival="55.00" arrivalLane="1254519225#0.109_0" arrivalPos="26.03" arrivalSpeed="16.47" duration="25.00" routeLength="221.98" waitingTime="0.00" waitingCount="0" stopTime="0.00" timeLoss="10.78" rerouteNo="0" devices="tripinfo_flow_route_104_duration_20250327_2020.3" vType="car" speedFactor="1.09" vaporized=""/>
    <tripinfo id="flow_route_112_duration_20250327_2020.0" depart="0.00" departLane="1253188486#8_0" departPos="64.90" departSpeed="0.00" departDelay="0.00" arrival="56.00" arrivalLane="799091563#0_0" arrivalPos="282.23" arrivalSpeed="16.16" duration="56.00" routeLength="472.04" waitingTime="0.00" waitingCount="0" stopTime="0.00" timeLoss="25.56" rerouteNo="0" devices="tripinfo_flow_route_112_duration_20250327_2020.0" vType="car" speedFactor="1.05" vaporized=""/>
    <tripinfo id="flow_route_123_duration_20250327_2020.1" depart="10.00" departLane="189240000#0-AddedOnRampEdge_0" departPos="31.28" departSpeed="0.00" departDelay="0.00" arrival="64.00" arrivalLane="1254519229#0_0" arrivalPos="12.66" arrivalSpeed="7.09" duration="54.00" routeLength="123.71" waitingTime="26.00" waitingCount="1" stopTime="0.00" timeLoss="45.47" rerouteNo="0" devices="tripinfo_flow_route_123_duration_20250327_2020.1" vType="car" speedFactor="0.94" vaporized=""/>
    <tripinfo id="flow_route_123_duration_20250327_2020.2" depart="20.00" departLane="189240000#0-AddedOnRampEdge_0" departPos="87.62" departSpeed="0.00" departDelay="0.00" arrival="64.00" arrivalLane="1254519229#0_1" arrivalPos="12.08" arrivalSpeed="7.64" duration="44.00" routeLength="70.30" waitingTime="23.00" waitingCount="1" stopTime="0.00" timeLoss="39.43" rerouteNo="0" devices="tripinfo_flow_route_123_duration_20250327_2020.2" vType="car" speedFactor="1.18" vaporized=""/>
    <tripinfo id="flow_route_104_duration_20250327_2020.4" depart="40.00" departLane="189240001_0" departPos="33.76" departSpeed="0.00" departDelay="0.00" arrival="64.00" arrivalLane="1254519225#0.109_0" arrivalPos="9.58" arrivalSpeed="14.24" duration="24.00" routeLength="179.98" waitingTime="0.00" waitingCount="0" stopTime="0.00" timeLoss="13.05" rerouteNo="0" devices="tripinfo_flow_route_104_duration_20250327_2020.4" vType="car" speedFactor="1.00" vaporized=""/>
    <tripinfo id="flow_route_104_duration_20250327_2020.2" depart="20.00" departLane="189240001_0" departPos="42.84" departSpeed="0.00" departDelay="0.00" arrival="65.00" arrivalLane="1254519225#0.109_0" arrivalPos="40.03" arrivalSpeed="15.06" duration="45.00" routeLength="201.35" waitingTime="12.00" waitingCount="1" stopTime="0.00" timeLoss="31.17" rerouteNo="0" devices="tripinfo_flow_route_104_duration_20250327_2020.2" vType="car" speedFactor="0.93" vaporized=""/>
    <tripinfo id="flow_route_112_duration_20250327_2020.1" depart="12.00" departLane="1253188486#8_0" departPos="54.74" departSpeed="0.00" departDelay="0.00" arrival="66.00" arrivalLane="799091563#0_0" arrivalPos="366.26" arrivalSpeed="16.21" duration="54.00" routeLength="566.22" waitingTime="0.00" waitingCount="0" stopTime="0.00" timeLoss="18.80" rerouteNo="0" devices="tripinfo_flow_route_112_duration_20250327_2020.1" vType="car" speedFactor="1.02" vaporized=""/>
    <tripinfo id="flow_route_94_duration_20250327_2020.2" depart="15.00" departLane="1341093416#0_0" departPos="196.20" departSpeed="0.00" departDelay="0.00" arrival="67.00" arrivalLane="799091563#0_0" arrivalPos="33.80" arrivalSpeed="9.76" duration="52.00" routeLength="143.95" waitingTime="23.00" waitingCount="1" stopTime="0.00" timeLoss="42.99" rerouteNo="0" devices="tripinfo_flow_route_94_duration_20250327_2020.2" vType="car" speedFactor="0.89" vaporized=""/>
    <tripinfo id="flow_route_112_duration_20250327_2020.2" depart="26.00" departLane="1253188486#8_0" departPos="86.32" departSpeed="0.00" departDelay="2.00" arrival="68.00" arrivalLane="799091563#0_0" arrivalPos="215.36" arrivalSpeed="16.44" duration="42.00" routeLength="383.75" waitingTime="0.00" waitingCount="0" stopTime="0.00" timeLoss="18.13" rerouteNo="0" devices="tripinfo_flow_route_112_duration_20250327_2020.2" vType="car" speedFactor="0.99" vaporized=""/>
    <tripinfo id="flow_route_123_duration_20250327_2020.5" depart="50.00" departLane="189240000#0-AddedOnRampEdge_0" departPos="43.70" departSpeed="0.00" departDelay="0.00" arrival="71.00" arrivalLane="1254519229#0_0" arrivalPos="38.79" arrivalSpeed="10.52" duration="21.00" routeLength="137.41" waitingTime="0.00" waitingCount="0" stopTime="0.00" timeLoss="11.15" rerouteNo="0" devices="tripinfo_flow_route_123_duration_20250327_2020.5" vType="car" speedFactor="0.91" vaporized=""/>
    <tripinfo id="flow_route_123_duration_20250327_2020.3" depart="30.00" departLane="189240000#0-AddedOnRampEdge_0" departPos="59.03" departSpeed="0.00" departDelay="0.00" arrival="72.00" arrivalLane="1254519229#0_0" arrivalPos="77.73" arrivalSpeed="12.48" duration="42.00" routeLength="161.03" waitingTime="11.00" waitingCount="1" stopTime="0.00" timeLoss="31.77" rerouteNo="0" devices="tripinfo_flow_route_123_duration_20250327_2020.3" vType="car" speedFactor="1.04" vaporized=""/>
    <tripinfo id="flow_route_123_duration_20250327_2020.4" depart="40.00" departLane="189240000#0-AddedOnRampEdge_0" departPos="55.62" departSpeed="0.00" departDelay="0.00" arrival="72.00" arrivalLane="1254519229#0_1" arrivalPos="71.97" arrivalSpeed="12.06" duration="32.00" routeLength="162.19" waitingTime="2.00" waitingCount="1" stopTime="0.00" timeLoss="21.62" rerouteNo="0" devices="tripinfo_flow_route_123_duration_20250327_2020.4" vType="car" speedFactor="1.00" vaporized=""/>
    <tripinfo id="flow_route_96_duration_20250327_2020.1" depart="11.00" departLane="1341093416#0_0" departPos="34.38" departSpeed="0.00" departDelay="1.00" arrival="73.00" arrivalLane="1254519229#0_1" arrivalPos="24.01" arrivalSpeed="5.90" duration="62.00" routeLength="284.64" waitingTime="20.00" waitingCount="2" stopTime="0.00" timeLoss="43.69" rerouteNo="0" devices="tripinfo_flow_route_96_duration_20250327_2020.1" vType="car" speedFactor="0.93" vaporized=""/>
    <tripinfo id="flow_route_95_duration_20250327_2020.3" depart="13.00" departLane="1341093416#0_0" departPos="156.73" departSpeed="0.00" departDelay="0.15" arrival="73.00" arrivalLane="1254519225#0.109_0" arrivalPos="10.48" arrivalSpeed="13.82" duration="60.00" routeLength="236.12" waitingTime="22.00" waitingCount="1" stopTime="0.00" timeLoss="44.56" rerouteNo="0" devices="tripinfo_flow_route_95_duration_20250327_2020.3" vType="car" speedFactor="1.01" vaporized=""/>
    <tripinfo id="flow_route_96_duration_20250327_2020.2" depart="20.00" departLane="1341093416#0_0" departPos="76.46" departSpeed="0.00" departDelay="0.00" arrival="75.00" arrivalLane="1254519229#0_1" arrivalPos="14.59" arrivalSpeed="6.52" duration="55.00" routeLength="233.14" waitingTime="13.00" waitingCount="2" stopTime="0.00" timeLoss="39.77" rerouteNo="0" devices="tripinfo_flow_route_96_duration_20250327_2020.2" vType="car" speedFactor="1.13" vaporized=""/>
    <tripinfo id="flow_route_105_duration_20250327_2020.0" depart="1.00" departLane="189240001_0" departPos="25.23" departSpeed="0.00" departDelay="1.00" arrival="77.00" arrivalLane="799091563#0_2" arrivalPos="224.02" arrivalSpeed="16.36" duration="76.00" routeLength="308.35" waitingTime="31.00" waitingCount="2" stopTime="0.00" timeLoss="57.32" rerouteNo="0" devices="tripinfo_flow_route_105_duration_20250327_2020.0" vType="car" speedFactor="1.03" vaporized=""/>
    <tripinfo id="flow_route_95_duration_20250327_2020.0" depart="0.00" departLane="1341093416#0_0" departPos="1.65" departSpeed="0.00" departDelay="0.00" arrival="78.00" arrivalLane="1254519225#0.109_0" arrivalPos="44.45" arrivalSpeed="15.38" duration="78.00" routeLength="425.17" waitingTime="22.00" waitingCount="1" stopTime="0.00" timeLoss="50.33" rerouteNo="0" devices="tripinfo_flow_route_95_duration_20250327_2020.0" vType="car" speedFactor="0.94" vaporized=""/>
    <tripinfo id="flow_route_95_duration_20250327_2020.6" depart="27.00" departLane="1341093416#0_0" departPos="186.09" departSpeed="0.00" departDelay="1.29" arrival="79.00" arrivalLane="1254519225#0.109_0" arrivalPos="45.04" arrivalSpeed="16.12" duration="52.00" routeLength="241.32" waitingTime="16.00" waitingCount="1" stopTime="0.00" timeLoss="36.29" rerouteNo="0" devices="tripinfo_flow_route_95_duration_20250327_2020.6" vType="car" speedFactor="0.97" vaporized=""/>
    <tripinfo id="flow_route_96_duration_20250327_2020.3" depart="37.00" departLane="1341093416#0_0" departPos="77.10" departSpeed="0.00" departDelay="7.00" arrival="81.00" arrivalLane="1254519229#0_1" arrivalPos="46.55" arrivalSpeed="10.58" duration="44.00" routeLength="264.46" waitingTime="2.00" waitingCount="1" stopTime="0.00" timeLoss="26.40" rerouteNo="0" devices="tripinfo_flow_route_96_duration_20250327_2020.3" vType="car" speedFactor="0.96" vaporized=""/>
    <tripinfo id="flow_route_94_duration_20250327_2020.4" depart="30.00" departLane="1341093416#0_0" departPos="6.54" departSpeed="0.00" departDelay="0.00" arrival="82.00" arrivalLane="799091563#0_1" arrivalPos="194.73" arrivalSpeed="14.91" duration="52.00" routeLength="494.54" waitingTime="0.00" waitingCount="0" stopTime="0.00" timeLoss="20.05" rerouteNo="0" devices="tripinfo_flow_route_94_duration_20250327_2020.4" vType="car" speedFactor="0.90" vaporized=""/>
    <tripinfo id="flow_route_95_duration_20250327_2020.2" depart="9.00" departLane="1341093416#0_0" departPos="8.89" departSpeed="0.00" departDelay="0.43" arrival="83.00" arrivalLane="1254519225#0.109_0" arrivalPos="14.77" arrivalSpeed="15.61" duration="74.00" routeLength="388.25" waitingTime="10.00" waitingCount="1" stopTime="0.00" timeLoss="48.69" rerouteNo="0" devices="tripinfo_flow_route_95_duration_20250327_2020.2" vType="car" speedFactor="0.99" vaporized=""/>
    <tripinfo id="flow_route_95_duration_20250327_2020.7" depart="37.00" departLane="1341093416#0_0" departPos="214.14" departSpeed="0.00" departDelay="7.01" arrival="83.00" arrivalLane="1254519225#0.109_0" arrivalPos="51.50" arrivalSpeed="16.38" duration="46.00" routeLength="219.73" waitingTime="10.00" waitingCount="1" stopTime="0.00" timeLoss="31.06" rerouteNo="0" devices="tripinfo_flow_route_95_duration_20250327_2020.7" vType="car" speedFactor="1.03" vaporized=""/>
    <tripinfo id="flow_route_95_duration_20250327_2020.5" depart="22.00" departLane="1341093416#0_0" departPos="49.07" departSpeed="0.00" departDelay="0.58" arrival="84.00" arrivalLane="1254519225#0.109_0" arrivalPos="4.18" arrivalSpeed="14.29" duration="62.00" routeLength="337.47" waitingTime="9.00" waitingCount="1" stopTime="0.00" timeLoss="40.32" rerouteNo="0" devices="tripinfo_flow_route_95_duration_20250327_2020.5" vType="car" speedFactor="1.15" vaporized=""/>
    <tripinfo id="flow_route_124_duration_20250327_2020.3" depart="14.00" departLane="189240000#0-AddedOnRampEdge_0" departPos="76.63" departSpeed="0.00" departDelay="0.16" arrival="85.00" arrivalLane="1254519225#0.109_3" arrivalPos="15.06" arrivalSpeed="14.69" duration="71.00" routeLength="183.46" waitingTime="35.00" waitingCount="2" stopTime="0.00" timeLoss="58.21" rerouteNo="0" devices="tripinfo_flow_route_124_duration_20250327_2020.3" vType="car" speedFactor="0.97" vaporized=""/>
    <tripinfo id="flow_route_96_duration_20250327_2020.4" depart="47.00" departLane="1341093416#0_0" departPos="94.82" departSpeed="0.00" departDelay="7.00" arrival="85.00" arrivalLane="1254519229#0_1" arrivalPos="67.28" arrivalSpeed="11.65" duration="38.00" routeLength="267.46" waitingTime="0.00" waitingCount="0" stopTime="0.00" timeLoss="20.81" rerouteNo="0" devices="tripinfo_flow_route_96_duration_20250327_2020.4" vType="car" speedFactor="1.10" vaporized=""/>
    <tripinfo id="flow_route_94_duration_20250327_2020.1" depart="8.00" departLane="1341093416#0_0" departPos="108.74" departSpeed="0.00" departDelay="0.50" arrival="86.00" arrivalLane="799091563#0_0" arrivalPos="313.01" arrivalSpeed="16.40" duration="78.00" routeLength="510.62" waitingTime="22.00" waitingCount="1" stopTime="0.00" timeLoss="46.99" rerouteNo="0" devices="tripinfo_flow_route_94_duration_20250327_2020.1" vType="car" speedFactor="1.05" vaporized=""/>
    <tripinfo id="flow_route_94_duration_20250327_2020.5" depart="39.00" departLane="1341093416#0_0" departPos="107.12" departSpeed="0.00" departDelay="1.50" arrival="87.00" arrivalLane="799091563#0_2" arrivalPos="270.85" arrivalSpeed="13.99" duration="48.00" routeLength="470.08" waitingTime="0.00" waitingCount="0" stopTime="0.00" timeLoss="16.64" rerouteNo="0" devices="tripinfo_flow_route_94_duration_20250327_2020.5" vType="car" speedFactor="0.85" vaporized=""/>
    <tripinfo id="flow_route_94_duration_20250327_2020.3" depart="23.00" departLane="1341093416#0_0" departPos="92.95" departSpeed="0.00" departDelay="0.50" arrival="90.00" arrivalLane="799091563#0_1" arrivalPos="376.78" arrivalSpeed="16.52" duration="67.00" routeLength="590.18" waitingTime="7.00" waitingCount="1" stopTime="0.00" timeLoss="31.32" rerouteNo="0" devices="tripinfo_flow_route_94_duration_20250327_2020.3" vType="car" speedFactor="1.01" vaporized=""/>
    <tripinfo id="flow_route_95_duration_20250327_2020.4" depart="20.00" departLane="1341093416#0_0" departPos="7.63" departSpeed="0.00" departDelay="2.86" arrival="91.00" arrivalLane="1254519225#0.109_0" arrivalPos="58.34" arrivalSpeed="14.19" duration="71.00" routeLength="433.08" waitingTime="10.00" waitingCount="1" stopTime="0.00" timeLoss="42.30" rerouteNo="0" devices="tripinfo_flow_route_95_duration_20250327_2020.4" vType="car" speedFactor="0.87" vaporized=""/>
    <tripinfo id="flow_route_124_duration_20250327_2020.4" depart="19.00" departLane="189240000#0-AddedOnRampEdge_0" departPos="90.15" departSpeed="0.00" departDelay="0.54" arrival="97.00" arrivalLane="1254519225#0.109_3" arrivalPos="30.73" arrivalSpeed="14.56" duration="78.00" routeLength="185.61" waitingTime="36.00" waitingCount="3" stopTime="0.00" timeLoss="64.93" rerouteNo="0" devices="tripinfo_flow_route_124_duration_20250327_2020.4" vType="car" speedFactor="0.95" vaporized=""/>
    <tripinfo id="flow_route_111_duration_20250327_2020.14" depart="53.00" departLane="1253188486#8_0" departPos="196.70" departSpeed="0.00" departDelay="0.50" arrival="97.00" arrivalLane="1254519229#0_0" arrivalPos="35.38" arrivalSpeed="10.45" duration="44.00" routeLength="114.90" waitingTime="15.00" waitingCount="1" stopTime="0.00" timeLoss="36.46" rerouteNo="0" devices="tripinfo_flow_route_111_duration_20250327_2020.14" vType="car" speedFactor="0.97" vaporized=""/>
    <tripinfo id="flow_route_111_duration_20250327_2020.10" depart="40.00" departLane="1253188486#8_0" departPos="84.53" departSpeed="0.00" departDelay="2.50" arrival="98.00" arrivalLane="1254519229#0_1" arrivalPos="11.23" arrivalSpeed="8.31" duration="58.00" routeLength="202.92" waitingTime="18.00" waitingCount="1" stopTime="0.00" timeLoss="45.71" rerouteNo="0" devices="tripinfo_flow_route_111_duration_20250327_2020.10" vType="car" speedFactor="1.17" vaporized=""/>
    <tripinfo id="flow_route_111_duration_20250327_2020.11" depart="42.00" departLane="1253188486#8_0" departPos="140.66" departSpeed="0.00" departDelay="0.75" arrival="98.00" arrivalLane="1254519229#0_1" arrivalPos="30.19" arrivalSpeed="9.48" duration="56.00" routeLength="165.75" waitingTime="20.00" waitingCount="1" stopTime="0.00" timeLoss="46.00" rerouteNo="0" devices="tripinfo_flow_route_111_duration_20250327_2020.11" vType="car" speedFactor="0.90" vaporized=""/>
    <tripinfo id="flow_route_111_duration_20250327_2020.13" depart="49.00" departLane="1253188486#8_0" departPos="201.02" departSpeed="0.00" departDelay="0.25" arrival="98.00" arrivalLane="1254519229#0_0" arrivalPos="72.34" arrivalSpeed="11.85" duration="49.00" routeLength="147.54" waitingTime="17.00" waitingCount="1" stopTime="0.00" timeLoss="39.83" rerouteNo="0" devices="tripinfo_flow_route_111_duration_20250327_2020.13" vType="car" speedFactor="0.94" vaporized=""/>
    <tripinfo id="flow_route_111_duration_20250327_2020.12" depart="48.00" departLane="1253188486#8_0" departPos="2.86" departSpeed="0.00" departDelay="3.00" arrival="99.00" arrivalLane="1254519229#0_0" arrivalPos="43.70" arrivalSpeed="11.00" duration="51.00" routeLength="317.06" waitingTime="5.00" waitingCount="1" stopTime="0.00" timeLoss="31.64" rerouteNo="0" devices="tripinfo_flow_route_111_duration_20250327_2020.12" vType="car" speedFactor="1.08" vaporized=""/>
    <tripinfo id="flow_route_111_duration_20250327_2020.15" depart="57.00" departLane="1253188486#8_0" departPos="78.71" departSpeed="0.00" departDelay="0.75" arrival="99.00" arrivalLane="1254519229#0_0" arrivalPos="15.54" arrivalSpeed="9.92" duration="42.00" routeLength="213.05" waitingTime="3.00" waitingCount="1" stopTime="0.00" timeLoss="28.70" rerouteNo="0" devices="tripinfo_flow_route_111_duration_20250327_2020.15" vType="car" speedFactor="0.96" vaporized=""/>
    <tripinfo id="flow_route_111_duration_20250327_2020.9" depart="35.00" departLane="1253188486#8_0" departPos="84.12" departSpeed="0.00" departDelay="1.25" arrival="100.00" arrivalLane="1254519229#0_0" arrivalPos="69.53" arrivalSpeed="11.73" duration="65.00" routeLength="261.63" waitingTime="20.00" waitingCount="1" stopTime="0.00" timeLoss="49.02" rerouteNo="0" devices="tripinfo_flow_route_111_duration_20250327_2020.9" vType="car" speedFactor="1.00" vaporized=""/>
    <tripinfo id="flow_route_94_duration_20250327_2020.6" depart="49.00" departLane="1341093416#0_0" departPos="31.35" departSpeed="0.00" departDelay="4.00" arrival="100.00" arrivalLane="799091563#0_1" arrivalPos="358.75" arrivalSpeed="16.15" duration="51.00" routeLength="633.75" waitingTime="0.00" waitingCount="0" stopTime="0.00" timeLoss="11.97" rerouteNo="0" devices="tripinfo_flow_route_94_duration_20250327_2020.6" vType="car" speedFactor="0.97" vaporized=""/>
    <tripinfo id="flow_route_104_duration_20250327_2020.5" depart="50.00" departLane="189240001_0" departPos="61.43" departSpeed="0.00" departDelay="0.00" arrival="101.00" arrivalLane="1254519225#0.109_0" arrivalPos="62.19" arrivalSpeed="14.73" duration="51.00" routeLength="204.92" waitingTime="20.00" waitingCount="1" stopTime="0.00" timeLoss="36.49" rerouteNo="0" devices="tripinfo_flow_route_104_duration_20250327_2020.5" vType="car" speedFactor="0.91" vaporized=""/>
    <tripinfo id="flow_route_112_duration_20250327_2020.3" depart="36.00" departLane="1253188486#8_0" departPos="114.41" departSpeed="0.00" departDelay="0.00" arrival="107.00" arrivalLane="799091563#0_0" arrivalPos="265.61" arrivalSpeed="14.19" duration="71.00" routeLength="405.91" waitingTime="15.00" waitingCount="1" stopTime="0.00" timeLoss="42.75" rerouteNo="0" devices="tripinfo_flow_route_112_duration_20250327_2020.3" vType="car" speedFactor="0.88" vaporized=""/>
    <tripinfo id="flow_route_112_duration_20250327_2020.4" depart="48.00" departLane="1253188486#8_0" departPos="119.34" departSpeed="0.00" departDelay="0.00" arrival="107.00" arrivalLane="799091563#0_1" arrivalPos="250.09" arrivalSpeed="16.03" duration="59.00" routeLength="385.47" waitingTime="11.00" waitingCount="1" stopTime="0.00" timeLoss="34.01" rerouteNo="0" devices="tripinfo_flow_route_112_duration_20250327_2020.4" vType="car" speedFactor="0.99" vaporized=""/>
    <tripinfo id="flow_route_124_duration_20250327_2020.2" depart="10.00" departLane="189240000#0-AddedOnRampEdge_0" departPos="12.21" departSpeed="0.00" departDelay="0.77" arrival="119.00" arrivalLane="1254519225#0.109_3" arrivalPos="59.68" arrivalSpeed="15.14" duration="109.00" routeLength="292.50" waitingTime="46.00" waitingCount="4" stopTime="0.00" timeLoss="88.25" rerouteNo="0" devices="tripinfo_flow_route_124_duration_20250327_2020.2" vType="car" speedFactor="0.94" vaporized=""/>
    <tripinfo id="flow_route_96_duration_20250327_2020.5" depart="51.00" departLane="1341093416#0_0" departPos="56.90" departSpeed="0.00" departDelay="1.00" arrival="121.00" arrivalLane="1254519229#0_1" arrivalPos="31.31" arrivalSpeed="8.80" duration="70.00" routeLength="269.42" waitingTime="32.00" waitingCount="1" stopTime="0.00" timeLoss="52.19" rerouteNo="0" devices="tripinfo_flow_route_96_duration_20250327_2020.5" vType="car" speedFactor="0.88" vaporized=""/>
    <tripinfo id="flow_route_95_duration_20250327_2020.12" depart="55.00" departLane="1341093416#0_0" departPos="158.91" departSpeed="0.00" departDelay="3.58" arrival="128.00" arrivalLane="1254519225#0.109_0" arrivalPos="27.86" arrivalSpeed="14.64" duration="73.00" routeLength="251.32" waitingTime="30.00" waitingCount="1" stopTime="0.00" timeLoss="56.26" rerouteNo="0" devices="tripinfo_flow_route_95_duration_20250327_2020.12" vType="car" speedFactor="1.02" vaporized=""/>