<?xml version="1.0" encoding="UTF-8"?>

<!-- generated on 2025-05-06 21:08:23 by Eclipse SUMO sumo Version 1.20.0
<configuration xmlns:xsi="http://www.w3.org/2001/XMLSchema-instance" xsi:noNamespaceSchemaLocation="http://sumo.dlr.de/xsd/sumoConfiguration.xsd">

    <input>
        <net-file value="osm.net.xml"/>
        <route-files value="xml/route_rl_cluster3839130731_cluster_11644940326_11644940327_11648561426_4.rou.xml"/>
    </input>

    <output>
        <tripinfo-output value="xml/tripinfo_rl_cluster3839130731_cluster_11644940326_11644940327_11648561426_4.xml"/>
    </output>

    <traci_server>
        <remote-port value="48667"/>
    </traci_server>

</configuration>
-->

<tripinfos xmlns:xsi="http://www.w3.org/2001/XMLSchema-instance" xsi:noNamespaceSchemaLocation="http://sumo.dlr.de/xsd/tripinfo_file.xsd">
    <tripinfo id="flow_route_96_duration_20250327_2140.0" depart="0.00" departLane="1341093416#0_0" departPos="184.53" departSpeed="0.00" departDelay="0.00" arrival="20.00" arrivalLane="1254519229#0_1" arrivalPos="3.62" arrivalSpeed="5.63" duration="20.00" routeLength="114.10" waitingTime="0.00" waitingCount="0" stopTime="0.00" timeLoss="11.88" rerouteNo="0" devices="tripinfo_flow_route_96_duration_20250327_2140.0" vType="car" speedFactor="1.01" vaporized=""/>
    <tripinfo id="flow_route_123_duration_20250327_2140.0" depart="0.00" departLane="189240000#0-AddedOnRampEdge_0" departPos="5.69" departSpeed="0.00" departDelay="0.00" arrival="22.00" arrivalLane="1254519229#0_0" arrivalPos="19.69" arrivalSpeed="11.80" duration="22.00" routeLength="156.33" waitingTime="0.00" waitingCount="0" stopTime="0.00" timeLoss="10.53" rerouteNo="0" devices="tripinfo_flow_route_123_duration_20250327_2140.0" vType="car" speedFactor="0.89" vaporized=""/>
    <tripinfo id="flow_route_123_duration_20250327_2140.1" depart="9.00" departLane="189240000#0-AddedOnRampEdge_0" departPos="15.02" departSpeed="0.00" departDelay="0.43" arrival="33.00" arrivalLane="1254519229#0_1" arrivalPos="60.83" arrivalSpeed="15.57" duration="24.00" routeLength="191.65" waitingTime="0.00" waitingCount="0" stopTime="0.00" timeLoss="10.84" rerouteNo="0" devices="tripinfo_flow_route_123_duration_20250327_2140.1" vType="car" speedFactor="0.93" vaporized=""/>
    <tripinfo id="flow_route_124_duration_20250327_2140.0" depart="0.00" departLane="189240000#0-AddedOnRampEdge_0" departPos="82.66" departSpeed="0.00" departDelay="0.00" arrival="35.00" arrivalLane="1254519225#0.109_3" arrivalPos="34.02" arrivalSpeed="14.84" duration="35.00" routeLength="196.39" waitingTime="3.00" waitingCount="1" stopTime="0.00" timeLoss="20.87" rerouteNo="0" devices="tripinfo_flow_route_124_duration_20250327_2140.0" vType="car" speedFactor="0.94" vaporized=""/>
    <tripinfo id="flow_route_94_duration_20250327_2140.0" depart="0.00" departLane="1341093416#0_0" departPos="204.30" departSpeed="0.00" departDelay="0.00" arrival="37.00" arrivalLane="799091563#0_0" arrivalPos="338.33" arrivalSpeed="16.59" duration="37.00" routeLength="440.38" waitingTime="0.00" waitingCount="0" stopTime="0.00" timeLoss="10.17" rerouteNo="0" devices="tripinfo_flow_route_94_duration_20250327_2140.0" vType="car" speedFactor="1.06" vaporized=""/>
    <tripinfo id="flow_route_124_duration_20250327_2140.1" depart="4.00" departLane="189240000#0-AddedOnRampEdge_0" departPos="88.65" departSpeed="0.00" departDelay="0.47" arrival="37.00" arrivalLane="1254519225#0.109_3" arrivalPos="32.00" arrivalSpeed="15.28" duration="33.00" routeLength="188.38" waitingTime="2.00" waitingCount="1" stopTime="0.00" timeLoss="20.28" rerouteNo="0" devices="tripinfo_flow_route_124_duration_20250327_2140.1" vType="car" speedFactor="1.03" vaporized=""/>
    <tripinfo id="flow_route_123_duration_20250327_2140.2" depart="18.00" departLane="189240000#0-AddedOnRampEdge_0" departPos="65.29" departSpeed="0.00" departDelay="0.86" arrival="37.00" arrivalLane="1254519229#0_0" arrivalPos="56.94" arrivalSpeed="12.76" duration="19.00" routeLength="133.97" waitingTime="0.00" waitingCount="0" stopTime="0.00" timeLoss="8.90" rerouteNo="0" devices="tripinfo_flow_route_123_duration_20250327_2140.2" vType="car" speedFactor="0.89" vaporized=""/>
    <tripinfo id="flow_route_124_duration_20250327_2140.2" depart="8.00" departLane="189240000#0-AddedOnRampEdge_0" departPos="28.49" departSpeed="0.00" departDelay="0.94" arrival="39.00" arrivalLane="1254519225#0.109_3" arrivalPos="33.96" arrivalSpeed="15.94" duration="31.00" routeLength="250.50" waitingTime="0.00" waitingCount="0" stopTime="0.00" timeLoss="13.98" rerouteNo="0" devices="tripinfo_flow_route_124_duration_20250327_2140.2" vType="car" speedFactor="0.99" vaporized=""/>
    <tripinfo id="flow_route_95_duration_20250327_2140.5" depart="20.00" departLane="1341093416#0_0" departPos="261.83" departSpeed="0.00" departDelay="0.00" arrival="40.00" arrivalLane="1254519225#0.109_0" arrivalPos="36.19" arrivalSpeed="14.62" duration="20.00" routeLength="156.74" waitingTime="0.00" waitingCount="0" stopTime="0.00" timeLoss="9.18" rerouteNo="0" devices="tripinfo_flow_route_95_duration_20250327_2140.5" vType="car" speedFactor="0.95" vaporized=""/>
    <tripinfo id="flow_route_124_duration_20250327_2140.4" depart="15.00" departLane="189240000#0-AddedOnRampEdge_0" departPos="53.97" departSpeed="0.00" departDelay="0.88" arrival="42.00" arrivalLane="1254519225#0.109_3" arrivalPos="13.92" arrivalSpeed="13.94" duration="27.00" routeLength="204.99" waitingTime="0.00" waitingCount="0" stopTime="0.00" timeLoss="13.04" rerouteNo="0" devices="tripinfo_flow_route_124_duration_20250327_2140.4" vType="car" speedFactor="1.01" vaporized=""/>
    <tripinfo id="flow_route_124_duration_20250327_2140.5" depart="18.00" departLane="189240000#0-AddedOnRampEdge_0" departPos="88.28" departSpeed="0.00" departDelay="0.36" arrival="42.00" arrivalLane="1254519225#0.109_3" arrivalPos="37.20" arrivalSpeed="13.71" duration="24.00" routeLength="193.95" waitingTime="0.00" waitingCount="0" stopTime="0.00" timeLoss="8.00" rerouteNo="0" devices="tripinfo_flow_route_124_duration_20250327_2140.5" vType="car" speedFactor="0.83" vaporized=""/>
    <tripinfo id="flow_route_95_duration_20250327_2140.1" depart="4.00" departLane="1341093416#0_0" departPos="84.19" departSpeed="0.00" departDelay="0.00" arrival="43.00" arrivalLane="1254519225#0.109_0" arrivalPos="42.65" arrivalSpeed="14.16" duration="39.00" routeLength="340.83" waitingTime="0.00" waitingCount="0" stopTime="0.00" timeLoss="14.95" rerouteNo="0" devices="tripinfo_flow_route_95_duration_20250327_2140.1" vType="car" speedFactor="0.86" vaporized=""/>
    <tripinfo id="flow_route_111_duration_20250327_2140.1" depart="5.00" departLane="1253188486#8_0" departPos="202.24" departSpeed="0.00" departDelay="1.25" arrival="45.00" arrivalLane="1254519229#0_0" arrivalPos="3.68" arrivalSpeed="6.71" duration="40.00" routeLength="77.66" waitingTime="19.00" waitingCount="1" stopTime="0.00" timeLoss="35.32" rerouteNo="0" devices="tripinfo_flow_route_111_duration_20250327_2140.1" vType="car" speedFactor="1.09" vaporized=""/>
    <tripinfo id="flow_route_111_duration_20250327_2140.0" depart="0.00" departLane="1253188486#8_0" departPos="138.93" departSpeed="0.00" departDelay="0.00" arrival="46.00" arrivalLane="1254519229#0_0" arrivalPos="3.47" arrivalSpeed="7.68" duration="46.00" routeLength="140.76" waitingTime="18.00" waitingCount="1" stopTime="0.00" timeLoss="37.14" rerouteNo="0" devices="tripinfo_flow_route_111_duration_20250327_2140.0" vType="car" speedFactor="0.83" vaporized=""/>
    <tripinfo id="flow_route_95_duration_20250327_2140.2" depart="8.00" departLane="1341093416#0_0" departPos="64.91" departSpeed="0.00" departDelay="0.00" arrival="46.00" arrivalLane="1254519225#0.109_0" arrivalPos="55.38" arrivalSpeed="16.34" duration="38.00" routeLength="372.84" waitingTime="0.00" waitingCount="0" stopTime="0.00" timeLoss="14.05" rerouteNo="0" devices="tripinfo_flow_route_95_duration_20250327_2140.2" vType="car" speedFactor="1.05" vaporized=""/>
    <tripinfo id="flow_route_124_duration_20250327_2140.3" depart="11.00" departLane="189240000#0-AddedOnRampEdge_0" departPos="2.82" departSpeed="0.00" departDelay="0.41" arrival="47.00" arrivalLane="1254519225#0.109_3" arrivalPos="59.68" arrivalSpeed="14.40" duration="36.00" routeLength="301.90" waitingTime="0.00" waitingCount="0" stopTime="0.00" timeLoss="13.65" rerouteNo="0" devices="tripinfo_flow_route_124_duration_20250327_2140.3" vType="car" speedFactor="0.88" vaporized=""/>
    <tripinfo id="flow_route_112_duration_20250327_2140.1" depart="12.00" departLane="1253188486#8_0" departPos="236.64" departSpeed="0.00" departDelay="0.00" arrival="48.00" arrivalLane="799091563#0_0" arrivalPos="49.13" arrivalSpeed="8.94" duration="36.00" routeLength="67.20" waitingTime="19.00" waitingCount="1" stopTime="0.00" timeLoss="31.33" rerouteNo="0" devices="tripinfo_flow_route_112_duration_20250327_2140.1" vType="car" speedFactor="1.16" vaporized=""/>
    <tripinfo id="flow_route_111_duration_20250327_2140.4" depart="17.00" departLane="1253188486#8_0" departPos="163.92" departSpeed="0.00" departDelay="2.00" arrival="50.00" arrivalLane="1254519229#0_0" arrivalPos="21.01" arrivalSpeed="8.96" duration="33.00" routeLength="133.31" waitingTime="5.00" waitingCount="1" stopTime="0.00" timeLoss="24.76" rerouteNo="0" devices="tripinfo_flow_route_111_duration_20250327_2140.4" vType="car" speedFactor="1.02" vaporized=""/>
    <tripinfo id="flow_route_111_duration_20250327_2140.3" depart="12.00" departLane="1253188486#8_0" departPos="100.92" departSpeed="0.00" departDelay="0.75" arrival="51.00" arrivalLane="1254519229#0_1" arrivalPos="26.36" arrivalSpeed="10.13" duration="39.00" routeLength="201.66" waitingTime="4.00" waitingCount="1" stopTime="0.00" timeLoss="26.55" rerouteNo="0" devices="tripinfo_flow_route_111_duration_20250327_2140.3" vType="car" speedFactor="0.94" vaporized=""/>
    <tripinfo id="flow_route_111_duration_20250327_2140.2" depart="8.00" departLane="1253188486#8_0" departPos="7.95" departSpeed="0.00" departDelay="0.50" arrival="53.00" arrivalLane="1254519229#0_0" arrivalPos="31.56" arrivalSpeed="10.98" duration="45.00" routeLength="299.82" waitingTime="2.00" waitingCount="1" stopTime="0.00" timeLoss="26.56" rerouteNo="0" devices="tripinfo_flow_route_111_duration_20250327_2140.2" vType="car" speedFactor="1.12" vaporized=""/>
    <tripinfo id="flow_route_111_duration_20250327_2140.6" depart="23.00" departLane="1253188486#8_0" departPos="6.83" departSpeed="0.00" departDelay="0.50" arrival="54.00" arrivalLane="1254519229#0_1" arrivalPos="12.08" arrivalSpeed="10.83" duration="31.00" routeLength="281.47" waitingTime="0.00" waitingCount="0" stopTime="0.00" timeLoss="13.42" rerouteNo="0" devices="tripinfo_flow_route_111_duration_20250327_2140.6" vType="car" speedFactor="0.93" vaporized=""/>
    <tripinfo id="flow_route_104_duration_20250327_2140.0" depart="0.00" departLane="189240001_0" departPos="36.52" departSpeed="0.00" departDelay="0.00" arrival="56.00" arrivalLane="1254519225#0.109_0" arrivalPos="30.66" arrivalSpeed="15.35" duration="56.00" routeLength="198.30" waitingTime="24.00" waitingCount="1" stopTime="0.00" timeLoss="43.60" rerouteNo="0" devices="tripinfo_flow_route_104_duration_20250327_2140.0" vType="car" speedFactor="1.08" vaporized=""/>
    <tripinfo id="flow_route_111_duration_20250327_2140.7" depart="27.00" departLane="1253188486#8_0" departPos="44.32" departSpeed="0.00" departDelay="0.75" arrival="56.00" arrivalLane="1254519229#0_1" arrivalPos="16.48" arrivalSpeed="12.02" duration="29.00" routeLength="248.38" waitingTime="0.00" waitingCount="0" stopTime="0.00" timeLoss="13.44" rerouteNo="0" devices="tripinfo_flow_route_111_duration_20250327_2140.7" vType="car" speedFactor="0.99" vaporized=""/>
    <tripinfo id="flow_route_111_duration_20250327_2140.5" depart="19.00" departLane="1253188486#8_0" departPos="75.51" departSpeed="0.00" departDelay="0.25" arrival="57.00" arrivalLane="1254519229#0_1" arrivalPos="76.38" arrivalSpeed="13.31" duration="38.00" routeLength="277.09" waitingTime="0.00" waitingCount="0" stopTime="0.00" timeLoss="21.04" rerouteNo="0" devices="tripinfo_flow_route_111_duration_20250327_2140.5" vType="car" speedFactor="0.87" vaporized=""/>
    <tripinfo id="flow_route_111_duration_20250327_2140.10" depart="41.00" departLane="1253188486#8_0" departPos="191.61" departSpeed="0.00" departDelay="3.50" arrival="58.00" arrivalLane="1254519229#0_0" arrivalPos="45.65" arrivalSpeed="14.26" duration="17.00" routeLength="130.25" waitingTime="0.00" waitingCount="0" stopTime="0.00" timeLoss="9.03" rerouteNo="0" devices="tripinfo_flow_route_111_duration_20250327_2140.10" vType="car" speedFactor="1.00" vaporized=""/>
    <tripinfo id="flow_route_111_duration_20250327_2140.8" depart="30.00" departLane="1253188486#8_0" departPos="95.62" departSpeed="0.00" departDelay="0.00" arrival="60.00" arrivalLane="1254519229#0_1" arrivalPos="54.00" arrivalSpeed="15.21" duration="30.00" routeLength="234.60" waitingTime="0.00" waitingCount="0" stopTime="0.00" timeLoss="15.82" rerouteNo="0" devices="tripinfo_flow_route_111_duration_20250327_2140.8" vType="car" speedFactor="1.10" vaporized=""/>
    <tripinfo id="flow_route_111_duration_20250327_2140.9" depart="34.00" departLane="1253188486#8_0" departPos="25.69" departSpeed="0.00" departDelay="0.25" arrival="60.00" arrivalLane="1254519229#0_1" arrivalPos="1.90" arrivalSpeed="16.16" duration="26.00" routeLength="252.43" waitingTime="0.00" waitingCount="0" stopTime="0.00" timeLoss="10.24" rerouteNo="0" devices="tripinfo_flow_route_111_duration_20250327_2140.9" vType="car" speedFactor="0.96" vaporized=""/>
    <tripinfo id="flow_route_112_duration_20250327_2140.0" depart="0.00" departLane="1253188486#8_0" departPos="64.90" departSpeed="0.00" departDelay="0.00" arrival="66.00" arrivalLane="799091563#0_0" arrivalPos="282.23" arrivalSpeed="16.10" duration="66.00" routeLength="472.04" waitingTime="14.00" waitingCount="1" stopTime="0.00" timeLoss="36.30" rerouteNo="0" devices="tripinfo_flow_route_112_duration_20250327_2140.0" vType="car" speedFactor="1.05" vaporized=""/>
    <tripinfo id="flow_route_111_duration_20250327_2140.13" depart="49.00" departLane="1253188486#8_0" departPos="210.15" departSpeed="0.00" departDelay="0.25" arrival="66.00" arrivalLane="1254519229#0_0" arrivalPos="47.16" arrivalSpeed="12.99" duration="17.00" routeLength="113.23" waitingTime="0.00" waitingCount="0" stopTime="0.00" timeLoss="9.84" rerouteNo="0" devices="tripinfo_flow_route_111_duration_20250327_2140.13" vType="car" speedFactor="1.02" vaporized=""/>
    <tripinfo id="flow_route_111_duration_20250327_2140.11" depart="42.00" departLane="1253188486#8_0" departPos="34.63" departSpeed="0.00" departDelay="0.75" arrival="68.00" arrivalLane="1254519229#0_1" arrivalPos="9.89" arrivalSpeed="16.29" duration="26.00" routeLength="251.48" waitingTime="0.00" waitingCount="0" stopTime="0.00" timeLoss="10.54" rerouteNo="0" devices="tripinfo_flow_route_111_duration_20250327_2140.11" vType="car" speedFactor="0.85" vaporized=""/>
    <tripinfo id="flow_route_111_duration_20250327_2140.12" depart="45.00" departLane="1253188486#8_0" departPos="84.53" departSpeed="0.00" departDelay="0.00" arrival="71.00" arrivalLane="1254519229#0_0" arrivalPos="67.28" arrivalSpeed="16.17" duration="26.00" routeLength="258.96" waitingTime="0.00" waitingCount="0" stopTime="0.00" timeLoss="9.66" rerouteNo="0" devices="tripinfo_flow_route_111_duration_20250327_2140.12" vType="car" speedFactor="1.00" vaporized=""/>
    <tripinfo id="flow_route_112_duration_20250327_2140.3" depart="36.00" departLane="1253188486#8_0" departPos="111.82" departSpeed="0.00" departDelay="0.00" arrival="74.00" arrivalLane="799091563#0_0" arrivalPos="187.08" arrivalSpeed="16.14" duration="38.00" routeLength="329.97" waitingTime="0.00" waitingCount="0" stopTime="0.00" timeLoss="17.24" rerouteNo="0" devices="tripinfo_flow_route_112_duration_20250327_2140.3" vType="car" speedFactor="1.04" vaporized=""/>
    <tripinfo id="flow_route_112_duration_20250327_2140.2" depart="24.00" departLane="1253188486#8_0" departPos="16.43" departSpeed="0.00" departDelay="0.00" arrival="77.00" arrivalLane="799091563#0_0" arrivalPos="207.62" arrivalSpeed="16.35" duration="53.00" routeLength="445.90" waitingTime="0.00" waitingCount="0" stopTime="0.00" timeLoss="24.98" rerouteNo="0" devices="tripinfo_flow_route_112_duration_20250327_2140.2" vType="car" speedFactor="1.15" vaporized=""/>
    <tripinfo id="flow_route_123_duration_20250327_2140.3" depart="26.00" departLane="189240000#0-AddedOnRampEdge_0" departPos="53.54" departSpeed="0.00" departDelay="0.29" arrival="85.00" arrivalLane="1254519229#0_0" arrivalPos="26.98" arrivalSpeed="8.31" duration="59.00" routeLength="115.76" waitingTime="32.00" waitingCount="1" stopTime="0.00" timeLoss="51.58" rerouteNo="0" devices="tripinfo_flow_route_123_duration_20250327_2140.3" vType="car" speedFactor="1.17" vaporized=""/>
    <tripinfo id="flow_route_123_duration_20250327_2140.4" depart="35.00" departLane="189240000#0-AddedOnRampEdge_0" departPos="59.03" departSpeed="0.00" departDelay="0.72" arrival="89.00" arrivalLane="1254519229#0_0" arrivalPos="69.67" arrivalSpeed="11.53" duration="54.00" routeLength="156.48" waitingTime="24.00" waitingCount="1" stopTime="0.00" timeLoss="44.17" rerouteNo="0" devices="tripinfo_flow_route_123_duration_20250327_2140.4" vType="car" speedFactor="1.09" vaporized=""/>
    <tripinfo id="flow_route_123_duration_20250327_2140.5" depart="43.00" departLane="189240000#0-AddedOnRampEdge_0" departPos="4.02" departSpeed="0.00" departDelay="0.15" arrival="91.00" arrivalLane="1254519229#0_0" arrivalPos="70.18" arrivalSpeed="11.41" duration="48.00" routeLength="208.49" waitingTime="14.00" waitingCount="1" stopTime="0.00" timeLoss="35.13" rerouteNo="0" devices="tripinfo_flow_route_123_duration_20250327_2140.5" vType="car" speedFactor="1.17" vaporized=""/>
    <tripinfo id="flow_route_95_duration_20250327_2140.0" depart="0.00" departLane="1341093416#0_0" departPos="1.65" departSpeed="0.00" departDelay="0.00" arrival="93.00" arrivalLane="1254519225#0.109_0" arrivalPos="44.45" arrivalSpeed="15.27" duration="93.00" routeLength="425.17" waitingTime="39.00" waitingCount="1" stopTime="0.00" timeLoss="65.16" rerouteNo="0" devices="tripinfo_flow_route_95_duration_20250327_2140.0" vType="car" speedFactor="0.94" vaporized=""/>
    <tripinfo id="flow_route_123_duration_20250327_2140.6" depart="52.00" departLane="189240000#0-AddedOnRampEdge_0" departPos="45.57" departSpeed="0.00" departDelay="0.57" arrival="94.00" arrivalLane="1254519229#0_1" arrivalPos="78.05" arrivalSpeed="14.45" duration="42.00" routeLength="178.32" waitingTime="9.00" waitingCount="1" stopTime="0.00" timeLoss="30.18" rerouteNo="0" devices="tripinfo_flow_route_123_duration_20250327_2140.6" vType="car" speedFactor="1.12" vaporized=""/>
    <tripinfo id="flow_route_95_duration_20250327_2140.3" depart="12.00" departLane="1341093416#0_0" departPos="34.38" departSpeed="0.00" departDelay="0.00" arrival="95.00" arrivalLane="1254519225#0.109_0" arrivalPos="42.74" arrivalSpeed="15.26" duration="83.00" routeLength="390.73" waitingTime="34.00" waitingCount="1" stopTime="0.00" timeLoss="58.04" rerouteNo="0" devices="tripinfo_flow_route_95_duration_20250327_2140.3" vType="car" speedFactor="0.94" vaporized=""/>
    <tripinfo id="flow_route_96_duration_20250327_2140.1" depart="31.00" departLane="1341093416#0_0" departPos="140.61" departSpeed="0.00" departDelay="1.00" arrival="95.00" arrivalLane="1254519229#0_1" arrivalPos="16.90" arrivalSpeed="5.51" duration="64.00" routeLength="171.30" waitingTime="28.00" waitingCount="2" stopTime="0.00" timeLoss="52.90" rerouteNo="0" devices="tripinfo_flow_route_96_duration_20250327_2140.1" vType="car" speedFactor="1.18" vaporized=""/>
    <tripinfo id="flow_route_105_duration_20250327_2140.0" depart="1.00" departLane="189240001_0" departPos="25.23" departSpeed="0.00" departDelay="1.00" arrival="96.00" arrivalLane="799091563#0_2" arrivalPos="224.02" arrivalSpeed="16.14" duration="95.00" routeLength="308.35" waitingTime="49.00" waitingCount="2" stopTime="0.00" timeLoss="76.15" rerouteNo="0" devices="tripinfo_flow_route_105_duration_20250327_2140.0" vType="car" speedFactor="1.03" vaporized=""/>
    <tripinfo id="flow_route_95_duration_20250327_2140.11" depart="45.00" departLane="1341093416#0_0" departPos="247.98" departSpeed="0.00" departDelay="1.00" arrival="97.00" arrivalLane="1254519225#0.109_0" arrivalPos="42.13" arrivalSpeed="15.72" duration="52.00" routeLength="176.52" waitingTime="24.00" waitingCount="1" stopTime="0.00" timeLoss="40.40" rerouteNo="0" devices="tripinfo_flow_route_95_duration_20250327_2140.11" vType="car" speedFactor="1.10" vaporized=""/>
    <tripinfo id="flow_route_94_duration_20250327_2140.1" depart="20.00" departLane="1341093416#0_0" departPos="46.17" departSpeed="0.00" departDelay="0.00" arrival="98.00" arrivalLane="799091563#0_0" arrivalPos="187.04" arrivalSpeed="14.85" duration="78.00" routeLength="447.22" waitingTime="19.00" waitingCount="1" stopTime="0.00" timeLoss="49.21" rerouteNo="0" devices="tripinfo_flow_route_94_duration_20250327_2140.1" vType="car" speedFactor="0.92" vaporized=""/>
    <tripinfo id="flow_route_95_duration_20250327_2140.4" depart="16.00" departLane="1341093416#0_0" departPos="24.41" departSpeed="0.00" departDelay="0.00" arrival="99.00" arrivalLane="1254519225#0.109_0" arrivalPos="15.06" arrivalSpeed="14.90" duration="83.00" routeLength="373.02" waitingTime="23.00" waitingCount="1" stopTime="0.00" timeLoss="59.39" rerouteNo="0" devices="tripinfo_flow_route_95_duration_20250327_2140.4" vType="car" speedFactor="0.97" vaporized=""/>
    <tripinfo id="flow_route_95_duration_20250327_2140.9" depart="36.00" departLane="1341093416#0_0" departPos="194.88" departSpeed="0.00" departDelay="0.00" arrival="100.00" arrivalLane="1254519225#0.109_0" arrivalPos="57.70" arrivalSpeed="16.42" duration="64.00" routeLength="245.19" waitingTime="23.00" waitingCount="1" stopTime="0.00" timeLoss="48.09" rerouteNo="0" devices="tripinfo_flow_route_95_duration_20250327_2140.9" vType="car" speedFactor="1.04" vaporized=""/>
    <tripinfo id="flow_route_124_duration_20250327_2140.6" depart="22.00" departLane="189240000#0-AddedOnRampEdge_0" departPos="60.58" departSpeed="0.00" departDelay="0.83" arrival="101.00" arrivalLane="1254519225#0.109_3" arrivalPos="11.44" arrivalSpeed="13.26" duration="79.00" routeLength="195.89" waitingTime="43.00" waitingCount="2" stopTime="0.00" timeLoss="66.17" rerouteNo="0" devices="tripinfo_flow_route_124_duration_20250327_2140.6" vType="car" speedFactor="1.13" vaporized=""/>
    <tripinfo id="flow_route_95_duration_20250327_2140.7" depart="30.00" departLane="1341093416#0_0" departPos="116.04" departSpeed="0.00" departDelay="2.00" arrival="101.00" arrivalLane="1254519225#0.109_0" arrivalPos="2.92" arrivalSpeed="13.92" duration="71.00" routeLength="269.25" waitingTime="22.00" waitingCount="1" stopTime="0.00" timeLoss="53.36" rerouteNo="0" devices="tripinfo_flow_route_95_duration_20250327_2140.7" vType="car" speedFactor="1.02" vaporized=""/>
    <tripinfo id="flow_route_124_duration_20250327_2140.7" depart="25.00" departLane="189240000#0-AddedOnRampEdge_0" departPos="29.63" departSpeed="0.00" departDelay="0.30" arrival="103.00" arrivalLane="1254519225#0.109_3" arrivalPos="11.17" arrivalSpeed="13.70" duration="78.00" routeLength="226.56" waitingTime="37.00" waitingCount="2" stopTime="0.00" timeLoss="62.63" rerouteNo="0" devices="tripinfo_flow_route_124_duration_20250327_2140.7" vType="car" speedFactor="1.01" vaporized=""/>
    <tripinfo id="flow_route_94_duration_20250327_2140.2" depart="41.00" departLane="1341093416#0_0" departPos="77.10" departSpeed="0.00" departDelay="1.00" arrival="103.00" arrivalLane="799091563#0_1" arrivalPos="265.61" arrivalSpeed="14.20" duration="62.00" routeLength="494.85" waitingTime="6.00" waitingCount="1" stopTime="0.00" timeLoss="29.97" rerouteNo="0" devices="tripinfo_flow_route_94_duration_20250327_2140.2" vType="car" speedFactor="0.88" vaporized=""/>
    <tripinfo id="flow_route_124_duration_20250327_2140.10" depart="36.00" departLane="189240000#0-AddedOnRampEdge_0" departPos="82.50" departSpeed="0.00" departDelay="0.71" arrival="105.00" arrivalLane="1254519225#0.109_3" arrivalPos="26.52" arrivalSpeed="14.52" duration="69.00" routeLength="189.05" waitingTime="33.00" waitingCount="2" stopTime="0.00" timeLoss="56.65" rerouteNo="0" devices="tripinfo_flow_route_124_duration_20250327_2140.10" vType="car" speedFactor="1.09" vaporized=""/>
    <tripinfo id="flow_route_95_duration_20250327_2140.6" depart="26.00" departLane="1341093416#0_0" departPos="23.59" departSpeed="0.00" departDelay="2.00" arrival="106.00" arrivalLane="1254519225#0.109_0" arrivalPos="17.40" arrivalSpeed="14.60" duration="80.00" routeLength="376.18" waitingTime="22.00" waitingCount="1" stopTime="0.00" timeLoss="56.90" rerouteNo="0" devices="tripinfo_flow_route_95_duration_20250327_2140.6" vType="car" speedFactor="1.18" vaporized=""/>
    <tripinfo id="flow_route_95_duration_20250327_2140.8" depart="34.00" departLane="1341093416#0_0" departPos="83.01" departSpeed="0.00" departDelay="2.00" arrival="107.00" arrivalLane="1254519225#0.109_0" arrivalPos="51.50" arrivalSpeed="14.91" duration="73.00" routeLength="350.87" waitingTime="21.00" waitingCount="1" stopTime="0.00" timeLoss="49.34" rerouteNo="0" devices="tripinfo_flow_route_95_duration_20250327_2140.8" vType="car" speedFactor="0.90" vaporized=""/>
    <tripinfo id="flow_route_124_duration_20250327_2140.8" depart="29.00" departLane="189240000#0-AddedOnRampEdge_0" departPos="27.38" departSpeed="0.00" departDelay="0.77" arrival="108.00" arrivalLane="1254519225#0.109_3" arrivalPos="45.04" arrivalSpeed="15.95" duration="79.00" routeLength="262.69" waitingTime="33.00" waitingCount="2" stopTime="0.00" timeLoss="61.53" rerouteNo="0" devices="tripinfo_flow_route_124_duration_20250327_2140.8" vType="car" speedFactor="0.97" vaporized=""/>
    <tripinfo id="flow_route_124_duration_20250327_2140.9" depart="32.00" departLane="189240000#0-AddedOnRampEdge_0" departPos="34.48" departSpeed="0.00" departDelay="0.24" arrival="110.00" arrivalLane="1254519225#0.109_3" arrivalPos="36.50" arrivalSpeed="16.26" duration="78.00" routeLength="247.05" waitingTime="32.00" waitingCount="2" stopTime="0.00" timeLoss="61.30" rerouteNo="0" devices="tripinfo_flow_route_124_duration_20250327_2140.9" vType="car" speedFactor="1.03" vaporized=""/>
    <tripinfo id="flow_route_95_duration_20250327_2140.13" depart="53.00" departLane="1341093416#0_0" departPos="94.82" departSpeed="0.00" departDelay="1.00" arrival="110.00" arrivalLane="1254519225#0.109_0" arrivalPos="0.91" arrivalSpeed="13.78" duration="57.00" routeLength="288.46" waitingTime="12.00" waitingCount="1" stopTime="0.00" timeLoss="38.34" rerouteNo="0" devices="tripinfo_flow_route_95_duration_20250327_2140.13" vType="car" speedFactor="1.08" vaporized=""/>
    <tripinfo id="flow_route_95_duration_20250327_2140.12" depart="51.00" departLane="1341093416#0_0" departPos="150.60" departSpeed="0.00" departDelay="3.00" arrival="111.00" arrivalLane="1254519225#0.109_0" arrivalPos="36.75" arrivalSpeed="14.78" duration="60.00" routeLength="268.53" waitingTime="15.00" waitingCount="1" stopTime="0.00" timeLoss="41.26" rerouteNo="0" devices="tripinfo_flow_route_95_duration_20250327_2140.12" vType="car" speedFactor="0.90" vaporized=""/>
    <tripinfo id="flow_route_95_duration_20250327_2140.10" depart="45.00" departLane="1341093416#0_0" departPos="42.11" departSpeed="0.00" departDelay="5.00" arrival="113.00" arrivalLane="1254519225#0.109_0" arrivalPos="6.33" arrivalSpeed="13.87" duration="68.00" routeLength="346.60" waitingTime="11.00" waitingCount="1" stopTime="0.00" timeLoss="44.64" rerouteNo="0" devices="tripinfo_flow_route_95_duration_20250327_2140.10" vType="car" speedFactor="0.85" vaporized=""/>
    <tripinfo id="flow_route_124_duration_20250327_2140.14" depart="50.00" departLane="189240000#0-AddedOnRampEdge_0" departPos="89.20" departSpeed="0.00" departDelay="0.59" arrival="115.00" arrivalLane="1254519225#0.109_3" arrivalPos="40.00" arrivalSpeed="15.77" duration="65.00" routeLength="195.83" waitingTime="31.00" waitingCount="4" stopTime="0.00" timeLoss="51.36" rerouteNo="0" devices="tripinfo_flow_route_124_duration_20250327_2140.14" vType="car" speedFactor="0.97" vaporized=""/>
    <tripinfo id="flow_route_124_duration_20250327_2140.11" depart="39.00" departLane="189240000#0-AddedOnRampEdge_0" departPos="32.37" departSpeed="0.00" departDelay="0.18" arrival="118.00" arrivalLane="1254519225#0.109_3" arrivalPos="18.49" arrivalSpeed="14.76" duration="79.00" routeLength="231.15" waitingTime="32.00" waitingCount="3" stopTime="0.00" timeLoss="62.05" rerouteNo="0" devices="tripinfo_flow_route_124_duration_20250327_2140.11" vType="car" speedFactor="0.90" vaporized=""/>
    <tripinfo id="flow_route_95_duration_20250327_2140.14" depart="67.00" departLane="1341093416#0_0" departPos="91.26" departSpeed="0.00" departDelay="11.00" arrival="118.00" arrivalLane="1254519225#0.109_0" arrivalPos="41.09" arrivalSpeed="15.41" duration="51.00" routeLength="332.20" waitingTime="3.00" waitingCount="1" stopTime="0.00" timeLoss="28.71" rerouteNo="0" devices="tripinfo_flow_route_95_duration_20250327_2140.14" vType="car" speedFactor="0.94" vaporized=""/>
    <tripinfo id="flow_route_111_duration_20250327_2140.15" depart="57.00" departLane="1253188486#8_0" departPos="101.05" departSpeed="0.00" departDelay="0.75" arrival="119.00" arrivalLane="1254519229#0_1" arrivalPos="0.93" arrivalSpeed="7.04" duration="62.00" routeLength="176.10" waitingTime="29.00" waitingCount="1" stopTime="0.00" timeLoss="51.14" rerouteNo="0" devices="tripinfo_flow_route_111_duration_20250327_2140.15" vType="car" speedFactor="0.88" vaporized=""/>