<?xml version="1.0" encoding="UTF-8"?>

<!-- generated on 2025-05-06 21:07:41 by Eclipse SUMO sumo Version 1.20.0
<configuration xmlns:xsi="http://www.w3.org/2001/XMLSchema-instance" xsi:noNamespaceSchemaLocation="http://sumo.dlr.de/xsd/sumoConfiguration.xsd">

    <input>
        <net-file value="osm.net.xml"/>
        <route-files value="xml/route_rl_cluster_356722183_3828703848_0.rou.xml"/>
    </input>

    <output>
        <tripinfo-output value="xml/tripinfo_rl_cluster_356722183_3828703848_0.xml"/>
    </output>

    <traci_server>
        <remote-port value="39579"/>
    </traci_server>

</configuration>
-->

<tripinfos xmlns:xsi="http://www.w3.org/2001/XMLSchema-instance" xsi:noNamespaceSchemaLocation="http://sumo.dlr.de/xsd/tripinfo_file.xsd">
    <tripinfo id="flow_route_18_duration_20250327_2130.0" depart="0.00" departLane="133126040#0_0" departPos="80.59" departSpeed="0.00" departDelay="0.00" arrival="13.00" arrivalLane="1318893695#0_0" arrivalPos="9.11" arrivalSpeed="10.19" duration="13.00" routeLength="59.37" waitingTime="0.00" waitingCount="0" stopTime="0.00" timeLoss="8.89" rerouteNo="0" devices="tripinfo_flow_route_18_duration_20250327_2130.0" vType="car" speedFactor="1.01" vaporized=""/>
    <tripinfo id="flow_route_1_duration_20250327_2130.0" depart="4.00" departLane="1318793176#1_0" departPos="0.49" departSpeed="0.00" departDelay="4.00" arrival="28.00" arrivalLane="1318793173#0_1" arrivalPos="77.00" arrivalSpeed="15.18" duration="24.00" routeLength="200.41" waitingTime="0.00" waitingCount="0" stopTime="0.00" timeLoss="10.54" rerouteNo="0" devices="tripinfo_flow_route_1_duration_20250327_2130.0" vType="car" speedFactor="0.94" vaporized=""/>
    <tripinfo id="flow_route_0_duration_20250327_2130.1" depart="8.00" departLane="1318793176#1_0" departPos="0.35" departSpeed="0.00" departDelay="3.00" arrival="35.00" arrivalLane="133126031#0_0" arrivalPos="102.11" arrivalSpeed="15.91" duration="27.00" routeLength="222.19" waitingTime="1.00" waitingCount="1" stopTime="0.00" timeLoss="12.23" rerouteNo="0" devices="tripinfo_flow_route_0_duration_20250327_2130.1" vType="car" speedFactor="0.89" vaporized=""/>
    <tripinfo id="flow_route_0_duration_20250327_2130.0" depart="0.00" departLane="1318793176#1_0" departPos="2.64" departSpeed="0.00" departDelay="0.00" arrival="36.00" arrivalLane="133126031#0_0" arrivalPos="296.30" arrivalSpeed="16.22" duration="36.00" routeLength="414.08" waitingTime="0.00" waitingCount="0" stopTime="0.00" timeLoss="10.51" rerouteNo="0" devices="tripinfo_flow_route_0_duration_20250327_2130.0" vType="car" speedFactor="1.06" vaporized=""/>
    <tripinfo id="flow_route_0_duration_20250327_2130.2" depart="14.00" departLane="1318793176#1_0" departPos="1.38" departSpeed="0.00" departDelay="4.00" arrival="39.00" arrivalLane="133126031#0_0" arrivalPos="100.35" arrivalSpeed="15.98" duration="25.00" routeLength="219.39" waitingTime="0.00" waitingCount="0" stopTime="0.00" timeLoss="10.63" rerouteNo="0" devices="tripinfo_flow_route_0_duration_20250327_2130.2" vType="car" speedFactor="0.94" vaporized=""/>
    <tripinfo id="flow_route_0_duration_20250327_2130.3" depart="19.00" departLane="1318793176#1_0" departPos="2.58" departSpeed="0.00" departDelay="4.00" arrival="39.00" arrivalLane="133126031#0_0" arrivalPos="41.70" arrivalSpeed="15.38" duration="20.00" routeLength="159.54" waitingTime="0.00" waitingCount="0" stopTime="0.00" timeLoss="10.04" rerouteNo="0" devices="tripinfo_flow_route_0_duration_20250327_2130.3" vType="car" speedFactor="1.09" vaporized=""/>
    <tripinfo id="flow_route_19_duration_20250327_2130.0" depart="0.00" departLane="133126040#0_0" departPos="0.65" departSpeed="0.00" departDelay="0.00" arrival="45.00" arrivalLane="133126031#0_1" arrivalPos="163.43" arrivalSpeed="16.15" duration="45.00" routeLength="291.65" waitingTime="4.00" waitingCount="1" stopTime="0.00" timeLoss="25.39" rerouteNo="0" devices="tripinfo_flow_route_19_duration_20250327_2130.0" vType="car" speedFactor="1.08" vaporized=""/>
    <tripinfo id="flow_route_19_duration_20250327_2130.2" depart="24.00" departLane="133126040#0_0" departPos="103.83" departSpeed="0.00" departDelay="0.00" arrival="54.00" arrivalLane="133126031#0_1" arrivalPos="229.99" arrivalSpeed="16.13" duration="30.00" routeLength="255.04" waitingTime="3.00" waitingCount="1" stopTime="0.00" timeLoss="13.42" rerouteNo="0" devices="tripinfo_flow_route_19_duration_20250327_2130.2" vType="car" speedFactor="1.12" vaporized=""/>
    <tripinfo id="flow_route_0_duration_20250327_2130.6" depart="32.00" departLane="1318793176#1_0" departPos="0.92" departSpeed="0.00" departDelay="2.00" arrival="54.00" arrivalLane="133126031#0_0" arrivalPos="50.49" arrivalSpeed="13.91" duration="22.00" routeLength="169.99" waitingTime="0.00" waitingCount="0" stopTime="0.00" timeLoss="10.44" rerouteNo="0" devices="tripinfo_flow_route_0_duration_20250327_2130.6" vType="car" speedFactor="0.93" vaporized=""/>
    <tripinfo id="flow_route_0_duration_20250327_2130.5" depart="31.00" departLane="1318793176#1_0" departPos="10.60" departSpeed="0.00" departDelay="6.00" arrival="55.00" arrivalLane="133126031#0_0" arrivalPos="102.35" arrivalSpeed="16.51" duration="24.00" routeLength="212.18" waitingTime="0.00" waitingCount="0" stopTime="0.00" timeLoss="10.22" rerouteNo="0" devices="tripinfo_flow_route_0_duration_20250327_2130.5" vType="car" speedFactor="0.99" vaporized=""/>
    <tripinfo id="flow_route_19_duration_20250327_2130.1" depart="12.00" departLane="133126040#0_0" departPos="74.10" departSpeed="0.00" departDelay="0.00" arrival="56.00" arrivalLane="133126031#0_1" arrivalPos="318.11" arrivalSpeed="16.47" duration="44.00" routeLength="372.89" waitingTime="2.00" waitingCount="1" stopTime="0.00" timeLoss="18.91" rerouteNo="0" devices="tripinfo_flow_route_19_duration_20250327_2130.1" vType="car" speedFactor="0.86" vaporized=""/>
    <tripinfo id="flow_route_0_duration_20250327_2130.4" depart="25.00" departLane="1318793176#1_0" departPos="5.26" departSpeed="0.00" departDelay="5.00" arrival="60.00" arrivalLane="133126031#0_0" arrivalPos="269.93" arrivalSpeed="16.26" duration="35.00" routeLength="385.09" waitingTime="0.00" waitingCount="0" stopTime="0.00" timeLoss="11.07" rerouteNo="0" devices="tripinfo_flow_route_0_duration_20250327_2130.4" vType="car" speedFactor="1.05" vaporized=""/>
    <tripinfo id="flow_route_0_duration_20250327_2130.7" depart="40.00" departLane="1318793176#1_0" departPos="0.25" departSpeed="0.00" departDelay="5.00" arrival="65.00" arrivalLane="133126031#0_0" arrivalPos="117.01" arrivalSpeed="16.19" duration="25.00" routeLength="237.17" waitingTime="0.00" waitingCount="0" stopTime="0.00" timeLoss="10.24" rerouteNo="0" devices="tripinfo_flow_route_0_duration_20250327_2130.7" vType="car" speedFactor="1.16" vaporized=""/>
    <tripinfo id="flow_route_19_duration_20250327_2130.3" depart="36.00" departLane="133126040#0_0" departPos="42.16" departSpeed="0.00" departDelay="0.00" arrival="69.00" arrivalLane="133126031#0_1" arrivalPos="225.69" arrivalSpeed="16.34" duration="33.00" routeLength="312.41" waitingTime="0.00" waitingCount="0" stopTime="0.00" timeLoss="12.89" rerouteNo="0" devices="tripinfo_flow_route_19_duration_20250327_2130.3" vType="car" speedFactor="1.02" vaporized=""/>
    <tripinfo id="flow_route_0_duration_20250327_2130.10" depart="54.00" departLane="1318793176#1_0" departPos="1.33" departSpeed="0.00" departDelay="4.00" arrival="75.00" arrivalLane="133126031#0_0" arrivalPos="33.76" arrivalSpeed="12.21" duration="21.00" routeLength="152.85" waitingTime="0.00" waitingCount="0" stopTime="0.00" timeLoss="9.92" rerouteNo="0" devices="tripinfo_flow_route_0_duration_20250327_2130.10" vType="car" speedFactor="0.87" vaporized=""/>
    <tripinfo id="flow_route_19_duration_20250327_2130.4" depart="48.00" departLane="133126040#0_0" departPos="37.09" departSpeed="0.00" departDelay="0.00" arrival="76.00" arrivalLane="133126031#0_1" arrivalPos="98.54" arrivalSpeed="13.73" duration="28.00" routeLength="190.33" waitingTime="0.00" waitingCount="0" stopTime="0.00" timeLoss="13.19" rerouteNo="0" devices="tripinfo_flow_route_19_duration_20250327_2130.4" vType="car" speedFactor="0.83" vaporized=""/>
    <tripinfo id="flow_route_0_duration_20250327_2130.9" depart="50.00" departLane="1318793176#1_0" departPos="4.98" departSpeed="0.00" departDelay="5.00" arrival="79.00" arrivalLane="133126031#0_0" arrivalPos="163.84" arrivalSpeed="16.19" duration="29.00" routeLength="279.28" waitingTime="0.00" waitingCount="0" stopTime="0.00" timeLoss="11.09" rerouteNo="0" devices="tripinfo_flow_route_0_duration_20250327_2130.9" vType="car" speedFactor="0.97" vaporized=""/>
    <tripinfo id="flow_route_0_duration_20250327_2130.8" depart="46.00" departLane="1318793176#1_0" departPos="9.33" departSpeed="0.00" departDelay="6.00" arrival="84.00" arrivalLane="133126031#0_0" arrivalPos="324.84" arrivalSpeed="16.52" duration="38.00" routeLength="435.93" waitingTime="0.00" waitingCount="0" stopTime="0.00" timeLoss="10.84" rerouteNo="0" devices="tripinfo_flow_route_0_duration_20250327_2130.8" vType="car" speedFactor="1.01" vaporized=""/>
    <tripinfo id="flow_route_48_duration_20250327_2130.0" depart="2.00" departLane="380351865#0_0" departPos="1.03" departSpeed="0.00" departDelay="2.00" arrival="85.00" arrivalLane="133126031#0_0" arrivalPos="14.50" arrivalSpeed="8.85" duration="83.00" routeLength="180.64" waitingTime="49.00" waitingCount="1" stopTime="0.00" timeLoss="64.81" rerouteNo="0" devices="tripinfo_flow_route_48_duration_20250327_2130.0" vType="car" speedFactor="0.83" vaporized=""/>
    <tripinfo id="flow_route_47_duration_20250327_2130.0" depart="0.00" departLane="380351865#0_0" departPos="11.49" departSpeed="0.00" departDelay="0.00" arrival="89.00" arrivalLane="1318793173#0_1" arrivalPos="63.76" arrivalSpeed="11.58" duration="89.00" routeLength="213.71" waitingTime="54.00" waitingCount="1" stopTime="0.00" timeLoss="72.00" rerouteNo="0" devices="tripinfo_flow_route_47_duration_20250327_2130.0" vType="car" speedFactor="1.03" vaporized=""/>
    <tripinfo id="flow_route_47_duration_20250327_2130.1" depart="30.00" departLane="380351865#0_0" departPos="1.14" departSpeed="0.00" departDelay="0.00" arrival="90.00" arrivalLane="1318793173#0_1" arrivalPos="30.13" arrivalSpeed="10.71" duration="60.00" routeLength="190.43" waitingTime="24.00" waitingCount="1" stopTime="0.00" timeLoss="42.89" rerouteNo="0" devices="tripinfo_flow_route_47_duration_20250327_2130.1" vType="car" speedFactor="0.94" vaporized=""/>
    <tripinfo id="flow_route_49_duration_20250327_2130.0" depart="8.00" departLane="380351865#0_0" departPos="4.04" departSpeed="0.00" departDelay="8.00" arrival="95.00" arrivalLane="1318893695#0_0" arrivalPos="148.83" arrivalSpeed="15.15" duration="87.00" routeLength="288.67" waitingTime="48.00" waitingCount="1" stopTime="0.00" timeLoss="65.39" rerouteNo="0" devices="tripinfo_flow_route_49_duration_20250327_2130.0" vType="car" speedFactor="1.05" vaporized=""/>
    <tripinfo id="flow_route_48_duration_20250327_2130.1" depart="15.00" departLane="380351865#0_0" departPos="4.51" departSpeed="0.00" departDelay="0.00" arrival="96.00" arrivalLane="133126031#0_1" arrivalPos="136.79" arrivalSpeed="16.26" duration="81.00" routeLength="299.46" waitingTime="39.00" waitingCount="1" stopTime="0.00" timeLoss="58.72" rerouteNo="0" devices="tripinfo_flow_route_48_duration_20250327_2130.1" vType="car" speedFactor="1.03" vaporized=""/>
    <tripinfo id="flow_route_48_duration_20250327_2130.3" depart="45.00" departLane="380351865#0_0" departPos="7.78" departSpeed="0.00" departDelay="0.00" arrival="100.00" arrivalLane="133126031#0_1" arrivalPos="141.37" arrivalSpeed="16.39" duration="55.00" routeLength="300.76" waitingTime="13.00" waitingCount="1" stopTime="0.00" timeLoss="31.31" rerouteNo="0" devices="tripinfo_flow_route_48_duration_20250327_2130.3" vType="car" speedFactor="0.89" vaporized=""/>
    <tripinfo id="flow_route_48_duration_20250327_2130.2" depart="37.00" departLane="380351865#0_0" departPos="14.09" departSpeed="0.00" departDelay="7.00" arrival="106.00" arrivalLane="133126031#0_0" arrivalPos="181.83" arrivalSpeed="16.14" duration="69.00" routeLength="334.91" waitingTime="20.00" waitingCount="1" stopTime="0.00" timeLoss="43.57" rerouteNo="0" devices="tripinfo_flow_route_48_duration_20250327_2130.2" vType="car" speedFactor="0.94" vaporized=""/>
    <tripinfo id="flow_route_0_duration_20250327_2130.11" depart="59.00" departLane="1318793176#1_0" departPos="0.45" departSpeed="0.00" departDelay="4.00" arrival="107.00" arrivalLane="133126031#0_0" arrivalPos="237.20" arrivalSpeed="16.40" duration="48.00" routeLength="357.16" waitingTime="4.00" waitingCount="1" stopTime="0.00" timeLoss="25.10" rerouteNo="0" devices="tripinfo_flow_route_0_duration_20250327_2130.11" vType="car" speedFactor="0.92" vaporized=""/>
    <tripinfo id="flow_route_1_duration_20250327_2130.1" depart="38.00" departLane="1318793176#1_0" departPos="6.25" departSpeed="0.00" departDelay="8.00" arrival="119.00" arrivalLane="1318793173#0_1" arrivalPos="3.01" arrivalSpeed="6.61" duration="81.00" routeLength="120.66" waitingTime="57.00" waitingCount="1" stopTime="0.00" timeLoss="72.66" rerouteNo="0" devices="tripinfo_flow_route_1_duration_20250327_2130.1" vType="car" speedFactor="0.88" vaporized=""/>
</tripinfos>
