<?xml version="1.0" encoding="UTF-8"?>

<!-- generated on 2025-05-06 21:07:51 by Eclipse SUMO sumo Version 1.20.0
<configuration xmlns:xsi="http://www.w3.org/2001/XMLSchema-instance" xsi:noNamespaceSchemaLocation="http://sumo.dlr.de/xsd/sumoConfiguration.xsd">

    <input>
        <net-file value="osm.net.xml"/>
        <route-files value="xml/route_rl_11644940310_1.rou.xml"/>
    </input>

    <output>
        <tripinfo-output value="xml/tripinfo_rl_11644940310_1.xml"/>
    </output>

    <traci_server>
        <remote-port value="49195"/>
    </traci_server>

</configuration>
-->

<tripinfos xmlns:xsi="http://www.w3.org/2001/XMLSchema-instance" xsi:noNamespaceSchemaLocation="http://sumo.dlr.de/xsd/tripinfo_file.xsd">
    <tripinfo id="flow_route_27_duration_20250327_1920.0" depart="0.00" departLane="1254771874#0_0" departPos="190.47" departSpeed="0.00" departDelay="0.00" arrival="17.00" arrivalLane="138002006#0_1" arrivalPos="4.04" arrivalSpeed="7.72" duration="17.00" routeLength="85.46" waitingTime="0.00" waitingCount="0" stopTime="0.00" timeLoss="11.19" rerouteNo="0" devices="tripinfo_flow_route_27_duration_20250327_1920.0" vType="car" speedFactor="1.01" vaporized=""/>
    <tripinfo id="flow_route_27_duration_20250327_1920.1" depart="2.00" departLane="1254771874#0_0" departPos="223.82" departSpeed="0.00" departDelay="0.33" arrival="17.00" arrivalLane="138002006#0_1" arrivalPos="23.48" arrivalSpeed="10.08" duration="15.00" routeLength="71.55" waitingTime="0.00" waitingCount="0" stopTime="0.00" timeLoss="9.06" rerouteNo="0" devices="tripinfo_flow_route_27_duration_20250327_1920.1" vType="car" speedFactor="0.89" vaporized=""/>
    <tripinfo id="flow_route_27_duration_20250327_1920.3" depart="6.00" departLane="1254771874#0_0" departPos="210.71" departSpeed="0.00" departDelay="1.00" arrival="29.00" arrivalLane="138002006#0_1" arrivalPos="27.26" arrivalSpeed="8.54" duration="23.00" routeLength="88.44" waitingTime="1.00" waitingCount="1" stopTime="0.00" timeLoss="16.99" rerouteNo="0" devices="tripinfo_flow_route_27_duration_20250327_1920.3" vType="car" speedFactor="1.09" vaporized=""/>
    <tripinfo id="flow_route_27_duration_20250327_1920.5" depart="9.00" departLane="1254771874#0_0" departPos="244.52" departSpeed="0.00" departDelay="0.67" arrival="31.00" arrivalLane="138002006#0_1" arrivalPos="67.86" arrivalSpeed="11.59" duration="22.00" routeLength="95.23" waitingTime="1.00" waitingCount="1" stopTime="0.00" timeLoss="14.78" rerouteNo="0" devices="tripinfo_flow_route_27_duration_20250327_1920.5" vType="car" speedFactor="0.93" vaporized=""/>
    <tripinfo id="flow_route_27_duration_20250327_1920.11" depart="19.00" departLane="1254771874#0_0" departPos="237.24" departSpeed="0.00" departDelay="0.67" arrival="33.00" arrivalLane="138002006#0_1" arrivalPos="2.47" arrivalSpeed="5.92" duration="14.00" routeLength="37.12" waitingTime="1.00" waitingCount="1" stopTime="0.00" timeLoss="11.14" rerouteNo="0" devices="tripinfo_flow_route_27_duration_20250327_1920.11" vType="car" speedFactor="1.13" vaporized=""/>
    <tripinfo id="flow_route_27_duration_20250327_1920.12" depart="20.00" departLane="1254771874#0_0" departPos="253.64" departSpeed="0.00" departDelay="0.01" arrival="33.00" arrivalLane="138002006#0_1" arrivalPos="15.89" arrivalSpeed="6.73" duration="13.00" routeLength="34.13" waitingTime="0.00" waitingCount="0" stopTime="0.00" timeLoss="10.38" rerouteNo="0" devices="tripinfo_flow_route_27_duration_20250327_1920.12" vType="car" speedFactor="1.18" vaporized=""/>
    <tripinfo id="flow_route_25_duration_20250327_1920.0" depart="0.00" departLane="1254771874#0_0" departPos="63.27" departSpeed="0.00" departDelay="0.00" arrival="36.00" arrivalLane="1341093415#0_1" arrivalPos="158.81" arrivalSpeed="16.46" duration="36.00" routeLength="373.33" waitingTime="0.00" waitingCount="0" stopTime="0.00" timeLoss="13.22" rerouteNo="0" devices="tripinfo_flow_route_25_duration_20250327_1920.0" vType="car" speedFactor="1.06" vaporized=""/>
    <tripinfo id="flow_route_26_duration_20250327_1920.0" depart="0.00" departLane="1254771874#0_0" departPos="139.38" departSpeed="0.00" departDelay="0.00" arrival="37.00" arrivalLane="-422986370#2_0" arrivalPos="213.43" arrivalSpeed="15.24" duration="37.00" routeLength="338.64" waitingTime="0.00" waitingCount="0" stopTime="0.00" timeLoss="14.98" rerouteNo="0" devices="tripinfo_flow_route_26_duration_20250327_1920.0" vType="car" speedFactor="0.94" vaporized=""/>
    <tripinfo id="flow_route_25_duration_20250327_1920.1" depart="9.00" departLane="1254771874#0_0" departPos="40.67" departSpeed="0.00" departDelay="0.43" arrival="40.00" arrivalLane="1341093415#0_1" arrivalPos="53.79" arrivalSpeed="16.47" duration="31.00" routeLength="290.90" waitingTime="0.00" waitingCount="0" stopTime="0.00" timeLoss="12.66" rerouteNo="0" devices="tripinfo_flow_route_25_duration_20250327_1920.1" vType="car" speedFactor="0.99" vaporized=""/>
    <tripinfo id="flow_route_27_duration_20250327_1920.4" depart="7.00" departLane="1254771874#0_0" departPos="60.51" departSpeed="0.00" departDelay="0.34" arrival="42.00" arrivalLane="138002006#0_1" arrivalPos="35.20" arrivalSpeed="9.99" duration="35.00" routeLength="246.58" waitingTime="0.00" waitingCount="0" stopTime="0.00" timeLoss="19.16" rerouteNo="0" devices="tripinfo_flow_route_27_duration_20250327_1920.4" vType="car" speedFactor="1.05" vaporized=""/>
    <tripinfo id="flow_route_27_duration_20250327_1920.8" depart="14.00" departLane="1254771874#0_0" departPos="170.79" departSpeed="0.00" departDelay="0.67" arrival="43.00" arrivalLane="138002006#0_1" arrivalPos="72.05" arrivalSpeed="12.73" duration="29.00" routeLength="173.16" waitingTime="0.00" waitingCount="0" stopTime="0.00" timeLoss="17.57" rerouteNo="0" devices="tripinfo_flow_route_27_duration_20250327_1920.8" vType="car" speedFactor="1.01" vaporized=""/>
    <tripinfo id="flow_route_25_duration_20250327_1920.2" depart="18.00" departLane="1254771874#0_0" departPos="164.02" departSpeed="0.00" departDelay="0.86" arrival="46.00" arrivalLane="1341093415#0_0" arrivalPos="170.20" arrivalSpeed="16.39" duration="28.00" routeLength="283.97" waitingTime="0.00" waitingCount="0" stopTime="0.00" timeLoss="10.64" rerouteNo="0" devices="tripinfo_flow_route_25_duration_20250327_1920.2" vType="car" speedFactor="0.92" vaporized=""/>
    <tripinfo id="flow_route_50_duration_20250327_1920.0" depart="0.00" departLane="-138002006#3_0" departPos="41.39" departSpeed="0.00" departDelay="0.00" arrival="49.00" arrivalLane="-422986370#2_0" arrivalPos="13.06" arrivalSpeed="7.10" duration="49.00" routeLength="82.72" waitingTime="26.00" waitingCount="1" stopTime="0.00" timeLoss="42.55" rerouteNo="0" devices="tripinfo_flow_route_50_duration_20250327_1920.0" vType="car" speedFactor="0.83" vaporized=""/>
    <tripinfo id="flow_route_26_duration_20250327_1920.1" depart="15.00" departLane="1254771874#0_0" departPos="176.79" departSpeed="0.00" departDelay="0.00" arrival="49.00" arrivalLane="-422986370#2_0" arrivalPos="214.35" arrivalSpeed="15.92" duration="34.00" routeLength="302.16" waitingTime="0.00" waitingCount="0" stopTime="0.00" timeLoss="13.93" rerouteNo="0" devices="tripinfo_flow_route_26_duration_20250327_1920.1" vType="car" speedFactor="0.97" vaporized=""/>
    <tripinfo id="flow_route_41_duration_20250327_1920.0" depart="0.00" departLane="1369578054_0" departPos="201.66" departSpeed="0.00" departDelay="0.00" arrival="52.00" arrivalLane="138002006#0_0" arrivalPos="52.37" arrivalSpeed="10.63" duration="52.00" routeLength="172.64" waitingTime="21.00" waitingCount="1" stopTime="0.00" timeLoss="41.35" rerouteNo="0" devices="tripinfo_flow_route_41_duration_20250327_1920.0" vType="car" speedFactor="1.03" vaporized=""/>
    <tripinfo id="flow_route_41_duration_20250327_1920.1" depart="4.00" departLane="1369578054_0" departPos="153.71" departSpeed="0.00" departDelay="0.84" arrival="55.00" arrivalLane="138002006#0_0" arrivalPos="60.68" arrivalSpeed="11.98" duration="51.00" routeLength="228.91" waitingTime="14.00" waitingCount="1" stopTime="0.00" timeLoss="34.52" rerouteNo="0" devices="tripinfo_flow_route_41_duration_20250327_1920.1" vType="car" speedFactor="0.86" vaporized=""/>
    <tripinfo id="flow_route_41_duration_20250327_1920.9" depart="29.00" departLane="1369578054_0" departPos="262.35" departSpeed="0.00" departDelay="0.59" arrival="57.00" arrivalLane="138002006#0_1" arrivalPos="86.71" arrivalSpeed="13.24" duration="28.00" routeLength="146.30" waitingTime="0.00" waitingCount="0" stopTime="0.00" timeLoss="18.91" rerouteNo="0" devices="tripinfo_flow_route_41_duration_20250327_1920.9" vType="car" speedFactor="1.03" vaporized=""/>
    <tripinfo id="flow_route_41_duration_20250327_1920.2" depart="7.00" departLane="1369578054_0" departPos="9.71" departSpeed="0.00" departDelay="0.69" arrival="58.00" arrivalLane="138002006#0_1" arrivalPos="48.32" arrivalSpeed="11.87" duration="51.00" routeLength="360.54" waitingTime="0.00" waitingCount="0" stopTime="0.00" timeLoss="28.63" rerouteNo="0" devices="tripinfo_flow_route_41_duration_20250327_1920.2" vType="car" speedFactor="1.12" vaporized=""/>
    <tripinfo id="flow_route_41_duration_20250327_1920.4" depart="14.00" departLane="1369578054_0" departPos="26.67" departSpeed="0.00" departDelay="1.37" arrival="58.00" arrivalLane="138002006#0_1" arrivalPos="14.91" arrivalSpeed="9.92" duration="44.00" routeLength="310.16" waitingTime="0.00" waitingCount="0" stopTime="0.00" timeLoss="25.30" rerouteNo="0" devices="tripinfo_flow_route_41_duration_20250327_1920.4" vType="car" speedFactor="1.02" vaporized=""/>
    <tripinfo id="flow_route_41_duration_20250327_1920.5" depart="16.00" departLane="1369578054_0" departPos="147.59" departSpeed="0.00" departDelay="0.22" arrival="59.00" arrivalLane="138002006#0_1" arrivalPos="85.21" arrivalSpeed="13.40" duration="43.00" routeLength="259.55" waitingTime="0.00" waitingCount="0" stopTime="0.00" timeLoss="23.35" rerouteNo="0" devices="tripinfo_flow_route_41_duration_20250327_1920.5" vType="car" speedFactor="0.83" vaporized=""/>
    <tripinfo id="flow_route_40_duration_20250327_1920.3" depart="19.00" departLane="1369578054_0" departPos="163.83" departSpeed="0.00" departDelay="1.00" arrival="59.00" arrivalLane="1341093415#0_0" arrivalPos="32.68" arrivalSpeed="10.22" duration="40.00" routeLength="179.77" waitingTime="5.00" waitingCount="1" stopTime="0.00" timeLoss="27.14" rerouteNo="0" devices="tripinfo_flow_route_40_duration_20250327_1920.3" vType="car" speedFactor="0.95" vaporized=""/>
    <tripinfo id="flow_route_40_duration_20250327_1920.1" depart="6.00" departLane="1369578054_0" departPos="265.97" departSpeed="0.00" departDelay="0.00" arrival="60.00" arrivalLane="1341093415#0_0" arrivalPos="167.37" arrivalSpeed="16.05" duration="54.00" routeLength="212.33" waitingTime="22.00" waitingCount="1" stopTime="0.00" timeLoss="40.45" rerouteNo="0" devices="tripinfo_flow_route_40_duration_20250327_1920.1" vType="car" speedFactor="1.03" vaporized=""/>
    <tripinfo id="flow_route_41_duration_20250327_1920.3" depart="11.00" departLane="1369578054_0" departPos="37.57" departSpeed="0.00" departDelay="1.53" arrival="60.00" arrivalLane="138002006#0_1" arrivalPos="60.81" arrivalSpeed="13.28" duration="49.00" routeLength="345.17" waitingTime="0.00" waitingCount="0" stopTime="0.00" timeLoss="26.76" rerouteNo="0" devices="tripinfo_flow_route_41_duration_20250327_1920.3" vType="car" speedFactor="0.94" vaporized=""/>
    <tripinfo id="flow_route_40_duration_20250327_1920.5" depart="30.00" departLane="1369578054_0" departPos="261.83" departSpeed="0.00" departDelay="0.00" arrival="60.00" arrivalLane="1341093415#0_0" arrivalPos="87.82" arrivalSpeed="13.27" duration="30.00" routeLength="136.90" waitingTime="5.00" waitingCount="1" stopTime="0.00" timeLoss="20.72" rerouteNo="0" devices="tripinfo_flow_route_40_duration_20250327_1920.5" vType="car" speedFactor="1.04" vaporized=""/>
    <tripinfo id="flow_route_41_duration_20250327_1920.6" depart="19.00" departLane="1369578054_0" departPos="20.07" departSpeed="0.00" departDelay="0.06" arrival="61.00" arrivalLane="138002006#0_1" arrivalPos="24.75" arrivalSpeed="12.04" duration="42.00" routeLength="326.61" waitingTime="0.00" waitingCount="0" stopTime="0.00" timeLoss="20.61" rerouteNo="0" devices="tripinfo_flow_route_41_duration_20250327_1920.6" vType="car" speedFactor="0.93" vaporized=""/>
    <tripinfo id="flow_route_41_duration_20250327_1920.7" depart="24.00" departLane="1369578054_0" departPos="14.04" departSpeed="0.00" departDelay="1.90" arrival="61.00" arrivalLane="138002006#0_1" arrivalPos="7.64" arrivalSpeed="10.67" duration="37.00" routeLength="315.53" waitingTime="0.00" waitingCount="0" stopTime="0.00" timeLoss="17.97" rerouteNo="0" devices="tripinfo_flow_route_41_duration_20250327_1920.7" vType="car" speedFactor="1.01" vaporized=""/>
    <tripinfo id="flow_route_40_duration_20250327_1920.7" depart="42.00" departLane="1369578054_0" departPos="246.03" departSpeed="0.00" departDelay="0.00" arrival="61.00" arrivalLane="1341093415#0_0" arrivalPos="18.34" arrivalSpeed="9.78" duration="19.00" routeLength="83.22" waitingTime="0.00" waitingCount="0" stopTime="0.00" timeLoss="12.77" rerouteNo="0" devices="tripinfo_flow_route_40_duration_20250327_1920.7" vType="car" speedFactor="1.14" vaporized=""/>
    <tripinfo id="flow_route_40_duration_20250327_1920.2" depart="13.00" departLane="1369578054_0" departPos="171.28" departSpeed="0.00" departDelay="1.00" arrival="64.00" arrivalLane="1341093415#0_0" arrivalPos="171.92" arrivalSpeed="16.38" duration="51.00" routeLength="311.56" waitingTime="7.00" waitingCount="1" stopTime="0.00" timeLoss="31.09" rerouteNo="0" devices="tripinfo_flow_route_40_duration_20250327_1920.2" vType="car" speedFactor="1.16" vaporized=""/>
    <tripinfo id="flow_route_40_duration_20250327_1920.0" depart="0.00" departLane="1369578054_0" departPos="1.81" departSpeed="0.00" departDelay="0.00" arrival="65.00" arrivalLane="1341093415#0_0" arrivalPos="87.60" arrivalSpeed="14.15" duration="65.00" routeLength="396.71" waitingTime="5.00" waitingCount="1" stopTime="0.00" timeLoss="39.71" rerouteNo="0" devices="tripinfo_flow_route_40_duration_20250327_1920.0" vType="car" speedFactor="1.08" vaporized=""/>
    <tripinfo id="flow_route_41_duration_20250327_1920.8" depart="29.00" departLane="1369578054_0" departPos="90.71" departSpeed="0.00" departDelay="3.74" arrival="66.00" arrivalLane="138002006#0_1" arrivalPos="37.57" arrivalSpeed="13.83" duration="37.00" routeLength="268.79" waitingTime="0.00" waitingCount="0" stopTime="0.00" timeLoss="20.00" rerouteNo="0" devices="tripinfo_flow_route_41_duration_20250327_1920.8" vType="car" speedFactor="1.18" vaporized=""/>
    <tripinfo id="flow_route_41_duration_20250327_1920.10" depart="32.00" departLane="1369578054_0" departPos="30.42" departSpeed="0.00" departDelay="0.43" arrival="67.00" arrivalLane="138002006#0_1" arrivalPos="36.49" arrivalSpeed="14.15" duration="35.00" routeLength="328.00" waitingTime="0.00" waitingCount="0" stopTime="0.00" timeLoss="14.87" rerouteNo="0" devices="tripinfo_flow_route_41_duration_20250327_1920.10" vType="car" speedFactor="1.00" vaporized=""/>
    <tripinfo id="flow_route_40_duration_20250327_1920.6" depart="39.00" departLane="1369578054_0" departPos="198.75" departSpeed="0.00" departDelay="3.00" arrival="69.00" arrivalLane="1341093415#0_0" arrivalPos="85.56" arrivalSpeed="14.24" duration="30.00" routeLength="197.73" waitingTime="0.00" waitingCount="0" stopTime="0.00" timeLoss="16.85" rerouteNo="0" devices="tripinfo_flow_route_40_duration_20250327_1920.6" vType="car" speedFactor="1.17" vaporized=""/>
    <tripinfo id="flow_route_41_duration_20250327_1920.11" depart="36.00" departLane="1369578054_0" departPos="12.76" departSpeed="0.00" departDelay="1.27" arrival="72.00" arrivalLane="138002006#0_1" arrivalPos="63.32" arrivalSpeed="14.04" duration="36.00" routeLength="372.48" waitingTime="0.00" waitingCount="0" stopTime="0.00" timeLoss="9.25" rerouteNo="0" devices="tripinfo_flow_route_41_duration_20250327_1920.11" vType="car" speedFactor="0.85" vaporized=""/>
    <tripinfo id="flow_route_41_duration_20250327_1920.12" depart="40.00" departLane="1369578054_0" departPos="113.70" departSpeed="0.00" departDelay="2.12" arrival="73.00" arrivalLane="138002006#0_1" arrivalPos="13.63" arrivalSpeed="9.14" duration="33.00" routeLength="221.86" waitingTime="0.00" waitingCount="0" stopTime="0.00" timeLoss="19.37" rerouteNo="0" devices="tripinfo_flow_route_41_duration_20250327_1920.12" vType="car" speedFactor="1.10" vaporized=""/>
    <tripinfo id="flow_route_40_duration_20250327_1920.4" depart="29.00" departLane="1369578054_0" departPos="7.15" departSpeed="0.00" departDelay="5.00" arrival="77.00" arrivalLane="1341093415#0_0" arrivalPos="32.20" arrivalSpeed="9.92" duration="48.00" routeLength="335.98" waitingTime="0.00" waitingCount="0" stopTime="0.00" timeLoss="26.16" rerouteNo="0" devices="tripinfo_flow_route_40_duration_20250327_1920.4" vType="car" speedFactor="0.99" vaporized=""/>
    <tripinfo id="flow_route_41_duration_20250327_1920.16" depart="58.00" departLane="1369578054_0" departPos="281.87" departSpeed="0.00" departDelay="7.49" arrival="77.00" arrivalLane="138002006#0_0" arrivalPos="74.89" arrivalSpeed="13.23" duration="19.00" routeLength="114.95" waitingTime="0.00" waitingCount="0" stopTime="0.00" timeLoss="11.59" rerouteNo="0" devices="tripinfo_flow_route_41_duration_20250327_1920.16" vType="car" speedFactor="1.02" vaporized=""/>
    <tripinfo id="flow_route_41_duration_20250327_1920.13" depart="43.00" departLane="1369578054_0" departPos="4.38" departSpeed="0.00" departDelay="1.96" arrival="79.00" arrivalLane="138002006#0_1" arrivalPos="76.04" arrivalSpeed="16.31" duration="36.00" routeLength="393.58" waitingTime="0.00" waitingCount="0" stopTime="0.00" timeLoss="11.89" rerouteNo="0" devices="tripinfo_flow_route_41_duration_20250327_1920.13" vType="car" speedFactor="1.02" vaporized=""/>
    <tripinfo id="flow_route_41_duration_20250327_1920.18" depart="60.00" departLane="1369578054_0" departPos="224.60" departSpeed="0.00" departDelay="3.17" arrival="81.00" arrivalLane="138002006#0_0" arrivalPos="75.52" arrivalSpeed="15.97" duration="21.00" routeLength="172.85" waitingTime="0.00" waitingCount="0" stopTime="0.00" timeLoss="9.99" rerouteNo="0" devices="tripinfo_flow_route_41_duration_20250327_1920.18" vType="car" speedFactor="0.98" vaporized=""/>
    <tripinfo id="flow_route_51_duration_20250327_1920.1" depart="30.00" departLane="-138002006#3_0" departPos="50.93" departSpeed="0.00" departDelay="0.00" arrival="93.00" arrivalLane="1341093415#0_3" arrivalPos="75.77" arrivalSpeed="12.32" duration="63.00" routeLength="128.52" waitingTime="32.00" waitingCount="1" stopTime="0.00" timeLoss="53.84" rerouteNo="0" devices="tripinfo_flow_route_51_duration_20250327_1920.1" vType="car" speedFactor="1.04" vaporized=""/>
    <tripinfo id="flow_route_51_duration_20250327_1920.0" depart="2.00" departLane="-138002006#3_0" departPos="5.35" departSpeed="0.00" departDelay="2.00" arrival="95.00" arrivalLane="1341093415#0_3" arrivalPos="132.48" arrivalSpeed="14.20" duration="93.00" routeLength="230.81" waitingTime="55.00" waitingCount="2" stopTime="0.00" timeLoss="78.13" rerouteNo="0" devices="tripinfo_flow_route_51_duration_20250327_1920.0" vType="car" speedFactor="1.05" vaporized=""/>
    <tripinfo id="flow_route_27_duration_20250327_1920.6" depart="10.00" departLane="1254771874#0_0" departPos="84.69" departSpeed="0.00" departDelay="0.00" arrival="119.00" arrivalLane="138002006#0_1" arrivalPos="2.65" arrivalSpeed="4.90" duration="109.00" routeLength="189.85" waitingTime="74.00" waitingCount="1" stopTime="0.00" timeLoss="96.50" rerouteNo="0" devices="tripinfo_flow_route_27_duration_20250327_1920.6" vType="car" speedFactor="0.88" vaporized=""/>
    <tripinfo id="flow_route_27_duration_20250327_1920.2" depart="4.00" departLane="1254771874#0_0" departPos="11.81" departSpeed="0.00" departDelay="0.67" arrival="125.00" arrivalLane="138002006#0_1" arrivalPos="28.58" arrivalSpeed="8.64" duration="121.00" routeLength="288.66" waitingTime="73.00" waitingCount="1" stopTime="0.00" timeLoss="102.46" rerouteNo="0" devices="tripinfo_flow_route_27_duration_20250327_1920.2" vType="car" speedFactor="0.94" vaporized=""/>
    <tripinfo id="flow_route_27_duration_20250327_1920.28" depart="47.00" departLane="1254771874#0_0" departPos="232.40" departSpeed="0.00" departDelay="0.35" arrival="126.00" arrivalLane="138002006#0_1" arrivalPos="1.04" arrivalSpeed="5.28" duration="79.00" routeLength="40.53" waitingTime="60.00" waitingCount="2" stopTime="0.00" timeLoss="75.70" rerouteNo="0" devices="tripinfo_flow_route_27_duration_20250327_1920.28" vType="car" speedFactor="0.94" vaporized=""/>
    <tripinfo id="flow_route_26_duration_20250327_1920.3" depart="46.00" departLane="1254771874#0_0" departPos="0.22" departSpeed="0.00" departDelay="1.00" arrival="131.00" arrivalLane="-422986370#2_0" arrivalPos="50.18" arrivalSpeed="11.06" duration="85.00" routeLength="314.56" waitingTime="36.00" waitingCount="1" stopTime="0.00" timeLoss="65.32" rerouteNo="0" devices="tripinfo_flow_route_26_duration_20250327_1920.3" vType="car" speedFactor="1.12" vaporized=""/>
    <tripinfo id="flow_route_27_duration_20250327_1920.7" depart="12.00" departLane="1254771874#0_0" departPos="67.50" departSpeed="0.00" departDelay="0.34" arrival="133.00" arrivalLane="138002006#0_1" arrivalPos="36.52" arrivalSpeed="9.58" duration="121.00" routeLength="240.90" waitingTime="74.00" waitingCount="2" stopTime="0.00" timeLoss="105.11" rerouteNo="0" devices="tripinfo_flow_route_27_duration_20250327_1920.7" vType="car" speedFactor="0.94" vaporized=""/>
    <tripinfo id="flow_route_25_duration_20250327_1920.3" depart="26.00" departLane="1254771874#0_0" departPos="99.63" departSpeed="0.00" departDelay="0.29" arrival="133.00" arrivalLane="1341093415#0_0" arrivalPos="120.97" arrivalSpeed="14.75" duration="107.00" routeLength="299.12" waitingTime="64.00" waitingCount="1" stopTime="0.00" timeLoss="88.34" rerouteNo="0" devices="tripinfo_flow_route_25_duration_20250327_1920.3" vType="car" speedFactor="0.97" vaporized=""/>
    <tripinfo id="flow_route_25_duration_20250327_1920.5" depart="44.00" departLane="1254771874#0_0" departPos="123.39" departSpeed="0.00" departDelay="1.15" arrival="133.00" arrivalLane="1341093415#0_0" arrivalPos="97.90" arrivalSpeed="13.52" duration="89.00" routeLength="252.29" waitingTime="44.00" waitingCount="1" stopTime="0.00" timeLoss="73.38" rerouteNo="0" devices="tripinfo_flow_route_25_duration_20250327_1920.5" vType="car" speedFactor="0.97" vaporized=""/>
    <tripinfo id="flow_route_26_duration_20250327_1920.2" depart="30.00" departLane="1254771874#0_0" departPos="181.68" departSpeed="0.00" departDelay="0.00" arrival="135.00" arrivalLane="-422986370#2_0" arrivalPos="187.29" arrivalSpeed="15.46" duration="105.00" routeLength="270.21" waitingTime="65.00" waitingCount="1" stopTime="0.00" timeLoss="86.97" rerouteNo="0" devices="tripinfo_flow_route_26_duration_20250327_1920.2" vType="car" speedFactor="0.96" vaporized=""/>
    <tripinfo id="flow_route_25_duration_20250327_1920.4" depart="35.00" departLane="1254771874#0_0" departPos="36.08" departSpeed="0.00" departDelay="0.72" arrival="137.00" arrivalLane="1341093415#0_0" arrivalPos="126.95" arrivalSpeed="15.06" duration="102.00" routeLength="368.64" waitingTime="46.00" waitingCount="2" stopTime="0.00" timeLoss="79.05" rerouteNo="0" devices="tripinfo_flow_route_25_duration_20250327_1920.4" vType="car" speedFactor="0.88" vaporized=""/>
    <tripinfo id="flow_route_27_duration_20250327_1920.21" depart="35.00" departLane="1254771874#0_0" departPos="225.46" departSpeed="0.00" departDelay="0.01" arrival="140.00" arrivalLane="138002006#0_1" arrivalPos="11.03" arrivalSpeed="8.76" duration="105.00" routeLength="57.47" waitingTime="88.00" waitingCount="2" stopTime="0.00" timeLoss="99.98" rerouteNo="0" devices="tripinfo_flow_route_27_duration_20250327_1920.21" vType="car" speedFactor="0.85" vaporized=""/>
    <tripinfo id="flow_route_27_duration_20250327_1920.33" depart="58.00" departLane="1254771874#0_0" departPos="234.66" departSpeed="0.00" departDelay="3.02" arrival="140.00" arrivalLane="138002006#0_1" arrivalPos="70.09" arrivalSpeed="12.99" duration="82.00" routeLength="107.31" waitingTime="58.00" waitingCount="2" stopTime="0.00" timeLoss="74.14" rerouteNo="0" devices="tripinfo_flow_route_27_duration_20250327_1920.33" vType="car" speedFactor="0.98" vaporized=""/>
    <tripinfo id="flow_route_27_duration_20250327_1920.22" depart="37.00" departLane="1254771874#0_0" departPos="216.12" departSpeed="0.00" departDelay="0.35" arrival="141.00" arrivalLane="138002006#0_1" arrivalPos="59.95" arrivalSpeed="11.49" duration="104.00" routeLength="115.72" waitingTime="69.00" waitingCount="1" stopTime="0.00" timeLoss="96.21" rerouteNo="0" devices="tripinfo_flow_route_27_duration_20250327_1920.22" vType="car" speedFactor="1.02" vaporized=""/>
    <tripinfo id="flow_route_25_duration_20250327_1920.6" depart="52.00" departLane="1254771874#0_0" departPos="82.67" departSpeed="0.00" departDelay="0.57" arrival="145.00" arrivalLane="1341093415#0_0" arrivalPos="36.99" arrivalSpeed="11.38" duration="93.00" routeLength="232.09" waitingTime="55.00" waitingCount="1" stopTime="0.00" timeLoss="78.60" rerouteNo="0" devices="tripinfo_flow_route_25_duration_20250327_1920.6" vType="car" speedFactor="1.02" vaporized=""/>
    <tripinfo id="flow_route_27_duration_20250327_1920.19" depart="34.00" departLane="1254771874#0_0" departPos="199.64" departSpeed="0.00" departDelay="2.35" arrival="150.00" arrivalLane="138002006#0_1" arrivalPos="26.30" arrivalSpeed="10.46" duration="116.00" routeLength="98.55" waitingTime="84.00" waitingCount="4" stopTime="0.00" timeLoss="108.76" rerouteNo="0" devices="tripinfo_flow_route_27_duration_20250327_1920.19" vType="car" speedFactor="1.09" vaporized=""/>
    <tripinfo id="flow_route_27_duration_20250327_1920.26" depart="44.00" departLane="1254771874#0_0" departPos="230.92" departSpeed="0.00" departDelay="0.68" arrival="150.00" arrivalLane="138002006#0_1" arrivalPos="78.76" arrivalSpeed="14.27" duration="106.00" routeLength="119.73" waitingTime="86.00" waitingCount="2" stopTime="0.00" timeLoss="97.41" rerouteNo="0" devices="tripinfo_flow_route_27_duration_20250327_1920.26" vType="car" speedFactor="1.08" vaporized=""/>
    <tripinfo id="flow_route_27_duration_20250327_1920.16" depart="27.00" departLane="1254771874#0_0" departPos="149.54" departSpeed="0.00" departDelay="0.34" arrival="154.00" arrivalLane="138002006#0_1" arrivalPos="45.52" arrivalSpeed="11.12" duration="127.00" routeLength="167.87" waitingTime="81.00" waitingCount="3" stopTime="0.00" timeLoss="116.00" rerouteNo="0" devices="tripinfo_flow_route_27_duration_20250327_1920.16" vType="car" speedFactor="1.10" vaporized=""/>
    <tripinfo id="flow_route_41_duration_20250327_1920.15" depart="57.00" departLane="1369578054_0" departPos="139.58" departSpeed="0.00" departDelay="9.65" arrival="160.00" arrivalLane="138002006#0_0" arrivalPos="10.15" arrivalSpeed="6.81" duration="103.00" routeLength="192.50" waitingTime="71.00" waitingCount="1" stopTime="0.00" timeLoss="90.18" rerouteNo="0" devices="tripinfo_flow_route_41_duration_20250327_1920.15" vType="car" speedFactor="0.91" vaporized=""/>
    <tripinfo id="flow_route_41_duration_20250327_1920.17" depart="60.00" departLane="1369578054_0" departPos="10.38" departSpeed="0.00" departDelay="6.33" arrival="166.00" arrivalLane="138002006#0_0" arrivalPos="13.99" arrivalSpeed="8.76" duration="106.00" routeLength="325.54" waitingTime="63.00" waitingCount="1" stopTime="0.00" timeLoss="85.18" rerouteNo="0" devices="tripinfo_flow_route_41_duration_20250327_1920.17" vType="car" speedFactor="0.96" vaporized=""/>
    <tripinfo id="flow_route_40_duration_20250327_1920.8" depart="56.00" departLane="1369578054_0" departPos="58.53" departSpeed="0.00" departDelay="8.00" arrival="168.00" arrivalLane="1341093415#0_0" arrivalPos="73.41" arrivalSpeed="11.72" duration="112.00" routeLength="325.80" waitingTime="69.00" waitingCount="1" stopTime="0.00" timeLoss="89.20" rerouteNo="0" devices="tripinfo_flow_route_40_duration_20250327_1920.8" vType="car" speedFactor="0.88" vaporized=""/>
    <tripinfo id="flow_route_41_duration_20250327_1920.14" depart="55.00" departLane="1369578054_0" departPos="34.36" departSpeed="0.00" departDelay="10.80" arrival="169.00" arrivalLane="138002006#0_1" arrivalPos="70.83" arrivalSpeed="12.66" duration="114.00" routeLength="358.41" waitingTime="66.00" waitingCount="1" stopTime="0.00" timeLoss="91.55" rerouteNo="0" devices="tripinfo_flow_route_41_duration_20250327_1920.14" vType="car" speedFactor="0.99" vaporized=""/>
    <tripinfo id="flow_route_40_duration_20250327_1920.9" depart="60.00" departLane="1369578054_0" departPos="170.67" departSpeed="0.00" departDelay="6.00" arrival="171.00" arrivalLane="1341093415#0_0" arrivalPos="142.90" arrivalSpeed="15.60" duration="111.00" routeLength="283.15" waitingTime="71.00" waitingCount="1" stopTime="0.00" timeLoss="92.78" rerouteNo="0" devices="tripinfo_flow_route_40_duration_20250327_1920.9" vType="car" speedFactor="1.06" vaporized=""/>
    <tripinfo id="flow_route_27_duration_20250327_1920.9" depart="16.00" departLane="1254771874#0_0" departPos="78.68" departSpeed="0.00" departDelay="1.01" arrival="240.00" arrivalLane="138002006#0_1" arrivalPos="52.93" arrivalSpeed="10.58" duration="224.00" routeLength="246.14" waitingTime="157.00" waitingCount="4" stopTime="0.00" timeLoss="207.34" rerouteNo="0" devices="tripinfo_flow_route_27_duration_20250327_1920.9" vType="car" speedFactor="0.89" vaporized=""/>