<?xml version="1.0" encoding="UTF-8"?>

<!-- generated on 2025-05-06 21:07:56 by Eclipse SUMO sumo Version 1.20.0
<configuration xmlns:xsi="http://www.w3.org/2001/XMLSchema-instance" xsi:noNamespaceSchemaLocation="http://sumo.dlr.de/xsd/sumoConfiguration.xsd">

    <input>
        <net-file value="osm.net.xml"/>
        <route-files value="xml/route_static_cluster3839130731_cluster_11644940326_11644940327_11648561426_1.rou.xml"/>
    </input>

    <output>
        <tripinfo-output value="xml/tripinfo_static_cluster3839130731_cluster_11644940326_11644940327_11648561426_1.xml"/>
    </output>

    <traci_server>
        <remote-port value="35635"/>
    </traci_server>

</configuration>
-->

<tripinfos xmlns:xsi="http://www.w3.org/2001/XMLSchema-instance" xsi:noNamespaceSchemaLocation="http://sumo.dlr.de/xsd/tripinfo_file.xsd">
    <tripinfo id="flow_route_123_duration_20250327_1910.4" depart="6.00" departLane="189240000#0-AddedOnRampEdge_0" departPos="90.63" departSpeed="0.00" departDelay="0.00" arrival="18.00" arrivalLane="1254519229#0_0" arrivalPos="7.08" arrivalSpeed="9.59" duration="12.00" routeLength="58.79" waitingTime="0.00" waitingCount="0" stopTime="0.00" timeLoss="7.19" rerouteNo="0" devices="tripinfo_flow_route_123_duration_20250327_1910.4" vType="car" speedFactor="0.89" vaporized=""/>
    <tripinfo id="flow_route_123_duration_20250327_1910.0" depart="0.00" departLane="189240000#0-AddedOnRampEdge_0" departPos="5.69" departSpeed="0.00" departDelay="0.00" arrival="22.00" arrivalLane="1254519229#0_1" arrivalPos="19.69" arrivalSpeed="11.29" duration="22.00" routeLength="159.84" waitingTime="0.00" waitingCount="0" stopTime="0.00" timeLoss="10.60" rerouteNo="0" devices="tripinfo_flow_route_123_duration_20250327_1910.0" vType="car" speedFactor="0.89" vaporized=""/>
    <tripinfo id="flow_route_123_duration_20250327_1910.2" depart="4.00" departLane="189240000#0-AddedOnRampEdge_0" departPos="72.18" departSpeed="0.00" departDelay="1.00" arrival="23.00" arrivalLane="1254519229#0_1" arrivalPos="65.59" arrivalSpeed="14.41" duration="19.00" routeLength="139.25" waitingTime="0.00" waitingCount="0" stopTime="0.00" timeLoss="10.17" rerouteNo="0" devices="tripinfo_flow_route_123_duration_20250327_1910.2" vType="car" speedFactor="1.12" vaporized=""/>
    <tripinfo id="flow_route_123_duration_20250327_1910.3" depart="6.00" departLane="189240000#0-AddedOnRampEdge_0" departPos="67.56" departSpeed="0.00" departDelay="1.50" arrival="24.00" arrivalLane="1254519229#0_0" arrivalPos="26.36" arrivalSpeed="12.04" duration="18.00" routeLength="101.14" waitingTime="1.00" waitingCount="1" stopTime="0.00" timeLoss="11.52" rerouteNo="0" devices="tripinfo_flow_route_123_duration_20250327_1910.3" vType="car" speedFactor="1.16" vaporized=""/>
    <tripinfo id="flow_route_96_duration_20250327_1910.0" depart="0.00" departLane="1341093416#0_0" departPos="184.53" departSpeed="0.00" departDelay="0.00" arrival="26.00" arrivalLane="1254519229#0_1" arrivalPos="3.62" arrivalSpeed="3.37" duration="26.00" routeLength="114.10" waitingTime="3.00" waitingCount="1" stopTime="0.00" timeLoss="17.91" rerouteNo="0" devices="tripinfo_flow_route_96_duration_20250327_1910.0" vType="car" speedFactor="1.01" vaporized=""/>
    <tripinfo id="flow_route_96_duration_20250327_1910.1" depart="6.00" departLane="1341093416#0_0" departPos="189.63" departSpeed="0.00" departDelay="0.00" arrival="31.00" arrivalLane="1254519229#0_1" arrivalPos="19.21" arrivalSpeed="6.50" duration="25.00" routeLength="124.59" waitingTime="0.00" waitingCount="0" stopTime="0.00" timeLoss="16.55" rerouteNo="0" devices="tripinfo_flow_route_96_duration_20250327_1910.1" vType="car" speedFactor="1.01" vaporized=""/>
    <tripinfo id="flow_route_111_duration_20250327_1910.0" depart="0.00" departLane="1253188486#8_0" departPos="138.93" departSpeed="0.00" departDelay="0.00" arrival="33.00" arrivalLane="1254519229#0_0" arrivalPos="3.47" arrivalSpeed="6.67" duration="33.00" routeLength="140.76" waitingTime="4.00" waitingCount="1" stopTime="0.00" timeLoss="24.32" rerouteNo="0" devices="tripinfo_flow_route_111_duration_20250327_1910.0" vType="car" speedFactor="0.83" vaporized=""/>
    <tripinfo id="flow_route_124_duration_20250327_1910.0" depart="0.00" departLane="189240000#0-AddedOnRampEdge_0" departPos="82.66" departSpeed="0.00" departDelay="0.00" arrival="35.00" arrivalLane="1254519225#0.109_3" arrivalPos="34.02" arrivalSpeed="15.13" duration="35.00" routeLength="196.39" waitingTime="3.00" waitingCount="1" stopTime="0.00" timeLoss="20.46" rerouteNo="0" devices="tripinfo_flow_route_124_duration_20250327_1910.0" vType="car" speedFactor="0.94" vaporized=""/>
    <tripinfo id="flow_route_111_duration_20250327_1910.5" depart="16.00" departLane="1253188486#8_0" departPos="175.00" departSpeed="0.00" departDelay="5.66" arrival="35.00" arrivalLane="1254519229#0_0" arrivalPos="6.37" arrivalSpeed="7.57" duration="19.00" routeLength="107.59" waitingTime="0.00" waitingCount="0" stopTime="0.00" timeLoss="12.51" rerouteNo="0" devices="tripinfo_flow_route_111_duration_20250327_1910.5" vType="car" speedFactor="1.02" vaporized=""/>
    <tripinfo id="flow_route_111_duration_20250327_1910.2" depart="5.00" departLane="1253188486#8_0" departPos="54.74" departSpeed="0.00" departDelay="0.86" arrival="36.00" arrivalLane="1254519229#0_1" arrivalPos="54.51" arrivalSpeed="12.67" duration="31.00" routeLength="275.99" waitingTime="0.00" waitingCount="0" stopTime="0.00" timeLoss="14.17" rerouteNo="0" devices="tripinfo_flow_route_111_duration_20250327_1910.2" vType="car" speedFactor="0.94" vaporized=""/>
    <tripinfo id="flow_route_94_duration_20250327_1910.0" depart="0.00" departLane="1341093416#0_0" departPos="204.30" departSpeed="0.00" departDelay="0.00" arrival="37.00" arrivalLane="799091563#0_1" arrivalPos="338.33" arrivalSpeed="16.59" duration="37.00" routeLength="440.38" waitingTime="0.00" waitingCount="0" stopTime="0.00" timeLoss="10.28" rerouteNo="0" devices="tripinfo_flow_route_94_duration_20250327_1910.0" vType="car" speedFactor="1.06" vaporized=""/>
    <tripinfo id="flow_route_111_duration_20250327_1910.1" depart="5.00" departLane="1253188486#8_0" departPos="31.74" departSpeed="0.00" departDelay="2.93" arrival="39.00" arrivalLane="1254519229#0_1" arrivalPos="74.72" arrivalSpeed="14.63" duration="34.00" routeLength="319.20" waitingTime="0.00" waitingCount="0" stopTime="0.00" timeLoss="14.55" rerouteNo="0" devices="tripinfo_flow_route_111_duration_20250327_1910.1" vType="car" speedFactor="1.05" vaporized=""/>
    <tripinfo id="flow_route_111_duration_20250327_1910.3" depart="11.00" departLane="1253188486#8_0" departPos="86.32" departSpeed="0.00" departDelay="4.80" arrival="39.00" arrivalLane="1254519229#0_1" arrivalPos="39.19" arrivalSpeed="16.28" duration="28.00" routeLength="229.09" waitingTime="0.00" waitingCount="0" stopTime="0.00" timeLoss="13.81" rerouteNo="0" devices="tripinfo_flow_route_111_duration_20250327_1910.3" vType="car" speedFactor="0.87" vaporized=""/>
    <tripinfo id="flow_route_111_duration_20250327_1910.4" depart="13.00" departLane="1253188486#8_0" departPos="104.29" departSpeed="0.00" departDelay="4.73" arrival="40.00" arrivalLane="1254519229#0_0" arrivalPos="43.51" arrivalSpeed="16.13" duration="27.00" routeLength="215.43" waitingTime="1.00" waitingCount="1" stopTime="0.00" timeLoss="14.02" rerouteNo="0" devices="tripinfo_flow_route_111_duration_20250327_1910.4" vType="car" speedFactor="1.15" vaporized=""/>
    <tripinfo id="flow_route_94_duration_20250327_1910.1" depart="5.00" departLane="1341093416#0_0" departPos="264.47" departSpeed="0.00" departDelay="0.72" arrival="42.00" arrivalLane="799091563#0_0" arrivalPos="363.24" arrivalSpeed="14.52" duration="37.00" routeLength="405.12" waitingTime="0.00" waitingCount="0" stopTime="0.00" timeLoss="8.91" rerouteNo="0" devices="tripinfo_flow_route_94_duration_20250327_1910.1" vType="car" speedFactor="0.88" vaporized=""/>
    <tripinfo id="flow_route_112_duration_20250327_1910.2" depart="5.00" departLane="1253188486#8_0" departPos="100.92" departSpeed="0.00" departDelay="1.13" arrival="43.00" arrivalLane="799091563#0_0" arrivalPos="12.31" arrivalSpeed="6.89" duration="38.00" routeLength="166.10" waitingTime="0.00" waitingCount="0" stopTime="0.00" timeLoss="26.47" rerouteNo="0" devices="tripinfo_flow_route_112_duration_20250327_1910.2" vType="car" speedFactor="0.93" vaporized=""/>
    <tripinfo id="flow_route_111_duration_20250327_1910.6" depart="18.00" departLane="1253188486#8_0" departPos="93.10" departSpeed="0.00" departDelay="5.59" arrival="43.00" arrivalLane="1254519229#0_0" arrivalPos="39.20" arrivalSpeed="16.30" duration="25.00" routeLength="222.33" waitingTime="0.00" waitingCount="0" stopTime="0.00" timeLoss="11.56" rerouteNo="0" devices="tripinfo_flow_route_111_duration_20250327_1910.6" vType="car" speedFactor="1.04" vaporized=""/>
    <tripinfo id="flow_route_111_duration_20250327_1910.7" depart="20.00" departLane="1253188486#8_0" departPos="84.85" departSpeed="0.00" departDelay="5.52" arrival="46.00" arrivalLane="1254519229#0_0" arrivalPos="55.66" arrivalSpeed="16.22" duration="26.00" routeLength="247.03" waitingTime="0.00" waitingCount="0" stopTime="0.00" timeLoss="10.71" rerouteNo="0" devices="tripinfo_flow_route_111_duration_20250327_1910.7" vType="car" speedFactor="0.88" vaporized=""/>
    <tripinfo id="flow_route_104_duration_20250327_1910.0" depart="0.00" departLane="189240001_0" departPos="36.52" departSpeed="0.00" departDelay="0.00" arrival="47.00" arrivalLane="1254519225#0.109_0" arrivalPos="30.66" arrivalSpeed="14.85" duration="47.00" routeLength="198.30" waitingTime="15.00" waitingCount="2" stopTime="0.00" timeLoss="34.69" rerouteNo="0" devices="tripinfo_flow_route_104_duration_20250327_1910.0" vType="car" speedFactor="1.08" vaporized=""/>
    <tripinfo id="flow_route_112_duration_20250327_1910.4" depart="12.00" departLane="1253188486#8_0" departPos="143.53" departSpeed="0.00" departDelay="4.26" arrival="47.00" arrivalLane="799091563#0_0" arrivalPos="63.94" arrivalSpeed="10.32" duration="35.00" routeLength="175.13" waitingTime="0.00" waitingCount="0" stopTime="0.00" timeLoss="22.60" rerouteNo="0" devices="tripinfo_flow_route_112_duration_20250327_1910.4" vType="car" speedFactor="0.92" vaporized=""/>
    <tripinfo id="flow_route_104_duration_20250327_1910.6" depart="28.00" departLane="189240001_0" departPos="47.37" departSpeed="0.00" departDelay="2.29" arrival="50.00" arrivalLane="1254519225#0.109_0" arrivalPos="11.89" arrivalSpeed="15.42" duration="22.00" routeLength="168.68" waitingTime="0.00" waitingCount="0" stopTime="0.00" timeLoss="11.21" rerouteNo="0" devices="tripinfo_flow_route_104_duration_20250327_1910.6" vType="car" speedFactor="1.03" vaporized=""/>
    <tripinfo id="flow_route_104_duration_20250327_1910.3" depart="13.00" departLane="189240001_0" departPos="68.46" departSpeed="0.00" departDelay="0.15" arrival="51.00" arrivalLane="1254519225#0.109_0" arrivalPos="57.70" arrivalSpeed="16.59" duration="38.00" routeLength="193.40" waitingTime="10.00" waitingCount="2" stopTime="0.00" timeLoss="26.03" rerouteNo="0" devices="tripinfo_flow_route_104_duration_20250327_1910.3" vType="car" speedFactor="1.04" vaporized=""/>
    <tripinfo id="flow_route_112_duration_20250327_1910.7" depart="19.00" departLane="1253188486#8_0" departPos="201.45" departSpeed="0.00" departDelay="5.46" arrival="51.00" arrivalLane="799091563#0_1" arrivalPos="217.83" arrivalSpeed="16.49" duration="32.00" routeLength="271.09" waitingTime="0.00" waitingCount="0" stopTime="0.00" timeLoss="15.07" rerouteNo="0" devices="tripinfo_flow_route_112_duration_20250327_1910.7" vType="car" speedFactor="1.09" vaporized=""/>
    <tripinfo id="flow_route_111_duration_20250327_1910.8" depart="24.00" departLane="1253188486#8_0" departPos="31.77" departSpeed="0.00" departDelay="7.46" arrival="52.00" arrivalLane="1254519229#0_1" arrivalPos="31.08" arrivalSpeed="16.19" duration="28.00" routeLength="275.53" waitingTime="0.00" waitingCount="0" stopTime="0.00" timeLoss="11.00" rerouteNo="0" devices="tripinfo_flow_route_111_duration_20250327_1910.8" vType="car" speedFactor="1.02" vaporized=""/>
    <tripinfo id="flow_route_112_duration_20250327_1910.1" depart="2.00" departLane="1253188486#8_0" departPos="125.85" departSpeed="0.00" departDelay="0.07" arrival="53.00" arrivalLane="799091563#0_0" arrivalPos="259.58" arrivalSpeed="13.82" duration="51.00" routeLength="388.44" waitingTime="3.00" waitingCount="1" stopTime="0.00" timeLoss="23.62" rerouteNo="0" devices="tripinfo_flow_route_112_duration_20250327_1910.1" vType="car" speedFactor="0.86" vaporized=""/>
    <tripinfo id="flow_route_112_duration_20250327_1910.3" depart="6.00" departLane="1253188486#8_0" departPos="229.41" departSpeed="0.00" departDelay="0.20" arrival="53.00" arrivalLane="799091563#0_0" arrivalPos="308.22" arrivalSpeed="16.11" duration="47.00" routeLength="333.52" waitingTime="11.00" waitingCount="1" stopTime="0.00" timeLoss="24.64" rerouteNo="0" devices="tripinfo_flow_route_112_duration_20250327_1910.3" vType="car" speedFactor="0.97" vaporized=""/>
    <tripinfo id="flow_route_112_duration_20250327_1910.5" depart="15.00" departLane="1253188486#8_0" departPos="162.37" departSpeed="0.00" departDelay="5.33" arrival="54.00" arrivalLane="799091563#0_0" arrivalPos="215.36" arrivalSpeed="16.26" duration="39.00" routeLength="307.70" waitingTime="0.00" waitingCount="0" stopTime="0.00" timeLoss="18.72" rerouteNo="0" devices="tripinfo_flow_route_112_duration_20250327_1910.5" vType="car" speedFactor="0.99" vaporized=""/>
    <tripinfo id="flow_route_104_duration_20250327_1910.5" depart="24.00" departLane="189240001_0" departPos="8.98" departSpeed="0.00" departDelay="2.58" arrival="54.00" arrivalLane="1254519225#0.109_0" arrivalPos="53.11" arrivalSpeed="16.11" duration="30.00" routeLength="248.29" waitingTime="0.00" waitingCount="0" stopTime="0.00" timeLoss="14.65" rerouteNo="0" devices="tripinfo_flow_route_104_duration_20250327_1910.5" vType="car" speedFactor="1.02" vaporized=""/>
    <tripinfo id="flow_route_111_duration_20250327_1910.11" depart="36.00" departLane="1253188486#8_0" departPos="195.82" departSpeed="0.00" departDelay="13.25" arrival="55.00" arrivalLane="1254519229#0_0" arrivalPos="62.39" arrivalSpeed="14.51" duration="19.00" routeLength="142.79" waitingTime="0.00" waitingCount="0" stopTime="0.00" timeLoss="10.10" rerouteNo="0" devices="tripinfo_flow_route_111_duration_20250327_1910.11" vType="car" speedFactor="0.97" vaporized=""/>
    <tripinfo id="flow_route_111_duration_20250327_1910.9" depart="28.00" departLane="1253188486#8_0" departPos="20.87" departSpeed="0.00" departDelay="9.39" arrival="57.00" arrivalLane="1254519229#0_0" arrivalPos="51.01" arrivalSpeed="16.16" duration="29.00" routeLength="306.36" waitingTime="0.00" waitingCount="0" stopTime="0.00" timeLoss="10.18" rerouteNo="0" devices="tripinfo_flow_route_111_duration_20250327_1910.9" vType="car" speedFactor="1.12" vaporized=""/>
    <tripinfo id="flow_route_104_duration_20250327_1910.2" depart="10.00" departLane="189240001_0" departPos="3.67" departSpeed="0.00" departDelay="1.43" arrival="59.00" arrivalLane="1254519225#0.109_0" arrivalPos="17.40" arrivalSpeed="14.77" duration="49.00" routeLength="217.89" waitingTime="8.00" waitingCount="2" stopTime="0.00" timeLoss="35.65" rerouteNo="0" devices="tripinfo_flow_route_104_duration_20250327_1910.2" vType="car" speedFactor="1.18" vaporized=""/>
    <tripinfo id="flow_route_112_duration_20250327_1910.8" depart="23.00" departLane="1253188486#8_0" departPos="81.66" departSpeed="0.00" departDelay="7.52" arrival="59.00" arrivalLane="799091563#0_0" arrivalPos="47.20" arrivalSpeed="10.49" duration="36.00" routeLength="220.25" waitingTime="0.00" waitingCount="0" stopTime="0.00" timeLoss="21.01" rerouteNo="0" devices="tripinfo_flow_route_112_duration_20250327_1910.8" vType="car" speedFactor="1.17" vaporized=""/>
    <tripinfo id="flow_route_104_duration_20250327_1910.7" depart="31.00" departLane="189240001_0" departPos="2.47" departSpeed="0.00" departDelay="1.01" arrival="61.00" arrivalLane="1254519225#0.109_0" arrivalPos="14.41" arrivalSpeed="15.83" duration="30.00" routeLength="216.10" waitingTime="0.00" waitingCount="0" stopTime="0.00" timeLoss="16.59" rerouteNo="0" devices="tripinfo_flow_route_104_duration_20250327_1910.7" vType="car" speedFactor="1.09" vaporized=""/>
    <tripinfo id="flow_route_123_duration_20250327_1910.1" depart="2.00" departLane="189240000#0-AddedOnRampEdge_0" departPos="28.99" departSpeed="0.00" departDelay="0.50" arrival="62.00" arrivalLane="1254519229#0_0" arrivalPos="3.68" arrivalSpeed="5.96" duration="60.00" routeLength="117.02" waitingTime="29.00" waitingCount="1" stopTime="0.00" timeLoss="52.55" rerouteNo="0" devices="tripinfo_flow_route_123_duration_20250327_1910.1" vType="car" speedFactor="1.09" vaporized=""/>
    <tripinfo id="flow_route_112_duration_20250327_1910.9" depart="28.00" departLane="1253188486#8_0" departPos="144.37" departSpeed="0.00" departDelay="10.59" arrival="62.00" arrivalLane="799091563#0_0" arrivalPos="163.61" arrivalSpeed="16.24" duration="34.00" routeLength="273.94" waitingTime="0.00" waitingCount="0" stopTime="0.00" timeLoss="16.31" rerouteNo="0" devices="tripinfo_flow_route_112_duration_20250327_1910.9" vType="car" speedFactor="1.02" vaporized=""/>
    <tripinfo id="flow_route_104_duration_20250327_1910.9" depart="41.00" departLane="189240001_0" departPos="42.34" departSpeed="0.00" departDelay="2.44" arrival="65.00" arrivalLane="1254519225#0.109_0" arrivalPos="56.62" arrivalSpeed="15.61" duration="24.00" routeLength="218.44" waitingTime="0.00" waitingCount="0" stopTime="0.00" timeLoss="9.99" rerouteNo="0" devices="tripinfo_flow_route_104_duration_20250327_1910.9" vType="car" speedFactor="0.94" vaporized=""/>
    <tripinfo id="flow_route_112_duration_20250327_1910.0" depart="0.00" departLane="1253188486#8_0" departPos="64.90" departSpeed="0.00" departDelay="0.00" arrival="66.00" arrivalLane="799091563#0_0" arrivalPos="282.23" arrivalSpeed="16.16" duration="66.00" routeLength="472.04" waitingTime="0.00" waitingCount="0" stopTime="0.00" timeLoss="35.60" rerouteNo="0" devices="tripinfo_flow_route_112_duration_20250327_1910.0" vType="car" speedFactor="1.05" vaporized=""/>
    <tripinfo id="flow_route_112_duration_20250327_1910.10" depart="28.00" departLane="1253188486#8_0" departPos="105.56" departSpeed="0.00" departDelay="8.65" arrival="66.00" arrivalLane="799091563#0_0" arrivalPos="183.29" arrivalSpeed="16.28" duration="38.00" routeLength="332.43" waitingTime="0.00" waitingCount="0" stopTime="0.00" timeLoss="17.09" rerouteNo="0" devices="tripinfo_flow_route_112_duration_20250327_1910.10" vType="car" speedFactor="1.02" vaporized=""/>
    <tripinfo id="flow_route_94_duration_20250327_1910.4" depart="18.00" departLane="1341093416#0_0" departPos="162.51" departSpeed="0.00" departDelay="0.86" arrival="69.00" arrivalLane="799091563#0_0" arrivalPos="58.31" arrivalSpeed="12.20" duration="51.00" routeLength="202.15" waitingTime="15.00" waitingCount="1" stopTime="0.00" timeLoss="38.58" rerouteNo="0" devices="tripinfo_flow_route_94_duration_20250327_1910.4" vType="car" speedFactor="1.00" vaporized=""/>
    <tripinfo id="flow_route_123_duration_20250327_1910.6" depart="9.00" departLane="189240000#0-AddedOnRampEdge_0" departPos="32.01" departSpeed="0.00" departDelay="0.00" arrival="70.00" arrivalLane="1254519229#0_0" arrivalPos="73.85" arrivalSpeed="12.41" duration="61.00" routeLength="187.68" waitingTime="23.00" waitingCount="2" stopTime="0.00" timeLoss="48.80" rerouteNo="0" devices="tripinfo_flow_route_123_duration_20250327_1910.6" vType="car" speedFactor="1.01" vaporized=""/>
    <tripinfo id="flow_route_94_duration_20250327_1910.2" depart="12.00" departLane="1341093416#0_0" departPos="114.39" departSpeed="0.00" departDelay="3.43" arrival="71.00" arrivalLane="799091563#0_2" arrivalPos="57.65" arrivalSpeed="11.65" duration="59.00" routeLength="249.62" waitingTime="12.00" waitingCount="1" stopTime="0.00" timeLoss="43.42" rerouteNo="0" devices="tripinfo_flow_route_94_duration_20250327_1910.2" vType="car" speedFactor="1.13" vaporized=""/>
    <tripinfo id="flow_route_123_duration_20250327_1910.7" depart="11.00" departLane="189240000#0-AddedOnRampEdge_0" departPos="64.07" departSpeed="0.00" departDelay="0.50" arrival="71.00" arrivalLane="1254519229#0_0" arrivalPos="57.44" arrivalSpeed="11.54" duration="60.00" routeLength="135.70" waitingTime="23.00" waitingCount="3" stopTime="0.00" timeLoss="50.75" rerouteNo="0" devices="tripinfo_flow_route_123_duration_20250327_1910.7" vType="car" speedFactor="0.97" vaporized=""/>
    <tripinfo id="flow_route_123_duration_20250327_1910.10" depart="16.00" departLane="189240000#0-AddedOnRampEdge_0" departPos="45.32" departSpeed="0.00" departDelay="1.00" arrival="72.00" arrivalLane="1254519229#0_0" arrivalPos="8.08" arrivalSpeed="9.19" duration="56.00" routeLength="105.09" waitingTime="20.00" waitingCount="4" stopTime="0.00" timeLoss="47.70" rerouteNo="0" devices="tripinfo_flow_route_123_duration_20250327_1910.10" vType="car" speedFactor="0.85" vaporized=""/>
    <tripinfo id="flow_route_94_duration_20250327_1910.5" depart="23.00" departLane="1341093416#0_0" departPos="88.68" departSpeed="0.00" departDelay="1.58" arrival="72.00" arrivalLane="799091563#0_2" arrivalPos="43.42" arrivalSpeed="10.27" duration="49.00" routeLength="261.09" waitingTime="7.00" waitingCount="1" stopTime="0.00" timeLoss="32.98" rerouteNo="0" devices="tripinfo_flow_route_94_duration_20250327_1910.5" vType="car" speedFactor="1.04" vaporized=""/>
    <tripinfo id="flow_route_95_duration_20250327_1910.2" depart="6.00" departLane="1341093416#0_0" departPos="163.48" departSpeed="0.00" departDelay="0.00" arrival="73.00" arrivalLane="1254519225#0.109_0" arrivalPos="35.66" arrivalSpeed="15.18" duration="67.00" routeLength="254.55" waitingTime="29.00" waitingCount="1" stopTime="0.00" timeLoss="50.15" rerouteNo="0" devices="tripinfo_flow_route_95_duration_20250327_1910.2" vType="car" speedFactor="1.02" vaporized=""/>
    <tripinfo id="flow_route_123_duration_20250327_1910.11" depart="17.00" departLane="189240000#0-AddedOnRampEdge_0" departPos="79.82" departSpeed="0.00" departDelay="0.50" arrival="73.00" arrivalLane="1254519229#0_0" arrivalPos="53.74" arrivalSpeed="11.17" duration="56.00" routeLength="116.24" waitingTime="23.00" waitingCount="4" stopTime="0.00" timeLoss="48.07" rerouteNo="0" devices="tripinfo_flow_route_123_duration_20250327_1910.11" vType="car" speedFactor="1.10" vaporized=""/>
    <tripinfo id="flow_route_95_duration_20250327_1910.3" depart="12.00" departLane="1341093416#0_0" departPos="100.13" departSpeed="0.00" departDelay="3.00" arrival="75.00" arrivalLane="1254519225#0.109_0" arrivalPos="1.74" arrivalSpeed="12.58" duration="63.00" routeLength="283.98" waitingTime="22.00" waitingCount="1" stopTime="0.00" timeLoss="44.33" rerouteNo="0" devices="tripinfo_flow_route_95_duration_20250327_1910.3" vType="car" speedFactor="0.93" vaporized=""/>
    <tripinfo id="flow_route_123_duration_20250327_1910.18" depart="28.00" departLane="189240000#0-AddedOnRampEdge_0" departPos="92.74" departSpeed="0.00" departDelay="1.00" arrival="75.00" arrivalLane="1254519229#0_0" arrivalPos="59.64" arrivalSpeed="11.86" duration="47.00" routeLength="109.23" waitingTime="24.00" waitingCount="2" stopTime="0.00" timeLoss="39.53" rerouteNo="0" devices="tripinfo_flow_route_123_duration_20250327_1910.18" vType="car" speedFactor="1.00" vaporized=""/>
    <tripinfo id="flow_route_95_duration_20250327_1910.1" depart="3.00" departLane="1341093416#0_0" departPos="108.74" departSpeed="0.00" departDelay="0.00" arrival="76.00" arrivalLane="1254519225#0.109_0" arrivalPos="39.52" arrivalSpeed="14.95" duration="73.00" routeLength="313.15" waitingTime="28.00" waitingCount="1" stopTime="0.00" timeLoss="52.85" rerouteNo="0" devices="tripinfo_flow_route_95_duration_20250327_1910.1" vType="car" speedFactor="1.03" vaporized=""/>
    <tripinfo id="flow_route_105_duration_20250327_1910.0" depart="1.00" departLane="189240001_0" departPos="25.23" departSpeed="0.00" departDelay="1.00" arrival="80.00" arrivalLane="799091563#0_2" arrivalPos="224.02" arrivalSpeed="16.12" duration="79.00" routeLength="308.35" waitingTime="34.00" waitingCount="2" stopTime="0.00" timeLoss="60.39" rerouteNo="0" devices="tripinfo_flow_route_105_duration_20250327_1910.0" vType="car" speedFactor="1.03" vaporized=""/>
    <tripinfo id="flow_route_96_duration_20250327_1910.2" depart="12.00" departLane="1341093416#0_0" departPos="83.01" departSpeed="0.00" departDelay="0.00" arrival="80.00" arrivalLane="1254519229#0_1" arrivalPos="48.94" arrivalSpeed="9.72" duration="68.00" routeLength="260.95" waitingTime="24.00" waitingCount="2" stopTime="0.00" timeLoss="50.99" rerouteNo="0" devices="tripinfo_flow_route_96_duration_20250327_1910.2" vType="car" speedFactor="1.10" vaporized=""/>
    <tripinfo id="flow_route_95_duration_20250327_1910.5" depart="16.00" departLane="1341093416#0_0" departPos="101.89" departSpeed="0.00" departDelay="1.00" arrival="80.00" arrivalLane="1254519225#0.109_0" arrivalPos="21.39" arrivalSpeed="14.95" duration="64.00" routeLength="301.87" waitingTime="17.00" waitingCount="1" stopTime="0.00" timeLoss="44.11" rerouteNo="0" devices="tripinfo_flow_route_95_duration_20250327_1910.5" vType="car" speedFactor="0.90" vaporized=""/>
    <tripinfo id="flow_route_95_duration_20250327_1910.6" depart="19.00" departLane="1341093416#0_0" departPos="150.60" departSpeed="0.00" departDelay="1.00" arrival="81.00" arrivalLane="1254519225#0.109_0" arrivalPos="56.43" arrivalSpeed="16.32" duration="62.00" routeLength="288.20" waitingTime="19.00" waitingCount="1" stopTime="0.00" timeLoss="42.88" rerouteNo="0" devices="tripinfo_flow_route_95_duration_20250327_1910.6" vType="car" speedFactor="1.00" vaporized=""/>
    <tripinfo id="flow_route_94_duration_20250327_1910.6" depart="31.00" departLane="1341093416#0_0" departPos="58.05" departSpeed="0.00" departDelay="5.29" arrival="82.00" arrivalLane="799091563#0_0" arrivalPos="176.88" arrivalSpeed="16.15" duration="51.00" routeLength="425.19" waitingTime="0.00" waitingCount="0" stopTime="0.00" timeLoss="24.72" rerouteNo="0" devices="tripinfo_flow_route_94_duration_20250327_1910.6" vType="car" speedFactor="1.09" vaporized=""/>
    <tripinfo id="flow_route_94_duration_20250327_1910.3" depart="13.00" departLane="1341093416#0_0" departPos="124.97" departSpeed="0.00" departDelay="0.15" arrival="83.00" arrivalLane="799091563#0_0" arrivalPos="237.41" arrivalSpeed="16.23" duration="70.00" routeLength="418.79" waitingTime="12.00" waitingCount="1" stopTime="0.00" timeLoss="44.28" rerouteNo="0" devices="tripinfo_flow_route_94_duration_20250327_1910.3" vType="car" speedFactor="1.09" vaporized=""/>
    <tripinfo id="flow_route_95_duration_20250327_1910.0" depart="0.00" departLane="1341093416#0_0" departPos="1.65" departSpeed="0.00" departDelay="0.00" arrival="84.00" arrivalLane="1254519225#0.109_0" arrivalPos="44.45" arrivalSpeed="15.39" duration="84.00" routeLength="425.17" waitingTime="15.00" waitingCount="1" stopTime="0.00" timeLoss="56.37" rerouteNo="0" devices="tripinfo_flow_route_95_duration_20250327_1910.0" vType="car" speedFactor="0.94" vaporized=""/>
    <tripinfo id="flow_route_96_duration_20250327_1910.3" depart="19.00" departLane="1341093416#0_0" departPos="4.01" departSpeed="0.00" departDelay="1.00" arrival="84.00" arrivalLane="1254519229#0_1" arrivalPos="27.42" arrivalSpeed="7.05" duration="65.00" routeLength="318.42" waitingTime="13.00" waitingCount="2" stopTime="0.00" timeLoss="44.23" rerouteNo="0" devices="tripinfo_flow_route_96_duration_20250327_1910.3" vType="car" speedFactor="0.90" vaporized=""/>
    <tripinfo id="flow_route_94_duration_20250327_1910.9" depart="57.00" departLane="1341093416#0_0" departPos="189.48" departSpeed="0.00" departDelay="18.44" arrival="84.00" arrivalLane="799091563#0_1" arrivalPos="124.37" arrivalSpeed="16.15" duration="27.00" routeLength="241.24" waitingTime="0.00" waitingCount="0" stopTime="0.00" timeLoss="11.69" rerouteNo="0" devices="tripinfo_flow_route_94_duration_20250327_1910.9" vType="car" speedFactor="0.99" vaporized=""/>
    <tripinfo id="flow_route_95_duration_20250327_1910.4" depart="12.00" departLane="1341093416#0_0" departPos="6.54" departSpeed="0.00" departDelay="0.00" arrival="85.00" arrivalLane="1254519225#0.109_0" arrivalPos="26.40" arrivalSpeed="15.95" duration="73.00" routeLength="402.24" waitingTime="13.00" waitingCount="1" stopTime="0.00" timeLoss="47.27" rerouteNo="0" devices="tripinfo_flow_route_95_duration_20250327_1910.4" vType="car" speedFactor="1.18" vaporized=""/>
    <tripinfo id="flow_route_95_duration_20250327_1910.8" depart="30.00" departLane="1341093416#0_0" departPos="82.90" departSpeed="0.00" departDelay="6.00" arrival="87.00" arrivalLane="1254519225#0.109_0" arrivalPos="22.87" arrivalSpeed="15.21" duration="57.00" routeLength="322.33" waitingTime="7.00" waitingCount="1" stopTime="0.00" timeLoss="36.11" rerouteNo="0" devices="tripinfo_flow_route_95_duration_20250327_1910.8" vType="car" speedFactor="0.96" vaporized=""/>
    <tripinfo id="flow_route_96_duration_20250327_1910.4" depart="31.00" departLane="1341093416#0_0" departPos="3.65" departSpeed="0.00" departDelay="7.00" arrival="90.00" arrivalLane="1254519229#0_1" arrivalPos="63.79" arrivalSpeed="10.50" duration="59.00" routeLength="355.16" waitingTime="4.00" waitingCount="1" stopTime="0.00" timeLoss="36.36" rerouteNo="0" devices="tripinfo_flow_route_96_duration_20250327_1910.4" vType="car" speedFactor="0.98" vaporized=""/>