<?xml version="1.0" encoding="UTF-8"?>

<!-- generated on 2025-05-06 21:07:45 by Eclipse SUMO sumo Version 1.20.0
<configuration xmlns:xsi="http://www.w3.org/2001/XMLSchema-instance" xsi:noNamespaceSchemaLocation="http://sumo.dlr.de/xsd/sumoConfiguration.xsd">

    <input>
        <net-file value="osm.net.xml"/>
        <route-files value="xml/route_static_632031937_0.rou.xml"/>
    </input>

    <output>
        <tripinfo-output value="xml/tripinfo_static_632031937_0.xml"/>
    </output>

    <traci_server>
        <remote-port value="58643"/>
    </traci_server>

</configuration>
-->

<tripinfos xmlns:xsi="http://www.w3.org/2001/XMLSchema-instance" xsi:noNamespaceSchemaLocation="http://sumo.dlr.de/xsd/tripinfo_file.xsd">
    <tripinfo id="flow_route_53_duration_20250327_1930.1" depart="3.00" departLane="138002006#0_0" departPos="77.73" departSpeed="0.00" departDelay="0.60" arrival="18.00" arrivalLane="1369578052#0_0" arrivalPos="48.76" arrivalSpeed="10.47" duration="15.00" routeLength="78.95" waitingTime="0.00" waitingCount="0" stopTime="0.00" timeLoss="9.36" rerouteNo="0" devices="tripinfo_flow_route_53_duration_20250327_1930.1" vType="car" speedFactor="0.89" vaporized=""/>
    <tripinfo id="flow_route_66_duration_20250327_1930.0" depart="0.00" departLane="-138002002#2_0" departPos="85.87" departSpeed="0.00" departDelay="0.00" arrival="20.00" arrivalLane="-138002006#3_1" arrivalPos="3.87" arrivalSpeed="12.37" duration="20.00" routeLength="121.39" waitingTime="0.00" waitingCount="0" stopTime="0.00" timeLoss="10.97" rerouteNo="0" devices="tripinfo_flow_route_66_duration_20250327_1930.0" vType="car" speedFactor="0.83" vaporized=""/>
    <tripinfo id="flow_route_53_duration_20250327_1930.4" depart="10.00" departLane="138002006#0_0" departPos="67.86" departSpeed="0.00" departDelay="0.40" arrival="21.00" arrivalLane="1369578052#0_0" arrivalPos="5.98" arrivalSpeed="9.24" duration="11.00" routeLength="46.03" waitingTime="0.00" waitingCount="0" stopTime="0.00" timeLoss="7.67" rerouteNo="0" devices="tripinfo_flow_route_53_duration_20250327_1930.4" vType="car" speedFactor="0.99" vaporized=""/>
    <tripinfo id="flow_route_53_duration_20250327_1930.0" depart="0.00" departLane="138002006#0_0" departPos="48.40" departSpeed="0.00" departDelay="0.00" arrival="22.00" arrivalLane="1369578052#0_1" arrivalPos="131.33" arrivalSpeed="15.42" duration="22.00" routeLength="190.85" waitingTime="0.00" waitingCount="0" stopTime="0.00" timeLoss="9.45" rerouteNo="0" devices="tripinfo_flow_route_53_duration_20250327_1930.0" vType="car" speedFactor="0.94" vaporized=""/>
    <tripinfo id="flow_route_52_duration_20250327_1930.0" depart="0.00" departLane="138002006#0_0" departPos="21.97" departSpeed="0.00" departDelay="0.00" arrival="30.00" arrivalLane="380351865#0_1" arrivalPos="15.21" arrivalSpeed="11.55" duration="30.00" routeLength="234.80" waitingTime="0.00" waitingCount="0" stopTime="0.00" timeLoss="10.36" rerouteNo="0" devices="tripinfo_flow_route_52_duration_20250327_1930.0" vType="car" speedFactor="1.06" vaporized=""/>
    <tripinfo id="flow_route_53_duration_20250327_1930.2" depart="5.00" departLane="138002006#0_0" departPos="4.10" departSpeed="0.00" departDelay="0.20" arrival="31.00" arrivalLane="1369578052#0_1" arrivalPos="126.01" arrivalSpeed="13.84" duration="26.00" routeLength="229.83" waitingTime="0.00" waitingCount="0" stopTime="0.00" timeLoss="9.05" rerouteNo="0" devices="tripinfo_flow_route_53_duration_20250327_1930.2" vType="car" speedFactor="0.86" vaporized=""/>
    <tripinfo id="flow_route_53_duration_20250327_1930.3" depart="8.00" departLane="138002006#0_0" departPos="78.79" departSpeed="0.00" departDelay="0.80" arrival="31.00" arrivalLane="1369578052#0_0" arrivalPos="173.09" arrivalSpeed="16.46" duration="23.00" routeLength="202.22" waitingTime="0.00" waitingCount="0" stopTime="0.00" timeLoss="10.60" rerouteNo="0" devices="tripinfo_flow_route_53_duration_20250327_1930.3" vType="car" speedFactor="1.03" vaporized=""/>
    <tripinfo id="flow_route_67_duration_20250327_1930.0" depart="1.00" departLane="-138002002#2_0" departPos="104.31" departSpeed="0.00" departDelay="1.00" arrival="32.00" arrivalLane="380351865#0_0" arrivalPos="12.69" arrivalSpeed="11.37" duration="31.00" routeLength="241.42" waitingTime="0.00" waitingCount="0" stopTime="0.00" timeLoss="10.59" rerouteNo="0" devices="tripinfo_flow_route_67_duration_20250327_1930.0" vType="car" speedFactor="1.05" vaporized=""/>
    <tripinfo id="flow_route_53_duration_20250327_1930.7" depart="18.00" departLane="138002006#0_0" departPos="59.31" departSpeed="0.00" departDelay="1.20" arrival="33.00" arrivalLane="1369578052#0_0" arrivalPos="44.50" arrivalSpeed="11.70" duration="15.00" routeLength="93.11" waitingTime="0.00" waitingCount="0" stopTime="0.00" timeLoss="9.19" rerouteNo="0" devices="tripinfo_flow_route_53_duration_20250327_1930.7" vType="car" speedFactor="1.01" vaporized=""/>
    <tripinfo id="flow_route_53_duration_20250327_1930.6" depart="16.00" departLane="138002006#0_0" departPos="14.91" departSpeed="0.00" departDelay="1.60" arrival="35.00" arrivalLane="1369578052#0_1" arrivalPos="23.85" arrivalSpeed="12.70" duration="19.00" routeLength="116.86" waitingTime="0.00" waitingCount="0" stopTime="0.00" timeLoss="10.98" rerouteNo="0" devices="tripinfo_flow_route_53_duration_20250327_1930.6" vType="car" speedFactor="0.94" vaporized=""/>
    <tripinfo id="flow_route_53_duration_20250327_1930.5" depart="12.00" departLane="138002006#0_0" departPos="60.81" departSpeed="0.00" departDelay="0.00" arrival="37.00" arrivalLane="1369578052#0_0" arrivalPos="176.33" arrivalSpeed="14.23" duration="25.00" routeLength="223.43" waitingTime="0.00" waitingCount="0" stopTime="0.00" timeLoss="9.23" rerouteNo="0" devices="tripinfo_flow_route_53_duration_20250327_1930.5" vType="car" speedFactor="0.88" vaporized=""/>
    <tripinfo id="flow_route_53_duration_20250327_1930.8" depart="21.00" departLane="138002006#0_0" departPos="43.73" departSpeed="0.00" departDelay="1.80" arrival="42.00" arrivalLane="1369578052#0_0" arrivalPos="109.90" arrivalSpeed="14.66" duration="21.00" routeLength="174.10" waitingTime="0.00" waitingCount="0" stopTime="0.00" timeLoss="9.04" rerouteNo="0" devices="tripinfo_flow_route_53_duration_20250327_1930.8" vType="car" speedFactor="0.89" vaporized=""/>
    <tripinfo id="flow_route_58_duration_20250327_1930.0" depart="0.00" departLane="186407685_0" departPos="1.07" departSpeed="0.00" departDelay="0.00" arrival="48.00" arrivalLane="-138002006#3_1" arrivalPos="43.63" arrivalSpeed="10.48" duration="48.00" routeLength="235.82" waitingTime="12.00" waitingCount="1" stopTime="0.00" timeLoss="32.85" rerouteNo="0" devices="tripinfo_flow_route_58_duration_20250327_1930.0" vType="car" speedFactor="1.08" vaporized=""/>
    <tripinfo id="flow_route_59_duration_20250327_1930.1" depart="3.00" departLane="186407685_0" departPos="57.01" departSpeed="0.00" departDelay="0.00" arrival="52.00" arrivalLane="1369578052#0_0" arrivalPos="11.11" arrivalSpeed="6.99" duration="49.00" routeLength="140.21" waitingTime="18.00" waitingCount="1" stopTime="0.00" timeLoss="39.02" rerouteNo="0" devices="tripinfo_flow_route_59_duration_20250327_1930.1" vType="car" speedFactor="0.94" vaporized=""/>
    <tripinfo id="flow_route_59_duration_20250327_1930.6" depart="18.00" departLane="186407685_0" departPos="126.70" departSpeed="0.00" departDelay="0.00" arrival="55.00" arrivalLane="1369578052#0_0" arrivalPos="16.41" arrivalSpeed="7.50" duration="37.00" routeLength="75.82" waitingTime="14.00" waitingCount="1" stopTime="0.00" timeLoss="31.04" rerouteNo="0" devices="tripinfo_flow_route_59_duration_20250327_1930.6" vType="car" speedFactor="0.97" vaporized=""/>
    <tripinfo id="flow_route_59_duration_20250327_1930.0" depart="0.00" departLane="186407685_0" departPos="119.17" departSpeed="0.00" departDelay="0.00" arrival="56.00" arrivalLane="1369578052#0_0" arrivalPos="108.75" arrivalSpeed="12.62" duration="56.00" routeLength="175.69" waitingTime="24.00" waitingCount="2" stopTime="0.00" timeLoss="44.31" rerouteNo="0" devices="tripinfo_flow_route_59_duration_20250327_1930.0" vType="car" speedFactor="1.03" vaporized=""/>
    <tripinfo id="flow_route_59_duration_20250327_1930.2" depart="7.00" departLane="186407685_0" departPos="112.17" departSpeed="0.00" departDelay="1.00" arrival="57.00" arrivalLane="1369578052#0_0" arrivalPos="94.56" arrivalSpeed="13.15" duration="50.00" routeLength="168.50" waitingTime="18.00" waitingCount="1" stopTime="0.00" timeLoss="38.25" rerouteNo="0" devices="tripinfo_flow_route_59_duration_20250327_1930.2" vType="car" speedFactor="1.09" vaporized=""/>
    <tripinfo id="flow_route_57_duration_20250327_1930.0" depart="0.00" departLane="186407685_0" departPos="131.94" departSpeed="0.00" departDelay="0.00" arrival="58.00" arrivalLane="380351865#0_0" arrivalPos="0.78" arrivalSpeed="11.01" duration="58.00" routeLength="205.45" waitingTime="24.00" waitingCount="1" stopTime="0.00" timeLoss="41.20" rerouteNo="0" devices="tripinfo_flow_route_57_duration_20250327_1930.0" vType="car" speedFactor="1.01" vaporized=""/>
    <tripinfo id="flow_route_59_duration_20250327_1930.5" depart="16.00" departLane="186407685_0" departPos="101.21" departSpeed="0.00" departDelay="1.00" arrival="58.00" arrivalLane="1369578052#0_0" arrivalPos="23.11" arrivalSpeed="8.36" duration="42.00" routeLength="108.01" waitingTime="15.00" waitingCount="1" stopTime="0.00" timeLoss="34.85" rerouteNo="0" devices="tripinfo_flow_route_59_duration_20250327_1930.5" vType="car" speedFactor="1.16" vaporized=""/>
    <tripinfo id="flow_route_57_duration_20250327_1930.1" depart="10.00" departLane="186407685_0" departPos="28.17" departSpeed="0.00" departDelay="0.00" arrival="59.00" arrivalLane="380351865#0_1" arrivalPos="5.15" arrivalSpeed="10.19" duration="49.00" routeLength="313.59" waitingTime="4.00" waitingCount="1" stopTime="0.00" timeLoss="24.39" rerouteNo="0" devices="tripinfo_flow_route_57_duration_20250327_1930.1" vType="car" speedFactor="0.93" vaporized=""/>
    <tripinfo id="flow_route_59_duration_20250327_1930.4" depart="12.00" departLane="186407685_0" departPos="58.66" departSpeed="0.00" departDelay="0.00" arrival="59.00" arrivalLane="1369578052#0_0" arrivalPos="5.50" arrivalSpeed="6.20" duration="47.00" routeLength="132.94" waitingTime="13.00" waitingCount="1" stopTime="0.00" timeLoss="37.41" rerouteNo="0" devices="tripinfo_flow_route_59_duration_20250327_1930.4" vType="car" speedFactor="0.94" vaporized=""/>
    <tripinfo id="flow_route_57_duration_20250327_1930.3" depart="30.00" departLane="186407685_0" departPos="90.81" departSpeed="0.00" departDelay="0.00" arrival="61.00" arrivalLane="380351865#0_1" arrivalPos="4.95" arrivalSpeed="11.05" duration="31.00" routeLength="250.76" waitingTime="0.00" waitingCount="0" stopTime="0.00" timeLoss="10.76" rerouteNo="0" devices="tripinfo_flow_route_57_duration_20250327_1930.3" vType="car" speedFactor="0.99" vaporized=""/>
    <tripinfo id="flow_route_57_duration_20250327_1930.2" depart="23.00" departLane="186407685_0" departPos="26.88" departSpeed="0.00" departDelay="3.00" arrival="66.00" arrivalLane="380351865#0_1" arrivalPos="11.81" arrivalSpeed="9.01" duration="43.00" routeLength="321.53" waitingTime="0.00" waitingCount="0" stopTime="0.00" timeLoss="15.12" rerouteNo="0" devices="tripinfo_flow_route_57_duration_20250327_1930.2" vType="car" speedFactor="0.83" vaporized=""/>
    <tripinfo id="flow_route_59_duration_20250327_1930.3" depart="9.00" departLane="186407685_0" departPos="41.92" departSpeed="0.00" departDelay="0.00" arrival="70.00" arrivalLane="1369578052#0_0" arrivalPos="100.33" arrivalSpeed="13.67" duration="61.00" routeLength="244.53" waitingTime="13.00" waitingCount="1" stopTime="0.00" timeLoss="45.05" rerouteNo="0" devices="tripinfo_flow_route_59_duration_20250327_1930.3" vType="car" speedFactor="1.12" vaporized=""/>
    <tripinfo id="flow_route_57_duration_20250327_1930.4" depart="42.00" departLane="186407685_0" departPos="67.19" departSpeed="0.00" departDelay="2.00" arrival="74.00" arrivalLane="380351865#0_1" arrivalPos="14.43" arrivalSpeed="10.83" duration="32.00" routeLength="283.85" waitingTime="0.00" waitingCount="0" stopTime="0.00" timeLoss="9.91" rerouteNo="0" devices="tripinfo_flow_route_57_duration_20250327_1930.4" vType="car" speedFactor="1.00" vaporized=""/>
    <tripinfo id="flow_route_66_duration_20250327_1930.1" depart="30.00" departLane="-138002002#2_0" departPos="107.77" departSpeed="0.00" departDelay="0.00" arrival="76.00" arrivalLane="-138002006#3_1" arrivalPos="60.25" arrivalSpeed="11.43" duration="46.00" routeLength="155.88" waitingTime="16.00" waitingCount="1" stopTime="0.00" timeLoss="35.79" rerouteNo="0" devices="tripinfo_flow_route_66_duration_20250327_1930.1" vType="car" speedFactor="0.97" vaporized=""/>
    <tripinfo id="flow_route_53_duration_20250327_1930.11" depart="27.00" departLane="138002006#0_0" departPos="50.35" departSpeed="0.00" departDelay="0.60" arrival="77.00" arrivalLane="1369578052#0_0" arrivalPos="62.49" arrivalSpeed="11.13" duration="50.00" routeLength="120.06" waitingTime="23.00" waitingCount="1" stopTime="0.00" timeLoss="42.22" rerouteNo="0" devices="tripinfo_flow_route_53_duration_20250327_1930.11" vType="car" speedFactor="1.18" vaporized=""/>
    <tripinfo id="flow_route_53_duration_20250327_1930.15" depart="38.00" departLane="138002006#0_0" departPos="63.32" departSpeed="0.00" departDelay="2.00" arrival="81.00" arrivalLane="1369578052#0_0" arrivalPos="63.20" arrivalSpeed="12.17" duration="43.00" routeLength="107.80" waitingTime="21.00" waitingCount="1" stopTime="0.00" timeLoss="35.60" rerouteNo="0" devices="tripinfo_flow_route_53_duration_20250327_1930.15" vType="car" speedFactor="0.96" vaporized=""/>
    <tripinfo id="flow_route_53_duration_20250327_1930.9" depart="22.00" departLane="138002006#0_0" departPos="16.28" departSpeed="0.00" departDelay="0.40" arrival="82.00" arrivalLane="1369578052#0_1" arrivalPos="31.04" arrivalSpeed="9.34" duration="60.00" routeLength="122.68" waitingTime="25.00" waitingCount="2" stopTime="0.00" timeLoss="51.54" rerouteNo="0" devices="tripinfo_flow_route_53_duration_20250327_1930.9" vType="car" speedFactor="0.92" vaporized=""/>
    <tripinfo id="flow_route_53_duration_20250327_1930.10" depart="24.00" departLane="138002006#0_0" departPos="5.95" departSpeed="0.00" departDelay="0.00" arrival="82.00" arrivalLane="1369578052#0_0" arrivalPos="100.79" arrivalSpeed="13.58" duration="58.00" routeLength="202.76" waitingTime="22.00" waitingCount="1" stopTime="0.00" timeLoss="45.16" rerouteNo="0" devices="tripinfo_flow_route_53_duration_20250327_1930.10" vType="car" speedFactor="1.13" vaporized=""/>
    <tripinfo id="flow_route_53_duration_20250327_1930.12" depart="32.00" departLane="138002006#0_0" departPos="9.30" departSpeed="0.00" departDelay="3.20" arrival="82.00" arrivalLane="1369578052#0_1" arrivalPos="8.63" arrivalSpeed="7.32" duration="50.00" routeLength="107.26" waitingTime="20.00" waitingCount="2" stopTime="0.00" timeLoss="43.32" rerouteNo="0" devices="tripinfo_flow_route_53_duration_20250327_1930.12" vType="car" speedFactor="1.01" vaporized=""/>
    <tripinfo id="flow_route_67_duration_20250327_1930.1" depart="8.00" departLane="-138002002#2_0" departPos="73.05" departSpeed="0.00" departDelay="0.50" arrival="84.00" arrivalLane="380351865#0_0" arrivalPos="14.07" arrivalSpeed="11.59" duration="76.00" routeLength="274.07" waitingTime="35.00" waitingCount="1" stopTime="0.00" timeLoss="54.27" rerouteNo="0" devices="tripinfo_flow_route_67_duration_20250327_1930.1" vType="car" speedFactor="1.05" vaporized=""/>
    <tripinfo id="flow_route_53_duration_20250327_1930.14" depart="35.00" departLane="138002006#0_0" departPos="36.49" departSpeed="0.00" departDelay="1.40" arrival="84.00" arrivalLane="1369578052#0_0" arrivalPos="84.01" arrivalSpeed="14.03" duration="49.00" routeLength="155.44" waitingTime="19.00" waitingCount="1" stopTime="0.00" timeLoss="39.19" rerouteNo="0" devices="tripinfo_flow_route_53_duration_20250327_1930.14" vType="car" speedFactor="1.03" vaporized=""/>
    <tripinfo id="flow_route_67_duration_20250327_1930.2" depart="15.00" departLane="-138002002#2_0" departPos="41.10" departSpeed="0.00" departDelay="0.00" arrival="86.00" arrivalLane="380351865#0_0" arrivalPos="7.02" arrivalSpeed="10.84" duration="71.00" routeLength="298.97" waitingTime="28.00" waitingCount="1" stopTime="0.00" timeLoss="47.44" rerouteNo="0" devices="tripinfo_flow_route_67_duration_20250327_1930.2" vType="car" speedFactor="1.02" vaporized=""/>
    <tripinfo id="flow_route_53_duration_20250327_1930.22" depart="57.00" departLane="138002006#0_0" departPos="28.48" departSpeed="0.00" departDelay="4.20" arrival="88.00" arrivalLane="1369578052#0_0" arrivalPos="38.25" arrivalSpeed="12.23" duration="31.00" routeLength="117.69" waitingTime="6.00" waitingCount="1" stopTime="0.00" timeLoss="23.61" rerouteNo="0" devices="tripinfo_flow_route_53_duration_20250327_1930.22" vType="car" speedFactor="1.02" vaporized=""/>
    <tripinfo id="flow_route_67_duration_20250327_1930.3" depart="23.00" departLane="-138002002#2_0" departPos="51.37" departSpeed="0.00" departDelay="0.50" arrival="89.00" arrivalLane="380351865#0_0" arrivalPos="10.95" arrivalSpeed="10.10" duration="66.00" routeLength="292.64" waitingTime="17.00" waitingCount="1" stopTime="0.00" timeLoss="40.98" rerouteNo="0" devices="tripinfo_flow_route_67_duration_20250327_1930.3" vType="car" speedFactor="0.95" vaporized=""/>
    <tripinfo id="flow_route_53_duration_20250327_1930.13" depart="35.00" departLane="138002006#0_0" departPos="26.30" departSpeed="0.00" departDelay="3.80" arrival="89.00" arrivalLane="1369578052#0_1" arrivalPos="55.80" arrivalSpeed="11.42" duration="54.00" routeLength="137.42" waitingTime="17.00" waitingCount="1" stopTime="0.00" timeLoss="45.49" rerouteNo="0" devices="tripinfo_flow_route_53_duration_20250327_1930.13" vType="car" speedFactor="1.10" vaporized=""/>
    <tripinfo id="flow_route_52_duration_20250327_1930.1" depart="32.00" departLane="138002006#0_0" departPos="77.72" departSpeed="0.00" departDelay="2.00" arrival="90.00" arrivalLane="380351865#0_1" arrivalPos="6.01" arrivalSpeed="12.90" duration="58.00" routeLength="169.84" waitingTime="28.00" waitingCount="2" stopTime="0.00" timeLoss="43.87" rerouteNo="0" devices="tripinfo_flow_route_52_duration_20250327_1930.1" vType="car" speedFactor="1.17" vaporized=""/>
    <tripinfo id="flow_route_67_duration_20250327_1930.6" depart="46.00" departLane="-138002002#2_0" departPos="146.99" departSpeed="0.00" departDelay="1.00" arrival="90.00" arrivalLane="380351865#0_0" arrivalPos="9.38" arrivalSpeed="11.15" duration="44.00" routeLength="195.43" waitingTime="13.00" waitingCount="1" stopTime="0.00" timeLoss="28.81" rerouteNo="0" devices="tripinfo_flow_route_67_duration_20250327_1930.6" vType="car" speedFactor="1.17" vaporized=""/>
    <tripinfo id="flow_route_53_duration_20250327_1930.16" depart="40.00" departLane="138002006#0_0" departPos="13.63" departSpeed="0.00" departDelay="1.60" arrival="91.00" arrivalLane="1369578052#0_0" arrivalPos="162.58" arrivalSpeed="16.38" duration="51.00" routeLength="256.87" waitingTime="15.00" waitingCount="1" stopTime="0.00" timeLoss="34.95" rerouteNo="0" devices="tripinfo_flow_route_53_duration_20250327_1930.16" vType="car" speedFactor="1.04" vaporized=""/>
    <tripinfo id="flow_route_67_duration_20250327_1930.5" depart="39.00" departLane="-138002002#2_0" departPos="71.96" departSpeed="0.00" departDelay="1.50" arrival="92.00" arrivalLane="380351865#0_0" arrivalPos="12.16" arrivalSpeed="11.33" duration="53.00" routeLength="273.24" waitingTime="10.00" waitingCount="1" stopTime="0.00" timeLoss="31.30" rerouteNo="0" devices="tripinfo_flow_route_67_duration_20250327_1930.5" vType="car" speedFactor="1.04" vaporized=""/>
    <tripinfo id="flow_route_53_duration_20250327_1930.20" depart="54.00" departLane="138002006#0_0" departPos="32.53" departSpeed="0.00" departDelay="6.00" arrival="92.00" arrivalLane="1369578052#0_0" arrivalPos="121.40" arrivalSpeed="16.22" duration="38.00" routeLength="196.79" waitingTime="8.00" waitingCount="1" stopTime="0.00" timeLoss="25.85" rerouteNo="0" devices="tripinfo_flow_route_53_duration_20250327_1930.20" vType="car" speedFactor="1.10" vaporized=""/>
    <tripinfo id="flow_route_67_duration_20250327_1930.4" depart="31.00" departLane="-138002002#2_0" departPos="4.39" departSpeed="0.00" departDelay="1.00" arrival="93.00" arrivalLane="380351865#0_0" arrivalPos="7.22" arrivalSpeed="11.76" duration="62.00" routeLength="335.88" waitingTime="10.00" waitingCount="1" stopTime="0.00" timeLoss="38.62" rerouteNo="0" devices="tripinfo_flow_route_67_duration_20250327_1930.4" vType="car" speedFactor="1.18" vaporized=""/>
    <tripinfo id="flow_route_53_duration_20250327_1930.17" depart="45.00" departLane="138002006#0_0" departPos="1.30" departSpeed="0.00" departDelay="4.20" arrival="93.00" arrivalLane="1369578052#0_1" arrivalPos="63.51" arrivalSpeed="12.58" duration="48.00" routeLength="170.13" waitingTime="7.00" waitingCount="1" stopTime="0.00" timeLoss="36.46" rerouteNo="0" devices="tripinfo_flow_route_53_duration_20250327_1930.17" vType="car" speedFactor="0.90" vaporized=""/>
    <tripinfo id="flow_route_53_duration_20250327_1930.19" depart="52.00" departLane="138002006#0_0" departPos="41.09" departSpeed="0.00" departDelay="6.40" arrival="93.00" arrivalLane="1369578052#0_0" arrivalPos="166.52" arrivalSpeed="16.37" duration="41.00" routeLength="233.35" waitingTime="9.00" waitingCount="1" stopTime="0.00" timeLoss="26.83" rerouteNo="0" devices="tripinfo_flow_route_53_duration_20250327_1930.19" vType="car" speedFactor="1.02" vaporized=""/>
    <tripinfo id="flow_route_53_duration_20250327_1930.23" depart="58.00" departLane="138002006#0_0" departPos="16.91" departSpeed="0.00" departDelay="2.80" arrival="93.00" arrivalLane="1369578052#0_1" arrivalPos="18.01" arrivalSpeed="10.20" duration="35.00" routeLength="109.02" waitingTime="3.00" waitingCount="1" stopTime="0.00" timeLoss="28.38" rerouteNo="0" devices="tripinfo_flow_route_53_duration_20250327_1930.23" vType="car" speedFactor="1.12" vaporized=""/>
    <tripinfo id="flow_route_53_duration_20250327_1930.21" depart="54.00" departLane="138002006#0_0" departPos="13.99" departSpeed="0.00" departDelay="3.60" arrival="96.00" arrivalLane="1369578052#0_1" arrivalPos="72.53" arrivalSpeed="14.21" duration="42.00" routeLength="166.46" waitingTime="4.00" waitingCount="1" stopTime="0.00" timeLoss="30.04" rerouteNo="0" devices="tripinfo_flow_route_53_duration_20250327_1930.21" vType="car" speedFactor="0.90" vaporized=""/>
    <tripinfo id="flow_route_67_duration_20250327_1930.7" depart="54.00" departLane="-138002002#2_0" departPos="23.85" departSpeed="0.00" departDelay="1.50" arrival="96.00" arrivalLane="380351865#0_0" arrivalPos="2.62" arrivalSpeed="10.74" duration="42.00" routeLength="311.81" waitingTime="0.00" waitingCount="0" stopTime="0.00" timeLoss="16.80" rerouteNo="0" devices="tripinfo_flow_route_67_duration_20250327_1930.7" vType="car" speedFactor="0.97" vaporized=""/>
    <tripinfo id="flow_route_53_duration_20250327_1930.18" depart="51.00" departLane="138002006#0_0" departPos="43.27" departSpeed="0.00" departDelay="7.80" arrival="98.00" arrivalLane="1369578052#0_1" arrivalPos="157.89" arrivalSpeed="14.01" duration="47.00" routeLength="222.54" waitingTime="8.00" waitingCount="1" stopTime="0.00" timeLoss="31.22" rerouteNo="0" devices="tripinfo_flow_route_53_duration_20250327_1930.18" vType="car" speedFactor="0.85" vaporized=""/>
    <tripinfo id="flow_route_53_duration_20250327_1930.24" depart="62.00" departLane="138002006#0_0" departPos="3.07" departSpeed="0.00" departDelay="4.40" arrival="98.00" arrivalLane="1369578052#0_0" arrivalPos="156.82" arrivalSpeed="16.13" duration="36.00" routeLength="261.67" waitingTime="0.00" waitingCount="0" stopTime="0.00" timeLoss="19.40" rerouteNo="0" devices="tripinfo_flow_route_53_duration_20250327_1930.24" vType="car" speedFactor="0.99" vaporized=""/>
    <tripinfo id="flow_route_59_duration_20250327_1930.9" depart="30.00" departLane="186407685_0" departPos="108.92" departSpeed="0.00" departDelay="3.00" arrival="107.00" arrivalLane="1369578052#0_0" arrivalPos="15.86" arrivalSpeed="6.79" duration="77.00" routeLength="93.05" waitingTime="47.00" waitingCount="2" stopTime="0.00" timeLoss="70.45" rerouteNo="0" devices="tripinfo_flow_route_59_duration_20250327_1930.9" vType="car" speedFactor="1.15" vaporized=""/>
    <tripinfo id="flow_route_59_duration_20250327_1930.7" depart="23.00" departLane="186407685_0" departPos="4.93" departSpeed="0.00" departDelay="2.00" arrival="117.00" arrivalLane="1369578052#0_0" arrivalPos="56.73" arrivalSpeed="10.74" duration="94.00" routeLength="237.91" waitingTime="43.00" waitingCount="2" stopTime="0.00" timeLoss="77.58" rerouteNo="0" devices="tripinfo_flow_route_59_duration_20250327_1930.7" vType="car" speedFactor="0.87" vaporized=""/>
    <tripinfo id="flow_route_57_duration_20250327_1930.5" depart="67.00" departLane="186407685_0" departPos="80.69" departSpeed="0.00" departDelay="17.00" arrival="121.00" arrivalLane="380351865#0_0" arrivalPos="1.95" arrivalSpeed="10.58" duration="54.00" routeLength="257.87" waitingTime="14.00" waitingCount="1" stopTime="0.00" timeLoss="33.92" rerouteNo="0" devices="tripinfo_flow_route_57_duration_20250327_1930.5" vType="car" speedFactor="1.00" vaporized=""/>
    <tripinfo id="flow_route_59_duration_20250327_1930.11" depart="39.00" departLane="186407685_0" departPos="85.00" departSpeed="0.00" departDelay="6.00" arrival="122.00" arrivalLane="1369578052#0_0" arrivalPos="90.82" arrivalSpeed="12.95" duration="83.00" routeLength="191.93" waitingTime="40.00" waitingCount="2" stopTime="0.00" timeLoss="69.95" rerouteNo="0" devices="tripinfo_flow_route_59_duration_20250327_1930.11" vType="car" speedFactor="0.90" vaporized=""/>
    <tripinfo id="flow_route_59_duration_20250327_1930.8" depart="26.00" departLane="186407685_0" departPos="55.58" departSpeed="0.00" departDelay="2.00" arrival="123.00" arrivalLane="1369578052#0_0" arrivalPos="171.08" arrivalSpeed="15.24" duration="97.00" routeLength="301.61" waitingTime="44.00" waitingCount="2" stopTime="0.00" timeLoss="77.10" rerouteNo="0" devices="tripinfo_flow_route_59_duration_20250327_1930.8" vType="car" speedFactor="0.93" vaporized=""/>
    <tripinfo id="flow_route_59_duration_20250327_1930.10" depart="36.00" departLane="186407685_0" departPos="17.98" departSpeed="0.00" departDelay="6.00" arrival="125.00" arrivalLane="1369578052#0_0" arrivalPos="39.15" arrivalSpeed="10.34" duration="89.00" routeLength="207.28" waitingTime="34.00" waitingCount="1" stopTime="0.00" timeLoss="75.57" rerouteNo="0" devices="tripinfo_flow_route_59_duration_20250327_1930.10" vType="car" speedFactor="1.02" vaporized=""/>
    <tripinfo id="flow_route_59_duration_20250327_1930.13" depart="42.00" departLane="186407685_0" departPos="49.10" departSpeed="0.00" departDelay="3.00" arrival="125.00" arrivalLane="1369578052#0_0" arrivalPos="68.50" arrivalSpeed="11.10" duration="83.00" routeLength="205.51" waitingTime="35.00" waitingCount="1" stopTime="0.00" timeLoss="69.54" rerouteNo="0" devices="tripinfo_flow_route_59_duration_20250327_1930.13" vType="car" speedFactor="1.09" vaporized=""/>
    <tripinfo id="flow_route_59_duration_20250327_1930.14" depart="47.00" departLane="186407685_0" departPos="83.27" departSpeed="0.00" departDelay="5.00" arrival="127.00" arrivalLane="1369578052#0_0" arrivalPos="108.59" arrivalSpeed="13.35" duration="80.00" routeLength="211.42" waitingTime="36.00" waitingCount="1" stopTime="0.00" timeLoss="65.15" rerouteNo="0" devices="tripinfo_flow_route_59_duration_20250327_1930.14" vType="car" speedFactor="0.88" vaporized=""/>
    <tripinfo id="flow_route_59_duration_20250327_1930.12" depart="39.00" departLane="186407685_0" departPos="7.54" departSpeed="0.00" departDelay="3.00" arrival="134.00" arrivalLane="1369578052#0_0" arrivalPos="128.94" arrivalSpeed="16.35" duration="95.00" routeLength="307.50" waitingTime="34.00" waitingCount="1" stopTime="0.00" timeLoss="75.09" rerouteNo="0" devices="tripinfo_flow_route_59_duration_20250327_1930.12" vType="car" speedFactor="1.09" vaporized=""/>
    <tripinfo id="flow_route_59_duration_20250327_1930.19" depart="71.00" departLane="186407685_0" departPos="107.05" departSpeed="0.00" departDelay="14.00" arrival="176.00" arrivalLane="1369578052#0_0" arrivalPos="36.01" arrivalSpeed="8.69" duration="105.00" routeLength="115.07" waitingTime="73.00" waitingCount="2" stopTime="0.00" timeLoss="96.59" rerouteNo="0" devices="tripinfo_flow_route_59_duration_20250327_1930.19" vType="car" speedFactor="1.02" vaporized=""/>
    <tripinfo id="flow_route_59_duration_20250327_1930.18" depart="68.00" departLane="186407685_0" departPos="15.06" departSpeed="0.00" departDelay="14.00" arrival="184.00" arrivalLane="1369578052#0_0" arrivalPos="81.95" arrivalSpeed="11.99" duration="116.00" routeLength="253.00" waitingTime="62.00" waitingCount="2" stopTime="0.00" timeLoss="100.08" rerouteNo="0" devices="tripinfo_flow_route_59_duration_20250327_1930.18" vType="car" speedFactor="1.08" vaporized=""/>
    <tripinfo id="flow_route_59_duration_20250327_1930.15" depart="47.00" departLane="186407685_0" departPos="0.15" departSpeed="0.00" departDelay="2.00" arrival="185.00" arrivalLane="1369578052#0_0" arrivalPos="174.15" arrivalSpeed="13.85" duration="138.00" routeLength="360.11" waitingTime="73.00" waitingCount="2" stopTime="0.00" timeLoss="113.27" rerouteNo="0" devices="tripinfo_flow_route_59_duration_20250327_1930.15" vType="car" speedFactor="0.85" vaporized=""/>