<?xml version="1.0" encoding="UTF-8"?>

<!-- generated on 2025-05-06 21:08:34 by Eclipse SUMO sumo Version 1.20.0
<configuration xmlns:xsi="http://www.w3.org/2001/XMLSchema-instance" xsi:noNamespaceSchemaLocation="http://sumo.dlr.de/xsd/sumoConfiguration.xsd">

    <input>
        <net-file value="osm.net.xml"/>
        <route-files value="xml/route_rl_GS_cluster_1342409365_3839031467_5.rou.xml"/>
    </input>

    <output>
        <tripinfo-output value="xml/tripinfo_rl_GS_cluster_1342409365_3839031467_5.xml"/>
    </output>

    <traci_server>
        <remote-port value="48179"/>
    </traci_server>

</configuration>
-->

<tripinfos xmlns:xsi="http://www.w3.org/2001/XMLSchema-instance" xsi:noNamespaceSchemaLocation="http://sumo.dlr.de/xsd/tripinfo_file.xsd">
    <tripinfo id="flow_route_128_duration_20250327_2140.0" depart="0.00" departLane="134133272_0" departPos="226.49" departSpeed="0.00" departDelay="0.00" arrival="31.00" arrivalLane="380585338#0_0" arrivalPos="7.57" arrivalSpeed="5.61" duration="31.00" routeLength="279.28" waitingTime="0.00" waitingCount="0" stopTime="0.00" timeLoss="10.65" rerouteNo="0" devices="tripinfo_flow_route_128_duration_20250327_2140.0" vType="car" speedFactor="0.83" vaporized=""/>
    <tripinfo id="flow_route_92_duration_20250327_2140.1" depart="4.00" departLane="133000063_0" departPos="109.11" departSpeed="0.00" departDelay="0.47" arrival="37.00" arrivalLane="186409193_0" arrivalPos="29.97" arrivalSpeed="15.25" duration="33.00" routeLength="312.72" waitingTime="0.00" waitingCount="0" stopTime="0.00" timeLoss="13.58" rerouteNo="0" devices="tripinfo_flow_route_92_duration_20250327_2140.1" vType="car" speedFactor="1.09" vaporized=""/>
    <tripinfo id="flow_route_91_duration_20250327_2140.0" depart="0.00" departLane="133000063_0" departPos="128.34" departSpeed="0.00" departDelay="0.00" arrival="47.00" arrivalLane="683079387#1_0" arrivalPos="9.10" arrivalSpeed="16.11" duration="47.00" routeLength="599.49" waitingTime="0.00" waitingCount="0" stopTime="0.00" timeLoss="10.75" rerouteNo="0" devices="tripinfo_flow_route_91_duration_20250327_2140.0" vType="car" speedFactor="1.06" vaporized=""/>
    <tripinfo id="flow_route_92_duration_20250327_2140.0" depart="0.00" departLane="133000063_0" departPos="1.04" departSpeed="0.00" departDelay="0.00" arrival="53.00" arrivalLane="186409193_0" arrivalPos="41.62" arrivalSpeed="15.49" duration="53.00" routeLength="432.44" waitingTime="0.00" waitingCount="0" stopTime="0.00" timeLoss="24.55" rerouteNo="0" devices="tripinfo_flow_route_92_duration_20250327_2140.0" vType="car" speedFactor="0.94" vaporized=""/>
    <tripinfo id="flow_route_92_duration_20250327_2140.2" depart="10.00" departLane="133000063_0" departPos="22.28" departSpeed="0.00" departDelay="2.94" arrival="56.00" arrivalLane="186409193_0" arrivalPos="31.80" arrivalSpeed="15.95" duration="46.00" routeLength="401.38" waitingTime="0.00" waitingCount="0" stopTime="0.00" timeLoss="20.65" rerouteNo="0" devices="tripinfo_flow_route_92_duration_20250327_2140.2" vType="car" speedFactor="1.05" vaporized=""/>
    <tripinfo id="flow_route_93_duration_20250327_2140.0" depart="0.00" departLane="133000063_0" departPos="115.92" departSpeed="0.00" departDelay="0.00" arrival="65.00" arrivalLane="380585336_1" arrivalPos="19.16" arrivalSpeed="16.38" duration="65.00" routeLength="758.54" waitingTime="0.00" waitingCount="0" stopTime="0.00" timeLoss="18.82" rerouteNo="0" devices="tripinfo_flow_route_93_duration_20250327_2140.0" vType="car" speedFactor="1.01" vaporized=""/>
    <tripinfo id="flow_route_91_duration_20250327_2140.1" depart="13.00" departLane="133000063_0" departPos="98.45" departSpeed="0.00" departDelay="3.00" arrival="67.00" arrivalLane="683079387#1_0" arrivalPos="6.99" arrivalSpeed="14.46" duration="54.00" routeLength="627.27" waitingTime="0.00" waitingCount="0" stopTime="0.00" timeLoss="10.95" rerouteNo="0" devices="tripinfo_flow_route_91_duration_20250327_2140.1" vType="car" speedFactor="0.88" vaporized=""/>
    <tripinfo id="flow_route_145_duration_20250327_2140.0" depart="0.00" departLane="683079388#0_0" departPos="22.61" departSpeed="0.00" departDelay="0.00" arrival="68.00" arrivalLane="380585336_0" arrivalPos="229.76" arrivalSpeed="15.56" duration="68.00" routeLength="831.39" waitingTime="0.00" waitingCount="0" stopTime="0.00" timeLoss="15.10" rerouteNo="0" devices="tripinfo_flow_route_145_duration_20250327_2140.0" vType="car" speedFactor="0.94" vaporized=""/>
    <tripinfo id="flow_route_102_duration_20250327_2140.0" depart="0.00" departLane="1342963997_0" departPos="83.70" departSpeed="0.00" departDelay="0.00" arrival="69.00" arrivalLane="380585336_1" arrivalPos="207.08" arrivalSpeed="16.11" duration="69.00" routeLength="834.32" waitingTime="0.00" waitingCount="0" stopTime="0.00" timeLoss="18.01" rerouteNo="0" devices="tripinfo_flow_route_102_duration_20250327_2140.0" vType="car" speedFactor="1.08" vaporized=""/>
    <tripinfo id="flow_route_103_duration_20250327_2140.0" depart="1.00" departLane="1342963997_0" departPos="57.81" departSpeed="0.00" departDelay="1.00" arrival="82.00" arrivalLane="683079387#1_0" arrivalPos="6.02" arrivalSpeed="16.56" duration="81.00" routeLength="524.42" waitingTime="26.00" waitingCount="1" stopTime="0.00" timeLoss="48.62" rerouteNo="0" devices="tripinfo_flow_route_103_duration_20250327_2140.0" vType="car" speedFactor="1.03" vaporized=""/>
    <tripinfo id="flow_route_129_duration_20250327_2140.0" depart="0.00" departLane="134133272_0" departPos="105.80" departSpeed="0.00" departDelay="0.00" arrival="84.00" arrivalLane="683079387#1_1" arrivalPos="7.59" arrivalSpeed="16.54" duration="84.00" routeLength="945.90" waitingTime="0.00" waitingCount="0" stopTime="0.00" timeLoss="26.00" rerouteNo="0" devices="tripinfo_flow_route_129_duration_20250327_2140.0" vType="car" speedFactor="1.05" vaporized=""/>
    <tripinfo id="flow_route_144_duration_20250327_2140.1" depart="8.00" departLane="683079388#0_0" departPos="19.74" departSpeed="0.00" departDelay="0.50" arrival="84.00" arrivalLane="380585338#0_1" arrivalPos="5.63" arrivalSpeed="6.83" duration="76.00" routeLength="565.63" waitingTime="21.00" waitingCount="1" stopTime="0.00" timeLoss="41.48" rerouteNo="0" devices="tripinfo_flow_route_144_duration_20250327_2140.1" vType="car" speedFactor="0.99" vaporized=""/>
    <tripinfo id="flow_route_144_duration_20250327_2140.3" depart="24.00" departLane="683079388#0_0" departPos="7.49" departSpeed="0.00" departDelay="1.50" arrival="84.00" arrivalLane="380585338#0_2" arrivalPos="8.13" arrivalSpeed="6.65" duration="60.00" routeLength="580.39" waitingTime="3.00" waitingCount="1" stopTime="0.00" timeLoss="24.90" rerouteNo="0" devices="tripinfo_flow_route_144_duration_20250327_2140.3" vType="car" speedFactor="1.01" vaporized=""/>
    <tripinfo id="flow_route_93_duration_20250327_2140.5" depart="14.00" departLane="133000063_0" departPos="115.08" departSpeed="0.00" departDelay="1.50" arrival="85.00" arrivalLane="380585336_1" arrivalPos="70.77" arrivalSpeed="16.48" duration="71.00" routeLength="810.98" waitingTime="0.00" waitingCount="0" stopTime="0.00" timeLoss="21.28" rerouteNo="0" devices="tripinfo_flow_route_93_duration_20250327_2140.5" vType="car" speedFactor="1.16" vaporized=""/>
    <tripinfo id="flow_route_93_duration_20250327_2140.4" depart="14.00" departLane="133000063_0" departPos="139.81" departSpeed="0.00" departDelay="4.00" arrival="87.00" arrivalLane="380585336_2" arrivalPos="139.60" arrivalSpeed="15.43" duration="73.00" routeLength="855.08" waitingTime="0.00" waitingCount="0" stopTime="0.00" timeLoss="18.45" rerouteNo="0" devices="tripinfo_flow_route_93_duration_20250327_2140.4" vType="car" speedFactor="0.94" vaporized=""/>
    <tripinfo id="flow_route_144_duration_20250327_2140.0" depart="0.00" departLane="683079388#0_0" departPos="1.56" departSpeed="0.00" departDelay="0.00" arrival="89.00" arrivalLane="380585338#0_0" arrivalPos="42.98" arrivalSpeed="9.38" duration="89.00" routeLength="621.16" waitingTime="25.00" waitingCount="1" stopTime="0.00" timeLoss="46.74" rerouteNo="0" devices="tripinfo_flow_route_144_duration_20250327_2140.0" vType="car" speedFactor="0.89" vaporized=""/>
    <tripinfo id="flow_route_93_duration_20250327_2140.3" depart="12.00" departLane="133000063_0" departPos="45.48" departSpeed="0.00" departDelay="4.50" arrival="90.00" arrivalLane="380585336_1" arrivalPos="99.74" arrivalSpeed="16.52" duration="78.00" routeLength="909.55" waitingTime="0.00" waitingCount="0" stopTime="0.00" timeLoss="22.82" rerouteNo="0" devices="tripinfo_flow_route_93_duration_20250327_2140.3" vType="car" speedFactor="1.12" vaporized=""/>
    <tripinfo id="flow_route_129_duration_20250327_2140.1" depart="21.00" departLane="134133272_0" departPos="34.40" departSpeed="0.00" departDelay="1.00" arrival="94.00" arrivalLane="683079387#1_0" arrivalPos="5.58" arrivalSpeed="16.56" duration="73.00" routeLength="1015.29" waitingTime="0.00" waitingCount="0" stopTime="0.00" timeLoss="10.89" rerouteNo="0" devices="tripinfo_flow_route_129_duration_20250327_2140.1" vType="car" speedFactor="1.13" vaporized=""/>
    <tripinfo id="flow_route_144_duration_20250327_2140.4" depart="32.00" departLane="683079388#0_0" departPos="14.81" departSpeed="0.00" departDelay="2.00" arrival="96.00" arrivalLane="380585338#0_1" arrivalPos="108.57" arrivalSpeed="14.01" duration="64.00" routeLength="673.50" waitingTime="0.00" waitingCount="0" stopTime="0.00" timeLoss="22.93" rerouteNo="0" devices="tripinfo_flow_route_144_duration_20250327_2140.4" vType="car" speedFactor="1.03" vaporized=""/>
    <tripinfo id="flow_route_144_duration_20250327_2140.2" depart="15.00" departLane="683079388#0_0" departPos="24.79" departSpeed="0.00" departDelay="0.00" arrival="97.00" arrivalLane="380585338#0_0" arrivalPos="120.10" arrivalSpeed="15.10" duration="82.00" routeLength="675.05" waitingTime="16.00" waitingCount="1" stopTime="0.00" timeLoss="40.14" rerouteNo="0" devices="tripinfo_flow_route_144_duration_20250327_2140.2" vType="car" speedFactor="0.97" vaporized=""/>
    <tripinfo id="flow_route_93_duration_20250327_2140.1" depart="4.00" departLane="133000063_0" departPos="52.89" departSpeed="0.00" departDelay="1.50" arrival="98.00" arrivalLane="380585336_0" arrivalPos="288.04" arrivalSpeed="14.02" duration="94.00" routeLength="1090.45" waitingTime="0.00" waitingCount="0" stopTime="0.00" timeLoss="17.93" rerouteNo="0" devices="tripinfo_flow_route_93_duration_20250327_2140.1" vType="car" speedFactor="0.86" vaporized=""/>
    <tripinfo id="flow_route_145_duration_20250327_2140.1" depart="20.00" departLane="683079388#0_0" departPos="8.10" departSpeed="0.00" departDelay="0.00" arrival="99.00" arrivalLane="380585336_0" arrivalPos="391.07" arrivalSpeed="15.40" duration="79.00" routeLength="1007.20" waitingTime="0.00" waitingCount="0" stopTime="0.00" timeLoss="14.68" rerouteNo="0" devices="tripinfo_flow_route_145_duration_20250327_2140.1" vType="car" speedFactor="0.93" vaporized=""/>
    <tripinfo id="flow_route_144_duration_20250327_2140.6" depart="47.00" departLane="683079388#0_0" departPos="0.02" departSpeed="0.00" departDelay="2.00" arrival="99.00" arrivalLane="380585338#0_0" arrivalPos="83.82" arrivalSpeed="16.16" duration="52.00" routeLength="663.54" waitingTime="0.00" waitingCount="0" stopTime="0.00" timeLoss="11.45" rerouteNo="0" devices="tripinfo_flow_route_144_duration_20250327_2140.6" vType="car" speedFactor="1.14" vaporized=""/>
    <tripinfo id="flow_route_144_duration_20250327_2140.5" depart="38.00" departLane="683079388#0_0" departPos="12.39" departSpeed="0.00" departDelay="0.50" arrival="101.00" arrivalLane="380585338#0_1" arrivalPos="153.16" arrivalSpeed="14.79" duration="63.00" routeLength="720.50" waitingTime="0.00" waitingCount="0" stopTime="0.00" timeLoss="14.12" rerouteNo="0" devices="tripinfo_flow_route_144_duration_20250327_2140.5" vType="car" speedFactor="0.90" vaporized=""/>
    <tripinfo id="flow_route_145_duration_20250327_2140.2" depart="42.00" departLane="683079388#0_0" departPos="2.66" departSpeed="0.00" departDelay="2.00" arrival="101.00" arrivalLane="380585336_0" arrivalPos="64.70" arrivalSpeed="12.64" duration="59.00" routeLength="686.29" waitingTime="0.00" waitingCount="0" stopTime="0.00" timeLoss="17.58" rerouteNo="0" devices="tripinfo_flow_route_145_duration_20250327_2140.2" vType="car" speedFactor="1.02" vaporized=""/>
    <tripinfo id="flow_route_92_duration_20250327_2140.3" depart="14.00" departLane="133000063_0" departPos="15.33" departSpeed="0.00" departDelay="3.41" arrival="104.00" arrivalLane="186409193_0" arrivalPos="24.03" arrivalSpeed="14.19" duration="90.00" routeLength="400.56" waitingTime="37.00" waitingCount="1" stopTime="0.00" timeLoss="63.44" rerouteNo="0" devices="tripinfo_flow_route_92_duration_20250327_2140.3" vType="car" speedFactor="0.94" vaporized=""/>
    <tripinfo id="flow_route_129_duration_20250327_2140.2" depart="40.00" departLane="134133272_0" departPos="172.33" departSpeed="0.00" departDelay="0.00" arrival="105.00" arrivalLane="683079387#1_0" arrivalPos="8.63" arrivalSpeed="16.22" duration="65.00" routeLength="880.41" waitingTime="0.00" waitingCount="0" stopTime="0.00" timeLoss="11.77" rerouteNo="0" devices="tripinfo_flow_route_129_duration_20250327_2140.2" vType="car" speedFactor="1.17" vaporized=""/>
    <tripinfo id="flow_route_93_duration_20250327_2140.2" depart="7.00" departLane="133000063_0" departPos="68.31" departSpeed="0.00" departDelay="2.00" arrival="107.00" arrivalLane="380585336_1" arrivalPos="395.67" arrivalSpeed="16.40" duration="100.00" routeLength="1182.66" waitingTime="0.00" waitingCount="0" stopTime="0.00" timeLoss="27.88" rerouteNo="0" devices="tripinfo_flow_route_93_duration_20250327_2140.2" vType="car" speedFactor="1.03" vaporized=""/>
    <tripinfo id="flow_route_144_duration_20250327_2140.7" depart="53.00" departLane="683079388#0_0" departPos="8.59" departSpeed="0.00" departDelay="0.50" arrival="107.00" arrivalLane="380585338#0_0" arrivalPos="80.38" arrivalSpeed="14.62" duration="54.00" routeLength="651.53" waitingTime="0.00" waitingCount="0" stopTime="0.00" timeLoss="10.56" rerouteNo="0" devices="tripinfo_flow_route_144_duration_20250327_2140.7" vType="car" speedFactor="0.91" vaporized=""/>
    <tripinfo id="flow_route_92_duration_20250327_2140.6" depart="40.00" departLane="133000063_0" departPos="155.78" departSpeed="0.00" departDelay="18.83" arrival="109.00" arrivalLane="186409193_0" arrivalPos="33.13" arrivalSpeed="15.66" duration="69.00" routeLength="269.21" waitingTime="27.00" waitingCount="1" stopTime="0.00" timeLoss="51.84" rerouteNo="0" devices="tripinfo_flow_route_92_duration_20250327_2140.6" vType="car" speedFactor="1.18" vaporized=""/>
    <tripinfo id="flow_route_102_duration_20250327_2140.1" depart="9.00" departLane="1342963997_0" departPos="5.36" departSpeed="0.00" departDelay="0.43" arrival="113.00" arrivalLane="380585336_1" arrivalPos="67.04" arrivalSpeed="15.18" duration="104.00" routeLength="772.64" waitingTime="19.00" waitingCount="2" stopTime="0.00" timeLoss="54.45" rerouteNo="0" devices="tripinfo_flow_route_102_duration_20250327_2140.1" vType="car" speedFactor="0.93" vaporized=""/>
    <tripinfo id="flow_route_92_duration_20250327_2140.5" depart="28.00" departLane="133000063_0" departPos="62.90" departSpeed="0.00" departDelay="10.36" arrival="118.00" arrivalLane="186409193_0" arrivalPos="33.89" arrivalSpeed="14.80" duration="90.00" routeLength="362.85" waitingTime="27.00" waitingCount="1" stopTime="0.00" timeLoss="64.35" rerouteNo="0" devices="tripinfo_flow_route_92_duration_20250327_2140.5" vType="car" speedFactor="0.89" vaporized=""/>
    <tripinfo id="flow_route_92_duration_20250327_2140.4" depart="20.00" departLane="133000063_0" departPos="11.54" departSpeed="0.00" departDelay="5.88" arrival="121.00" arrivalLane="186409193_0" arrivalPos="41.80" arrivalSpeed="15.55" duration="101.00" routeLength="422.13" waitingTime="26.00" waitingCount="1" stopTime="0.00" timeLoss="74.86" rerouteNo="0" devices="tripinfo_flow_route_92_duration_20250327_2140.4" vType="car" speedFactor="1.02" vaporized=""/>
    <tripinfo id="flow_route_91_duration_20250327_2140.2" depart="37.00" departLane="133000063_0" departPos="122.67" departSpeed="0.00" departDelay="17.00" arrival="121.00" arrivalLane="683079387#1_0" arrivalPos="0.28" arrivalSpeed="14.80" duration="84.00" routeLength="596.34" waitingTime="25.00" waitingCount="1" stopTime="0.00" timeLoss="44.38" rerouteNo="0" devices="tripinfo_flow_route_91_duration_20250327_2140.2" vType="car" speedFactor="0.92" vaporized=""/>
    <tripinfo id="flow_route_92_duration_20250327_2140.7" depart="41.00" departLane="133000063_0" departPos="47.76" departSpeed="0.00" departDelay="16.30" arrival="125.00" arrivalLane="186409193_0" arrivalPos="12.41" arrivalSpeed="13.63" duration="84.00" routeLength="356.51" waitingTime="8.00" waitingCount="1" stopTime="0.00" timeLoss="62.18" rerouteNo="0" devices="tripinfo_flow_route_92_duration_20250327_2140.7" vType="car" speedFactor="1.17" vaporized=""/>
    <tripinfo id="flow_route_92_duration_20250327_2140.9" depart="54.00" departLane="133000063_0" departPos="76.91" departSpeed="0.00" departDelay="22.24" arrival="125.00" arrivalLane="186409193_0" arrivalPos="26.63" arrivalSpeed="14.35" duration="71.00" routeLength="341.58" waitingTime="9.00" waitingCount="1" stopTime="0.00" timeLoss="48.56" rerouteNo="0" devices="tripinfo_flow_route_92_duration_20250327_2140.9" vType="car" speedFactor="0.96" vaporized=""/>
    <tripinfo id="flow_route_102_duration_20250327_2140.4" depart="35.00" departLane="1342963997_0" departPos="118.84" departSpeed="0.00" departDelay="0.72" arrival="125.00" arrivalLane="380585336_1" arrivalPos="42.78" arrivalSpeed="16.13" duration="90.00" routeLength="634.89" waitingTime="9.00" waitingCount="3" stopTime="0.00" timeLoss="50.85" rerouteNo="0" devices="tripinfo_flow_route_102_duration_20250327_2140.4" vType="car" speedFactor="1.04" vaporized=""/>
    <tripinfo id="flow_route_91_duration_20250327_2140.3" depart="54.00" departLane="133000063_0" departPos="35.74" departSpeed="0.00" departDelay="24.00" arrival="126.00" arrivalLane="683079387#1_1" arrivalPos="1.07" arrivalSpeed="16.26" duration="72.00" routeLength="684.06" waitingTime="1.00" waitingCount="1" stopTime="0.00" timeLoss="30.09" rerouteNo="0" devices="tripinfo_flow_route_91_duration_20250327_2140.3" vType="car" speedFactor="1.10" vaporized=""/>
    <tripinfo id="flow_route_92_duration_20250327_2140.8" depart="49.00" departLane="133000063_0" departPos="2.01" departSpeed="0.00" departDelay="20.77" arrival="128.00" arrivalLane="186409193_0" arrivalPos="1.39" arrivalSpeed="14.45" duration="79.00" routeLength="391.24" waitingTime="4.00" waitingCount="1" stopTime="0.00" timeLoss="54.60" rerouteNo="0" devices="tripinfo_flow_route_92_duration_20250327_2140.8" vType="car" speedFactor="1.18" vaporized=""/>
    <tripinfo id="flow_route_102_duration_20250327_2140.2" depart="18.00" departLane="1342963997_0" departPos="115.21" departSpeed="0.00" departDelay="0.86" arrival="129.00" arrivalLane="380585336_0" arrivalPos="402.36" arrivalSpeed="14.18" duration="111.00" routeLength="998.10" waitingTime="18.00" waitingCount="1" stopTime="0.00" timeLoss="42.51" rerouteNo="0" devices="tripinfo_flow_route_102_duration_20250327_2140.2" vType="car" speedFactor="0.87" vaporized=""/>
    <tripinfo id="flow_route_102_duration_20250327_2140.3" depart="26.00" departLane="1342963997_0" departPos="92.08" departSpeed="0.00" departDelay="0.29" arrival="132.00" arrivalLane="380585336_1" arrivalPos="259.18" arrivalSpeed="16.54" duration="106.00" routeLength="878.05" waitingTime="16.00" waitingCount="3" stopTime="0.00" timeLoss="51.95" rerouteNo="0" devices="tripinfo_flow_route_102_duration_20250327_2140.3" vType="car" speedFactor="1.02" vaporized=""/>
    <tripinfo id="flow_route_92_duration_20250327_2140.10" depart="65.00" departLane="133000063_0" departPos="43.15" departSpeed="0.00" departDelay="29.71" arrival="133.00" arrivalLane="186409193_0" arrivalPos="45.63" arrivalSpeed="16.23" duration="68.00" routeLength="394.34" waitingTime="4.00" waitingCount="1" stopTime="0.00" timeLoss="43.56" rerouteNo="0" devices="tripinfo_flow_route_92_duration_20250327_2140.10" vType="car" speedFactor="1.09" vaporized=""/>
    <tripinfo id="flow_route_91_duration_20250327_2140.4" depart="75.00" departLane="133000063_0" departPos="5.96" departSpeed="0.00" departDelay="35.00" arrival="136.00" arrivalLane="683079387#1_0" arrivalPos="6.90" arrivalSpeed="13.86" duration="61.00" routeLength="719.66" waitingTime="0.00" waitingCount="0" stopTime="0.00" timeLoss="10.02" rerouteNo="0" devices="tripinfo_flow_route_91_duration_20250327_2140.4" vType="car" speedFactor="0.85" vaporized=""/>
    <tripinfo id="flow_route_92_duration_20250327_2140.11" depart="74.00" departLane="133000063_0" departPos="14.57" departSpeed="0.00" departDelay="35.18" arrival="137.00" arrivalLane="186409193_0" arrivalPos="2.49" arrivalSpeed="12.06" duration="63.00" routeLength="379.78" waitingTime="0.00" waitingCount="0" stopTime="0.00" timeLoss="36.54" rerouteNo="0" devices="tripinfo_flow_route_92_duration_20250327_2140.11" vType="car" speedFactor="0.88" vaporized=""/>
    <tripinfo id="flow_route_93_duration_20250327_2140.9" depart="40.00" departLane="133000063_0" departPos="59.35" departSpeed="0.00" departDelay="17.50" arrival="142.00" arrivalLane="380585336_1" arrivalPos="76.12" arrivalSpeed="16.51" duration="102.00" routeLength="872.07" waitingTime="4.00" waitingCount="3" stopTime="0.00" timeLoss="48.91" rerouteNo="0" devices="tripinfo_flow_route_93_duration_20250327_2140.9" vType="car" speedFactor="1.15" vaporized=""/>
    <tripinfo id="flow_route_102_duration_20250327_2140.6" depart="52.00" departLane="1342963997_0" departPos="87.53" departSpeed="0.00" departDelay="0.57" arrival="142.00" arrivalLane="380585336_1" arrivalPos="165.79" arrivalSpeed="16.31" duration="90.00" routeLength="789.22" waitingTime="2.00" waitingCount="1" stopTime="0.00" timeLoss="41.13" rerouteNo="0" devices="tripinfo_flow_route_102_duration_20250327_2140.6" vType="car" speedFactor="0.99" vaporized=""/>
    <tripinfo id="flow_route_92_duration_20250327_2140.12" depart="79.00" departLane="133000063_0" departPos="1.26" departSpeed="0.00" departDelay="36.65" arrival="143.00" arrivalLane="186409193_0" arrivalPos="50.04" arrivalSpeed="15.30" duration="64.00" routeLength="440.64" waitingTime="0.00" waitingCount="0" stopTime="0.00" timeLoss="36.26" rerouteNo="0" devices="tripinfo_flow_route_92_duration_20250327_2140.12" vType="car" speedFactor="1.10" vaporized=""/>
    <tripinfo id="flow_route_102_duration_20250327_2140.5" depart="43.00" departLane="1342963997_0" departPos="98.62" departSpeed="0.00" departDelay="0.15" arrival="151.00" arrivalLane="380585336_0" arrivalPos="345.98" arrivalSpeed="16.51" duration="108.00" routeLength="958.31" waitingTime="3.00" waitingCount="2" stopTime="0.00" timeLoss="49.67" rerouteNo="0" devices="tripinfo_flow_route_102_duration_20250327_2140.5" vType="car" speedFactor="1.00" vaporized=""/>
    <tripinfo id="flow_route_93_duration_20250327_2140.10" depart="42.00" departLane="133000063_0" departPos="102.08" departSpeed="0.00" departDelay="17.00" arrival="153.00" arrivalLane="380585336_1" arrivalPos="285.97" arrivalSpeed="16.53" duration="111.00" routeLength="1039.17" waitingTime="13.00" waitingCount="2" stopTime="0.00" timeLoss="48.03" rerouteNo="0" devices="tripinfo_flow_route_93_duration_20250327_2140.10" vType="car" speedFactor="0.99" vaporized=""/>
    <tripinfo id="flow_route_93_duration_20250327_2140.8" depart="37.00" departLane="133000063_0" departPos="21.41" departSpeed="0.00" departDelay="17.00" arrival="154.00" arrivalLane="380585336_1" arrivalPos="117.49" arrivalSpeed="15.52" duration="117.00" routeLength="951.37" waitingTime="18.00" waitingCount="1" stopTime="0.00" timeLoss="56.84" rerouteNo="0" devices="tripinfo_flow_route_93_duration_20250327_2140.8" vType="car" speedFactor="0.95" vaporized=""/>
    <tripinfo id="flow_route_93_duration_20250327_2140.6" depart="28.00" departLane="133000063_0" departPos="71.85" departSpeed="0.00" departDelay="13.00" arrival="156.00" arrivalLane="380585336_1" arrivalPos="251.23" arrivalSpeed="16.13" duration="128.00" routeLength="1034.66" waitingTime="30.00" waitingCount="1" stopTime="0.00" timeLoss="65.60" rerouteNo="0" devices="tripinfo_flow_route_93_duration_20250327_2140.6" vType="car" speedFactor="1.01" vaporized=""/>
    <tripinfo id="flow_route_93_duration_20250327_2140.7" depart="33.00" departLane="133000063_0" departPos="51.04" departSpeed="0.00" departDelay="15.50" arrival="157.00" arrivalLane="380585336_0" arrivalPos="70.96" arrivalSpeed="13.36" duration="124.00" routeLength="875.21" waitingTime="13.00" waitingCount="2" stopTime="0.00" timeLoss="60.54" rerouteNo="0" devices="tripinfo_flow_route_93_duration_20250327_2140.7" vType="car" speedFactor="0.83" vaporized=""/>
    <tripinfo id="flow_route_93_duration_20250327_2140.11" depart="44.00" departLane="133000063_0" departPos="2.52" departSpeed="0.00" departDelay="16.50" arrival="167.00" arrivalLane="380585336_2" arrivalPos="246.50" arrivalSpeed="15.98" duration="123.00" routeLength="1099.27" waitingTime="0.00" waitingCount="0" stopTime="0.00" timeLoss="54.41" rerouteNo="0" devices="tripinfo_flow_route_93_duration_20250327_2140.11" vType="car" speedFactor="0.97" vaporized=""/>
    <tripinfo id="flow_route_93_duration_20250327_2140.15" depart="67.00" departLane="133000063_0" departPos="32.82" departSpeed="0.00" departDelay="29.50" arrival="167.00" arrivalLane="380585336_1" arrivalPos="59.48" arrivalSpeed="15.40" duration="100.00" routeLength="881.95" waitingTime="3.00" waitingCount="1" stopTime="0.00" timeLoss="46.59" rerouteNo="0" devices="tripinfo_flow_route_93_duration_20250327_2140.15" vType="car" speedFactor="1.00" vaporized=""/>
    <tripinfo id="flow_route_93_duration_20250327_2140.14" depart="60.00" departLane="133000063_0" departPos="16.83" departSpeed="0.00" departDelay="25.00" arrival="172.00" arrivalLane="380585336_1" arrivalPos="294.73" arrivalSpeed="16.40" duration="112.00" routeLength="1133.20" waitingTime="0.00" waitingCount="0" stopTime="0.00" timeLoss="43.13" rerouteNo="0" devices="tripinfo_flow_route_93_duration_20250327_2140.14" vType="car" speedFactor="1.04" vaporized=""/>
    <tripinfo id="flow_route_92_duration_20250327_2140.13" depart="88.00" departLane="133000063_0" departPos="2.01" departSpeed="0.00" departDelay="42.12" arrival="182.00" arrivalLane="186409193_0" arrivalPos="20.20" arrivalSpeed="15.44" duration="94.00" routeLength="410.06" waitingTime="36.00" waitingCount="1" stopTime="0.00" timeLoss="68.12" rerouteNo="0" devices="tripinfo_flow_route_92_duration_20250327_2140.13" vType="car" speedFactor="1.02" vaporized=""/>
    <tripinfo id="flow_route_93_duration_20250327_2140.13" depart="59.00" departLane="133000063_0" departPos="135.99" departSpeed="0.00" departDelay="26.50" arrival="185.00" arrivalLane="380585336_0" arrivalPos="409.35" arrivalSpeed="16.56" duration="126.00" routeLength="1128.65" waitingTime="14.00" waitingCount="1" stopTime="0.00" timeLoss="57.18" rerouteNo="0" devices="tripinfo_flow_route_93_duration_20250327_2140.13" vType="car" speedFactor="1.09" vaporized=""/>
    <tripinfo id="flow_route_93_duration_20250327_2140.17" depart="81.00" departLane="133000063_0" departPos="74.11" departSpeed="0.00" departDelay="38.50" arrival="185.00" arrivalLane="380585336_1" arrivalPos="270.14" arrivalSpeed="16.36" duration="104.00" routeLength="1051.32" waitingTime="0.00" waitingCount="0" stopTime="0.00" timeLoss="40.29" rerouteNo="0" devices="tripinfo_flow_route_93_duration_20250327_2140.17" vType="car" speedFactor="1.00" vaporized=""/>
    <tripinfo id="flow_route_93_duration_20250327_2140.12" depart="54.00" departLane="133000063_0" departPos="26.41" departSpeed="0.00" departDelay="24.00" arrival="186.00" arrivalLane="380585336_0" arrivalPos="368.92" arrivalSpeed="14.80" duration="132.00" routeLength="1197.79" waitingTime="5.00" waitingCount="1" stopTime="0.00" timeLoss="52.73" rerouteNo="0" devices="tripinfo_flow_route_93_duration_20250327_2140.12" vType="car" speedFactor="0.90" vaporized=""/>
    <tripinfo id="flow_route_93_duration_20250327_2140.16" depart="79.00" departLane="133000063_0" departPos="78.49" departSpeed="0.00" departDelay="39.00" arrival="187.00" arrivalLane="380585336_0" arrivalPos="412.18" arrivalSpeed="13.91" duration="108.00" routeLength="1188.98" waitingTime="0.00" waitingCount="0" stopTime="0.00" timeLoss="24.66" rerouteNo="0" devices="tripinfo_flow_route_93_duration_20250327_2140.16" vType="car" speedFactor="0.85" vaporized=""/>
    <tripinfo id="flow_route_92_duration_20250327_2140.16" depart="111.00" departLane="133000063_0" departPos="93.81" departSpeed="0.00" departDelay="54.54" arrival="195.00" arrivalLane="186409193_0" arrivalPos="46.84" arrivalSpeed="14.83" duration="84.00" routeLength="344.89" waitingTime="17.00" waitingCount="3" stopTime="0.00" timeLoss="62.60" rerouteNo="0" devices="tripinfo_flow_route_92_duration_20250327_2140.16" vType="car" speedFactor="1.04" vaporized=""/>
    <tripinfo id="flow_route_92_duration_20250327_2140.14" depart="105.00" departLane="133000063_0" departPos="36.46" departSpeed="0.00" departDelay="55.59" arrival="196.00" arrivalLane="186409193_0" arrivalPos="24.06" arrivalSpeed="14.12" duration="91.00" routeLength="379.46" waitingTime="11.00" waitingCount="1" stopTime="0.00" timeLoss="67.20" rerouteNo="0" devices="tripinfo_flow_route_92_duration_20250327_2140.14" vType="car" speedFactor="1.12" vaporized=""/>