<?xml version="1.0" encoding="UTF-8"?>

<!-- generated on 2025-05-06 21:09:06 by Eclipse SUMO sumo Version 1.20.0
<configuration xmlns:xsi="http://www.w3.org/2001/XMLSchema-instance" xsi:noNamespaceSchemaLocation="http://sumo.dlr.de/xsd/sumoConfiguration.xsd">

    <input>
        <net-file value="osm.net.xml"/>
        <route-files value="xml/route_static_cluster_3839031475_3839031476_4110471700_4234582615_8.rou.xml"/>
    </input>

    <output>
        <tripinfo-output value="xml/tripinfo_static_cluster_3839031475_3839031476_4110471700_4234582615_8.xml"/>
    </output>

    <traci_server>
        <remote-port value="36923"/>
    </traci_server>

</configuration>
-->

<tripinfos xmlns:xsi="http://www.w3.org/2001/XMLSchema-instance" xsi:noNamespaceSchemaLocation="http://sumo.dlr.de/xsd/tripinfo_file.xsd">
    <tripinfo id="flow_route_85_duration_20250327_2120.0" depart="0.00" departLane="1091883842_0" departPos="162.60" departSpeed="0.00" departDelay="0.00" arrival="16.00" arrivalLane="133000063_0" arrivalPos="42.63" arrivalSpeed="9.42" duration="16.00" routeLength="74.77" waitingTime="0.00" waitingCount="0" stopTime="0.00" timeLoss="9.22" rerouteNo="0" devices="tripinfo_flow_route_85_duration_20250327_2120.0" vType="car" speedFactor="0.89" vaporized=""/>
    <tripinfo id="flow_route_79_duration_20250327_2120.0" depart="0.00" departLane="380344611#0_0" departPos="128.21" departSpeed="0.00" departDelay="0.00" arrival="28.00" arrivalLane="423956929_1" arrivalPos="91.18" arrivalSpeed="16.56" duration="28.00" routeLength="278.79" waitingTime="0.00" waitingCount="0" stopTime="0.00" timeLoss="10.63" rerouteNo="0" devices="tripinfo_flow_route_79_duration_20250327_2120.0" vType="car" speedFactor="1.08" vaporized=""/>
    <tripinfo id="flow_route_80_duration_20250327_2120.0" depart="0.00" departLane="380344611#0_0" departPos="160.58" departSpeed="0.00" departDelay="0.00" arrival="31.00" arrivalLane="380593307#0_0" arrivalPos="102.42" arrivalSpeed="13.78" duration="31.00" routeLength="234.46" waitingTime="0.00" waitingCount="0" stopTime="0.00" timeLoss="16.21" rerouteNo="0" devices="tripinfo_flow_route_80_duration_20250327_2120.0" vType="car" speedFactor="1.03" vaporized=""/>
    <tripinfo id="flow_route_90_duration_20250327_2120.0" depart="0.00" departLane="380585338#0_0" departPos="118.71" departSpeed="0.00" departDelay="0.00" arrival="33.00" arrivalLane="136617981_0" arrivalPos="211.18" arrivalSpeed="13.89" duration="33.00" routeLength="279.54" waitingTime="0.00" waitingCount="0" stopTime="0.00" timeLoss="12.16" rerouteNo="0" devices="tripinfo_flow_route_90_duration_20250327_2120.0" vType="car" speedFactor="0.86" vaporized=""/>
    <tripinfo id="flow_route_80_duration_20250327_2120.1" depart="20.00" departLane="380344611#0_0" departPos="263.18" departSpeed="0.00" departDelay="0.00" arrival="33.00" arrivalLane="380593307#0_0" arrivalPos="31.83" arrivalSpeed="8.97" duration="13.00" routeLength="61.27" waitingTime="0.00" waitingCount="0" stopTime="0.00" timeLoss="8.86" rerouteNo="0" devices="tripinfo_flow_route_80_duration_20250327_2120.1" vType="car" speedFactor="1.18" vaporized=""/>
    <tripinfo id="flow_route_84_duration_20250327_2120.0" depart="0.00" departLane="1091883842_0" departPos="11.19" departSpeed="0.00" departDelay="0.00" arrival="36.00" arrivalLane="136617981_1" arrivalPos="210.65" arrivalSpeed="16.21" duration="36.00" routeLength="417.75" waitingTime="0.00" waitingCount="0" stopTime="0.00" timeLoss="10.06" rerouteNo="0" devices="tripinfo_flow_route_84_duration_20250327_2120.0" vType="car" speedFactor="1.05" vaporized=""/>
    <tripinfo id="flow_route_81_duration_20250327_2120.0" depart="0.00" departLane="380344611#0_0" departPos="75.01" departSpeed="0.00" departDelay="0.00" arrival="37.00" arrivalLane="133000063_2" arrivalPos="7.51" arrivalSpeed="6.90" duration="37.00" routeLength="248.37" waitingTime="0.00" waitingCount="0" stopTime="0.00" timeLoss="17.96" rerouteNo="0" devices="tripinfo_flow_route_81_duration_20250327_2120.0" vType="car" speedFactor="0.83" vaporized=""/>
    <tripinfo id="flow_route_81_duration_20250327_2120.2" depart="9.00" departLane="380344611#0_0" departPos="85.57" departSpeed="0.00" departDelay="0.43" arrival="41.00" arrivalLane="133000063_2" arrivalPos="5.58" arrivalSpeed="7.52" duration="32.00" routeLength="235.88" waitingTime="0.00" waitingCount="0" stopTime="0.00" timeLoss="15.94" rerouteNo="0" devices="tripinfo_flow_route_81_duration_20250327_2120.2" vType="car" speedFactor="0.93" vaporized=""/>
    <tripinfo id="flow_route_84_duration_20250327_2120.1" depart="6.00" departLane="1091883842_0" departPos="73.65" departSpeed="0.00" departDelay="0.55" arrival="42.00" arrivalLane="136617981_1" arrivalPos="251.57" arrivalSpeed="16.25" duration="36.00" routeLength="396.21" waitingTime="0.00" waitingCount="0" stopTime="0.00" timeLoss="11.73" rerouteNo="0" devices="tripinfo_flow_route_84_duration_20250327_2120.1" vType="car" speedFactor="1.12" vaporized=""/>
    <tripinfo id="flow_route_81_duration_20250327_2120.1" depart="5.00" departLane="380344611#0_0" departPos="233.75" departSpeed="0.00" departDelay="0.72" arrival="44.00" arrivalLane="133000063_2" arrivalPos="109.11" arrivalSpeed="14.86" duration="39.00" routeLength="191.23" waitingTime="6.00" waitingCount="1" stopTime="0.00" timeLoss="26.25" rerouteNo="0" devices="tripinfo_flow_route_81_duration_20250327_2120.1" vType="car" speedFactor="1.05" vaporized=""/>
    <tripinfo id="flow_route_81_duration_20250327_2120.3" depart="13.00" departLane="380344611#0_0" departPos="162.09" departSpeed="0.00" departDelay="0.15" arrival="44.00" arrivalLane="133000063_2" arrivalPos="45.48" arrivalSpeed="10.80" duration="31.00" routeLength="199.26" waitingTime="0.00" waitingCount="0" stopTime="0.00" timeLoss="17.93" rerouteNo="0" devices="tripinfo_flow_route_81_duration_20250327_2120.3" vType="car" speedFactor="1.02" vaporized=""/>
    <tripinfo id="flow_route_84_duration_20250327_2120.3" depart="17.00" departLane="1091883842_0" departPos="173.65" departSpeed="0.00" departDelay="0.64" arrival="44.00" arrivalLane="136617981_0" arrivalPos="196.02" arrivalSpeed="13.60" duration="27.00" routeLength="240.66" waitingTime="0.00" waitingCount="0" stopTime="0.00" timeLoss="9.10" rerouteNo="0" devices="tripinfo_flow_route_84_duration_20250327_2120.3" vType="car" speedFactor="0.83" vaporized=""/>
    <tripinfo id="flow_route_89_duration_20250327_2120.1" depart="4.00" departLane="380585338#0_0" departPos="89.08" departSpeed="0.00" departDelay="0.00" arrival="51.00" arrivalLane="380593307#0_0" arrivalPos="8.02" arrivalSpeed="8.38" duration="47.00" routeLength="129.21" waitingTime="18.00" waitingCount="1" stopTime="0.00" timeLoss="38.91" rerouteNo="0" devices="tripinfo_flow_route_89_duration_20250327_2120.1" vType="car" speedFactor="1.09" vaporized=""/>
    <tripinfo id="flow_route_89_duration_20250327_2120.3" depart="13.00" departLane="380585338#0_0" departPos="29.16" departSpeed="0.00" departDelay="1.00" arrival="54.00" arrivalLane="380593307#0_2" arrivalPos="21.77" arrivalSpeed="10.11" duration="41.00" routeLength="202.87" waitingTime="5.00" waitingCount="1" stopTime="0.00" timeLoss="28.40" rerouteNo="0" devices="tripinfo_flow_route_89_duration_20250327_2120.3" vType="car" speedFactor="1.16" vaporized=""/>
    <tripinfo id="flow_route_89_duration_20250327_2120.6" depart="24.00" departLane="380585338#0_0" departPos="98.49" departSpeed="0.00" departDelay="0.00" arrival="56.00" arrivalLane="380593307#0_1" arrivalPos="14.93" arrivalSpeed="10.32" duration="32.00" routeLength="126.72" waitingTime="4.00" waitingCount="1" stopTime="0.00" timeLoss="23.86" rerouteNo="0" devices="tripinfo_flow_route_89_duration_20250327_2120.6" vType="car" speedFactor="0.99" vaporized=""/>
    <tripinfo id="flow_route_89_duration_20250327_2120.8" depart="32.00" departLane="380585338#0_0" departPos="152.04" departSpeed="0.00" departDelay="0.00" arrival="56.00" arrivalLane="380593307#0_0" arrivalPos="18.18" arrivalSpeed="10.75" duration="24.00" routeLength="76.41" waitingTime="4.00" waitingCount="1" stopTime="0.00" timeLoss="18.99" rerouteNo="0" devices="tripinfo_flow_route_89_duration_20250327_2120.8" vType="car" speedFactor="1.04" vaporized=""/>
    <tripinfo id="flow_route_89_duration_20250327_2120.0" depart="0.00" departLane="380585338#0_0" departPos="55.91" departSpeed="0.00" departDelay="0.00" arrival="57.00" arrivalLane="380593307#0_0" arrivalPos="94.67" arrivalSpeed="13.58" duration="57.00" routeLength="249.03" waitingTime="20.00" waitingCount="1" stopTime="0.00" timeLoss="40.94" rerouteNo="0" devices="tripinfo_flow_route_89_duration_20250327_2120.0" vType="car" speedFactor="0.94" vaporized=""/>
    <tripinfo id="flow_route_77_duration_20250327_2120.0" depart="0.00" departLane="133342692#0_0" departPos="115.39" departSpeed="0.00" departDelay="0.00" arrival="58.00" arrivalLane="423956929_0" arrivalPos="132.19" arrivalSpeed="15.11" duration="58.00" routeLength="199.33" waitingTime="26.00" waitingCount="1" stopTime="0.00" timeLoss="43.94" rerouteNo="0" devices="tripinfo_flow_route_77_duration_20250327_2120.0" vType="car" speedFactor="0.94" vaporized=""/>
    <tripinfo id="flow_route_89_duration_20250327_2120.2" depart="8.00" departLane="380585338#0_0" departPos="41.11" departSpeed="0.00" departDelay="0.00" arrival="58.00" arrivalLane="380593307#0_2" arrivalPos="94.50" arrivalSpeed="13.84" duration="50.00" routeLength="263.66" waitingTime="10.00" waitingCount="1" stopTime="0.00" timeLoss="33.58" rerouteNo="0" devices="tripinfo_flow_route_89_duration_20250327_2120.2" vType="car" speedFactor="0.99" vaporized=""/>
    <tripinfo id="flow_route_76_duration_20250327_2120.1" depart="20.00" departLane="133342692#0_0" departPos="26.03" departSpeed="0.00" departDelay="0.00" arrival="59.00" arrivalLane="133000063_0" arrivalPos="84.84" arrivalSpeed="13.81" duration="39.00" routeLength="265.73" waitingTime="0.00" waitingCount="0" stopTime="0.00" timeLoss="21.10" rerouteNo="0" devices="tripinfo_flow_route_76_duration_20250327_2120.1" vType="car" speedFactor="0.92" vaporized=""/>
    <tripinfo id="flow_route_77_duration_20250327_2120.1" depart="20.00" departLane="133342692#0_0" departPos="4.77" departSpeed="0.00" departDelay="0.00" arrival="60.00" arrivalLane="423956929_0" arrivalPos="107.62" arrivalSpeed="14.30" duration="40.00" routeLength="285.38" waitingTime="0.00" waitingCount="0" stopTime="0.00" timeLoss="20.87" rerouteNo="0" devices="tripinfo_flow_route_77_duration_20250327_2120.1" vType="car" speedFactor="0.95" vaporized=""/>
    <tripinfo id="flow_route_76_duration_20250327_2120.0" depart="0.00" departLane="133342692#0_0" departPos="1.03" departSpeed="0.00" departDelay="0.00" arrival="61.00" arrivalLane="133000063_1" arrivalPos="153.47" arrivalSpeed="16.50" duration="61.00" routeLength="359.35" waitingTime="17.00" waitingCount="1" stopTime="0.00" timeLoss="38.85" rerouteNo="0" devices="tripinfo_flow_route_76_duration_20250327_2120.0" vType="car" speedFactor="1.06" vaporized=""/>
    <tripinfo id="flow_route_89_duration_20250327_2120.4" depart="16.00" departLane="380585338#0_0" departPos="103.53" departSpeed="0.00" departDelay="0.00" arrival="61.00" arrivalLane="380593307#0_1" arrivalPos="124.23" arrivalSpeed="14.78" duration="45.00" routeLength="230.96" waitingTime="11.00" waitingCount="1" stopTime="0.00" timeLoss="28.75" rerouteNo="0" devices="tripinfo_flow_route_89_duration_20250327_2120.4" vType="car" speedFactor="0.89" vaporized=""/>
    <tripinfo id="flow_route_89_duration_20250327_2120.7" depart="28.00" departLane="380585338#0_0" departPos="117.85" departSpeed="0.00" departDelay="0.00" arrival="61.00" arrivalLane="380593307#0_0" arrivalPos="50.35" arrivalSpeed="12.81" duration="33.00" routeLength="142.77" waitingTime="3.00" waitingCount="1" stopTime="0.00" timeLoss="23.97" rerouteNo="0" devices="tripinfo_flow_route_89_duration_20250327_2120.7" vType="car" speedFactor="1.10" vaporized=""/>
    <tripinfo id="flow_route_77_duration_20250327_2120.2" depart="41.00" departLane="133342692#0_0" departPos="115.79" departSpeed="0.00" departDelay="1.00" arrival="61.00" arrivalLane="423956929_0" arrivalPos="52.17" arrivalSpeed="11.39" duration="20.00" routeLength="118.92" waitingTime="0.00" waitingCount="0" stopTime="0.00" timeLoss="11.14" rerouteNo="0" devices="tripinfo_flow_route_77_duration_20250327_2120.2" vType="car" speedFactor="1.02" vaporized=""/>
    <tripinfo id="flow_route_89_duration_20250327_2120.5" depart="20.00" departLane="380585338#0_0" departPos="11.63" departSpeed="0.00" departDelay="0.00" arrival="63.00" arrivalLane="380593307#0_2" arrivalPos="111.40" arrivalSpeed="15.08" duration="43.00" routeLength="310.04" waitingTime="0.00" waitingCount="0" stopTime="0.00" timeLoss="24.18" rerouteNo="0" devices="tripinfo_flow_route_89_duration_20250327_2120.5" vType="car" speedFactor="1.15" vaporized=""/>
    <tripinfo id="flow_route_90_duration_20250327_2120.1" depart="15.00" departLane="380585338#0_0" departPos="116.02" departSpeed="0.00" departDelay="0.00" arrival="67.00" arrivalLane="136617981_0" arrivalPos="230.05" arrivalSpeed="16.06" duration="52.00" routeLength="301.10" waitingTime="12.00" waitingCount="1" stopTime="0.00" timeLoss="32.04" rerouteNo="0" devices="tripinfo_flow_route_90_duration_20250327_2120.1" vType="car" speedFactor="0.97" vaporized=""/>
    <tripinfo id="flow_route_89_duration_20250327_2120.9" depart="36.00" departLane="380585338#0_0" departPos="51.46" departSpeed="0.00" departDelay="0.00" arrival="67.00" arrivalLane="380593307#0_1" arrivalPos="151.71" arrivalSpeed="14.61" duration="31.00" routeLength="310.52" waitingTime="0.00" waitingCount="0" stopTime="0.00" timeLoss="9.50" rerouteNo="0" devices="tripinfo_flow_route_89_duration_20250327_2120.9" vType="car" speedFactor="0.88" vaporized=""/>
    <tripinfo id="flow_route_76_duration_20250327_2120.2" depart="41.00" departLane="133342692#0_0" departPos="66.98" departSpeed="0.00" departDelay="1.00" arrival="69.00" arrivalLane="133000063_0" arrivalPos="134.52" arrivalSpeed="16.48" duration="28.00" routeLength="274.46" waitingTime="0.00" waitingCount="0" stopTime="0.00" timeLoss="11.00" rerouteNo="0" devices="tripinfo_flow_route_76_duration_20250327_2120.2" vType="car" speedFactor="1.17" vaporized=""/>
    <tripinfo id="flow_route_78_duration_20250327_2120.0" depart="0.00" departLane="133342692#0_0" departPos="79.92" departSpeed="0.00" departDelay="0.00" arrival="71.00" arrivalLane="136617981_2" arrivalPos="12.89" arrivalSpeed="7.27" duration="71.00" routeLength="138.43" waitingTime="34.00" waitingCount="2" stopTime="0.00" timeLoss="61.46" rerouteNo="0" devices="tripinfo_flow_route_78_duration_20250327_2120.0" vType="car" speedFactor="1.01" vaporized=""/>
    <tripinfo id="flow_route_90_duration_20250327_2120.3" depart="47.00" departLane="380585338#0_0" departPos="148.74" departSpeed="0.00" departDelay="2.00" arrival="74.00" arrivalLane="136617981_0" arrivalPos="192.97" arrivalSpeed="16.25" duration="27.00" routeLength="231.29" waitingTime="0.00" waitingCount="0" stopTime="0.00" timeLoss="11.56" rerouteNo="0" devices="tripinfo_flow_route_90_duration_20250327_2120.3" vType="car" speedFactor="1.12" vaporized=""/>
    <tripinfo id="flow_route_78_duration_20250327_2120.1" depart="5.00" departLane="133342692#0_0" departPos="161.00" departSpeed="0.00" departDelay="0.00" arrival="76.00" arrivalLane="136617981_2" arrivalPos="87.03" arrivalSpeed="12.40" duration="71.00" routeLength="131.49" waitingTime="39.00" waitingCount="2" stopTime="0.00" timeLoss="62.21" rerouteNo="0" devices="tripinfo_flow_route_78_duration_20250327_2120.1" vType="car" speedFactor="1.03" vaporized=""/>
    <tripinfo id="flow_route_90_duration_20250327_2120.2" depart="30.00" departLane="380585338#0_0" departPos="4.14" departSpeed="0.00" departDelay="0.00" arrival="78.00" arrivalLane="136617981_0" arrivalPos="233.97" arrivalSpeed="16.13" duration="48.00" routeLength="416.90" waitingTime="0.00" waitingCount="0" stopTime="0.00" timeLoss="21.42" rerouteNo="0" devices="tripinfo_flow_route_90_duration_20250327_2120.2" vType="car" speedFactor="1.04" vaporized=""/>
    <tripinfo id="flow_route_78_duration_20250327_2120.3" depart="15.00" departLane="133342692#0_0" departPos="15.26" departSpeed="0.00" departDelay="0.00" arrival="81.00" arrivalLane="136617981_2" arrivalPos="68.41" arrivalSpeed="13.21" duration="66.00" routeLength="258.61" waitingTime="16.00" waitingCount="2" stopTime="0.00" timeLoss="48.99" rerouteNo="0" devices="tripinfo_flow_route_78_duration_20250327_2120.3" vType="car" speedFactor="1.01" vaporized=""/>
    <tripinfo id="flow_route_78_duration_20250327_2120.4" depart="20.00" departLane="133342692#0_0" departPos="47.81" departSpeed="0.00" departDelay="0.00" arrival="83.00" arrivalLane="136617981_2" arrivalPos="47.73" arrivalSpeed="11.63" duration="63.00" routeLength="205.38" waitingTime="9.00" waitingCount="1" stopTime="0.00" timeLoss="50.00" rerouteNo="0" devices="tripinfo_flow_route_78_duration_20250327_2120.4" vType="car" speedFactor="1.13" vaporized=""/>
    <tripinfo id="flow_route_78_duration_20250327_2120.5" depart="26.00" departLane="133342692#0_0" departPos="13.72" departSpeed="0.00" departDelay="1.00" arrival="86.00" arrivalLane="136617981_2" arrivalPos="58.72" arrivalSpeed="13.43" duration="60.00" routeLength="250.46" waitingTime="8.00" waitingCount="1" stopTime="0.00" timeLoss="43.97" rerouteNo="0" devices="tripinfo_flow_route_78_duration_20250327_2120.5" vType="car" speedFactor="1.02" vaporized=""/>
    <tripinfo id="flow_route_78_duration_20250327_2120.6" depart="30.00" departLane="133342692#0_0" departPos="100.30" departSpeed="0.00" departDelay="0.00" arrival="87.00" arrivalLane="136617981_2" arrivalPos="119.95" arrivalSpeed="15.01" duration="57.00" routeLength="225.11" waitingTime="10.00" waitingCount="2" stopTime="0.00" timeLoss="40.47" rerouteNo="0" devices="tripinfo_flow_route_78_duration_20250327_2120.6" vType="car" speedFactor="0.90" vaporized=""/>
    <tripinfo id="flow_route_78_duration_20250327_2120.2" depart="13.00" departLane="133342692#0_0" departPos="38.26" departSpeed="0.00" departDelay="3.00" arrival="89.00" arrivalLane="136617981_2" arrivalPos="216.68" arrivalSpeed="14.28" duration="76.00" routeLength="383.88" waitingTime="20.00" waitingCount="2" stopTime="0.00" timeLoss="48.64" rerouteNo="0" devices="tripinfo_flow_route_78_duration_20250327_2120.2" vType="car" speedFactor="0.88" vaporized=""/>
    <tripinfo id="flow_route_78_duration_20250327_2120.7" depart="37.00" departLane="133342692#0_0" departPos="70.48" departSpeed="0.00" departDelay="2.00" arrival="97.00" arrivalLane="136617981_2" arrivalPos="139.64" arrivalSpeed="16.13" duration="60.00" routeLength="274.62" waitingTime="8.00" waitingCount="1" stopTime="0.00" timeLoss="42.02" rerouteNo="0" devices="tripinfo_flow_route_78_duration_20250327_2120.7" vType="car" speedFactor="1.00" vaporized=""/>
    <tripinfo id="flow_route_78_duration_20250327_2120.9" depart="45.00" departLane="133342692#0_0" departPos="101.62" departSpeed="0.00" departDelay="0.00" arrival="97.00" arrivalLane="136617981_2" arrivalPos="107.55" arrivalSpeed="14.83" duration="52.00" routeLength="211.39" waitingTime="7.00" waitingCount="2" stopTime="0.00" timeLoss="38.11" rerouteNo="0" devices="tripinfo_flow_route_78_duration_20250327_2120.9" vType="car" speedFactor="1.08" vaporized=""/>
    <tripinfo id="flow_route_79_duration_20250327_2120.1" depart="10.00" departLane="380344611#0_0" departPos="8.46" departSpeed="0.00" departDelay="0.00" arrival="99.00" arrivalLane="423956929_1" arrivalPos="29.52" arrivalSpeed="9.53" duration="89.00" routeLength="336.88" waitingTime="47.00" waitingCount="1" stopTime="0.00" timeLoss="67.53" rerouteNo="0" devices="tripinfo_flow_route_79_duration_20250327_2120.1" vType="car" speedFactor="0.94" vaporized=""/>
    <tripinfo id="flow_route_84_duration_20250327_2120.7" depart="39.00" departLane="1091883842_0" departPos="122.91" departSpeed="0.00" departDelay="0.82" arrival="102.00" arrivalLane="136617981_1" arrivalPos="28.77" arrivalSpeed="9.93" duration="63.00" routeLength="124.16" waitingTime="36.00" waitingCount="1" stopTime="0.00" timeLoss="54.05" rerouteNo="0" devices="tripinfo_flow_route_84_duration_20250327_2120.7" vType="car" speedFactor="0.85" vaporized=""/>
    <tripinfo id="flow_route_79_duration_20250327_2120.4" depart="40.00" departLane="380344611#0_0" departPos="105.38" departSpeed="0.00" departDelay="0.00" arrival="104.00" arrivalLane="423956929_0" arrivalPos="23.06" arrivalSpeed="10.52" duration="64.00" routeLength="233.50" waitingTime="27.00" waitingCount="1" stopTime="0.00" timeLoss="49.41" rerouteNo="0" devices="tripinfo_flow_route_79_duration_20250327_2120.4" vType="car" speedFactor="1.00" vaporized=""/>
    <tripinfo id="flow_route_78_duration_20250327_2120.8" depart="42.00" departLane="133342692#0_0" departPos="26.33" departSpeed="0.00" departDelay="2.00" arrival="105.00" arrivalLane="136617981_2" arrivalPos="201.86" arrivalSpeed="16.23" duration="63.00" routeLength="380.99" waitingTime="8.00" waitingCount="1" stopTime="0.00" timeLoss="38.67" rerouteNo="0" devices="tripinfo_flow_route_78_duration_20250327_2120.8" vType="car" speedFactor="1.10" vaporized=""/>
    <tripinfo id="flow_route_84_duration_20250327_2120.5" depart="28.00" departLane="1091883842_0" departPos="39.44" departSpeed="0.00" departDelay="0.73" arrival="106.00" arrivalLane="136617981_2" arrivalPos="99.72" arrivalSpeed="14.40" duration="78.00" routeLength="278.57" waitingTime="38.00" waitingCount="1" stopTime="0.00" timeLoss="60.83" rerouteNo="0" devices="tripinfo_flow_route_84_duration_20250327_2120.5" vType="car" speedFactor="1.18" vaporized=""/>
    <tripinfo id="flow_route_79_duration_20250327_2120.3" depart="30.00" departLane="380344611#0_0" departPos="118.30" departSpeed="0.00" departDelay="0.00" arrival="106.00" arrivalLane="423956929_1" arrivalPos="114.12" arrivalSpeed="15.15" duration="76.00" routeLength="311.64" waitingTime="34.00" waitingCount="1" stopTime="0.00" timeLoss="56.94" rerouteNo="0" devices="tripinfo_flow_route_79_duration_20250327_2120.3" vType="car" speedFactor="1.03" vaporized=""/>
    <tripinfo id="flow_route_85_duration_20250327_2120.1" depart="31.00" departLane="1091883842_0" departPos="56.22" departSpeed="0.00" departDelay="1.00" arrival="107.00" arrivalLane="133000063_0" arrivalPos="88.33" arrivalSpeed="14.18" duration="76.00" routeLength="226.86" waitingTime="36.00" waitingCount="1" stopTime="0.00" timeLoss="60.84" rerouteNo="0" devices="tripinfo_flow_route_85_duration_20250327_2120.1" vType="car" speedFactor="1.09" vaporized=""/>
    <tripinfo id="flow_route_79_duration_20250327_2120.5" depart="50.00" departLane="380344611#0_0" departPos="226.28" departSpeed="0.00" departDelay="0.00" arrival="107.00" arrivalLane="423956929_1" arrivalPos="89.55" arrivalSpeed="13.79" duration="57.00" routeLength="179.10" waitingTime="26.00" waitingCount="1" stopTime="0.00" timeLoss="44.52" rerouteNo="0" devices="tripinfo_flow_route_79_duration_20250327_2120.5" vType="car" speedFactor="0.88" vaporized=""/>
    <tripinfo id="flow_route_80_duration_20250327_2120.2" depart="41.00" departLane="380344611#0_0" departPos="239.75" departSpeed="0.00" departDelay="1.00" arrival="108.00" arrivalLane="380593307#0_0" arrivalPos="123.83" arrivalSpeed="14.23" duration="67.00" routeLength="176.70" waitingTime="36.00" waitingCount="1" stopTime="0.00" timeLoss="55.52" rerouteNo="0" devices="tripinfo_flow_route_80_duration_20250327_2120.2" vType="car" speedFactor="1.00" vaporized=""/>
    <tripinfo id="flow_route_79_duration_20250327_2120.2" depart="20.00" departLane="380344611#0_0" departPos="155.05" departSpeed="0.00" departDelay="0.00" arrival="110.00" arrivalLane="423956929_0" arrivalPos="177.16" arrivalSpeed="15.09" duration="90.00" routeLength="337.94" waitingTime="48.00" waitingCount="1" stopTime="0.00" timeLoss="68.21" rerouteNo="0" devices="tripinfo_flow_route_79_duration_20250327_2120.2" vType="car" speedFactor="0.93" vaporized=""/>
    <tripinfo id="flow_route_81_duration_20250327_2120.6" depart="26.00" departLane="380344611#0_0" departPos="204.70" departSpeed="0.00" departDelay="0.29" arrival="111.00" arrivalLane="133000063_2" arrivalPos="8.07" arrivalSpeed="6.59" duration="85.00" routeLength="119.24" waitingTime="53.00" waitingCount="2" stopTime="0.00" timeLoss="76.65" rerouteNo="0" devices="tripinfo_flow_route_81_duration_20250327_2120.6" vType="car" speedFactor="0.97" vaporized=""/>
    <tripinfo id="flow_route_84_duration_20250327_2120.6" depart="33.00" departLane="1091883842_0" departPos="171.76" departSpeed="0.00" departDelay="0.28" arrival="111.00" arrivalLane="136617981_1" arrivalPos="177.20" arrivalSpeed="16.35" duration="78.00" routeLength="223.73" waitingTime="47.00" waitingCount="1" stopTime="0.00" timeLoss="64.02" rerouteNo="0" devices="tripinfo_flow_route_84_duration_20250327_2120.6" vType="car" speedFactor="1.09" vaporized=""/>
    <tripinfo id="flow_route_84_duration_20250327_2120.2" depart="11.00" departLane="1091883842_0" departPos="24.03" departSpeed="0.00" departDelay="0.09" arrival="112.00" arrivalLane="136617981_0" arrivalPos="194.16" arrivalSpeed="15.29" duration="101.00" routeLength="388.43" waitingTime="54.00" waitingCount="1" stopTime="0.00" timeLoss="75.70" rerouteNo="0" devices="tripinfo_flow_route_84_duration_20250327_2120.2" vType="car" speedFactor="0.94" vaporized=""/>
    <tripinfo id="flow_route_84_duration_20250327_2120.8" depart="44.00" departLane="1091883842_0" departPos="109.40" departSpeed="0.00" departDelay="0.37" arrival="113.00" arrivalLane="136617981_2" arrivalPos="187.99" arrivalSpeed="16.32" duration="69.00" routeLength="296.88" waitingTime="30.00" waitingCount="1" stopTime="0.00" timeLoss="51.05" rerouteNo="0" devices="tripinfo_flow_route_84_duration_20250327_2120.8" vType="car" speedFactor="1.02" vaporized=""/>
    <tripinfo id="flow_route_81_duration_20250327_2120.5" depart="22.00" departLane="380344611#0_0" departPos="89.00" departSpeed="0.00" departDelay="0.58" arrival="118.00" arrivalLane="133000063_2" arrivalPos="30.83" arrivalSpeed="9.33" duration="96.00" routeLength="257.70" waitingTime="50.00" waitingCount="2" stopTime="0.00" timeLoss="79.74" rerouteNo="0" devices="tripinfo_flow_route_81_duration_20250327_2120.5" vType="car" speedFactor="1.01" vaporized=""/>
    <tripinfo id="flow_route_84_duration_20250327_2120.4" depart="22.00" departLane="1091883842_0" departPos="62.96" departSpeed="0.00" departDelay="0.18" arrival="119.00" arrivalLane="136617981_0" arrivalPos="281.23" arrivalSpeed="16.55" duration="97.00" routeLength="436.56" waitingTime="48.00" waitingCount="1" stopTime="0.00" timeLoss="70.15" rerouteNo="0" devices="tripinfo_flow_route_84_duration_20250327_2120.4" vType="car" speedFactor="1.17" vaporized=""/>
    <tripinfo id="flow_route_84_duration_20250327_2120.9" depart="50.00" departLane="1091883842_0" departPos="87.34" departSpeed="0.00" departDelay="0.91" arrival="120.00" arrivalLane="136617981_1" arrivalPos="256.03" arrivalSpeed="15.07" duration="70.00" routeLength="386.98" waitingTime="22.00" waitingCount="1" stopTime="0.00" timeLoss="43.80" rerouteNo="0" devices="tripinfo_flow_route_84_duration_20250327_2120.9" vType="car" speedFactor="0.91" vaporized=""/>
    <tripinfo id="flow_route_84_duration_20250327_2120.10" depart="55.00" departLane="1091883842_0" departPos="21.23" departSpeed="0.00" departDelay="0.46" arrival="121.00" arrivalLane="136617981_0" arrivalPos="257.67" arrivalSpeed="16.37" duration="66.00" routeLength="454.73" waitingTime="15.00" waitingCount="1" stopTime="0.00" timeLoss="38.02" rerouteNo="0" devices="tripinfo_flow_route_84_duration_20250327_2120.10" vType="car" speedFactor="1.02" vaporized=""/>
    <tripinfo id="flow_route_81_duration_20250327_2120.7" depart="30.00" departLane="380344611#0_0" departPos="103.55" departSpeed="0.00" departDelay="0.01" arrival="124.00" arrivalLane="133000063_2" arrivalPos="67.13" arrivalSpeed="12.94" duration="94.00" routeLength="279.45" waitingTime="45.00" waitingCount="2" stopTime="0.00" timeLoss="75.07" rerouteNo="0" devices="tripinfo_flow_route_81_duration_20250327_2120.7" vType="car" speedFactor="0.96" vaporized=""/>
    <tripinfo id="flow_route_81_duration_20250327_2120.4" depart="18.00" departLane="380344611#0_0" departPos="87.28" departSpeed="0.00" departDelay="0.86" arrival="126.00" arrivalLane="133000063_2" arrivalPos="165.34" arrivalSpeed="14.21" duration="108.00" routeLength="393.93" waitingTime="51.00" waitingCount="2" stopTime="0.00" timeLoss="79.74" rerouteNo="0" devices="tripinfo_flow_route_81_duration_20250327_2120.4" vType="car" speedFactor="0.87" vaporized=""/>
    <tripinfo id="flow_route_81_duration_20250327_2120.8" depart="37.00" departLane="380344611#0_0" departPos="97.23" departSpeed="0.00" departDelay="2.72" arrival="128.00" arrivalLane="133000063_2" arrivalPos="73.22" arrivalSpeed="12.61" duration="91.00" routeLength="291.86" waitingTime="36.00" waitingCount="2" stopTime="0.00" timeLoss="70.66" rerouteNo="0" devices="tripinfo_flow_route_81_duration_20250327_2120.8" vType="car" speedFactor="0.90" vaporized=""/>
    <tripinfo id="flow_route_81_duration_20250327_2120.9" depart="39.00" departLane="380344611#0_0" departPos="132.24" departSpeed="0.00" departDelay="0.44" arrival="130.00" arrivalLane="133000063_2" arrivalPos="120.48" arrivalSpeed="13.70" duration="91.00" routeLength="304.11" waitingTime="37.00" waitingCount="2" stopTime="0.00" timeLoss="68.14" rerouteNo="0" devices="tripinfo_flow_route_81_duration_20250327_2120.9" vType="car" speedFactor="0.85" vaporized=""/>