<?xml version="1.0" encoding="UTF-8"?>

<!-- generated on 2025-05-06 21:09:14 by Eclipse SUMO sumo Version 1.20.0
<configuration xmlns:xsi="http://www.w3.org/2001/XMLSchema-instance" xsi:noNamespaceSchemaLocation="http://sumo.dlr.de/xsd/sumoConfiguration.xsd">

    <input>
        <net-file value="osm.net.xml"/>
        <route-files value="xml/route_rl_cluster_11648561419_11648561420_2271142975_4854142869_9.rou.xml"/>
    </input>

    <output>
        <tripinfo-output value="xml/tripinfo_rl_cluster_11648561419_11648561420_2271142975_4854142869_9.xml"/>
    </output>

    <traci_server>
        <remote-port value="59415"/>
    </traci_server>

</configuration>
-->

<tripinfos xmlns:xsi="http://www.w3.org/2001/XMLSchema-instance" xsi:noNamespaceSchemaLocation="http://sumo.dlr.de/xsd/tripinfo_file.xsd">
    <tripinfo id="flow_route_118_duration_20250327_1940.4" depart="6.00" departLane="134194079#0_0" departPos="284.56" departSpeed="0.00" departDelay="0.15" arrival="19.00" arrivalLane="1328664744#0_0" arrivalPos="28.70" arrivalSpeed="9.38" duration="13.00" routeLength="65.29" waitingTime="0.00" waitingCount="0" stopTime="0.00" timeLoss="8.90" rerouteNo="0" devices="tripinfo_flow_route_118_duration_20250327_1940.4" vType="car" speedFactor="1.16" vaporized=""/>
    <tripinfo id="flow_route_119_duration_20250327_1940.0" depart="0.00" departLane="134194079#0_0" departPos="151.34" departSpeed="0.00" departDelay="0.00" arrival="25.00" arrivalLane="1253188486#8_0" arrivalPos="1.48" arrivalSpeed="8.74" duration="25.00" routeLength="161.10" waitingTime="0.00" waitingCount="0" stopTime="0.00" timeLoss="14.07" rerouteNo="0" devices="tripinfo_flow_route_119_duration_20250327_1940.0" vType="car" speedFactor="1.09" vaporized=""/>
    <tripinfo id="flow_route_97_duration_20250327_1940.0" depart="0.00" departLane="1328664748#0_0" departPos="149.74" departSpeed="0.00" departDelay="0.00" arrival="27.00" arrivalLane="135474719#0_0" arrivalPos="137.46" arrivalSpeed="15.89" duration="27.00" routeLength="222.45" waitingTime="0.00" waitingCount="0" stopTime="0.00" timeLoss="12.49" rerouteNo="0" devices="tripinfo_flow_route_97_duration_20250327_1940.0" vType="car" speedFactor="1.06" vaporized=""/>
    <tripinfo id="flow_route_98_duration_20250327_1940.0" depart="0.00" departLane="1328664748#0_0" departPos="103.72" departSpeed="0.00" departDelay="0.00" arrival="27.00" arrivalLane="177211987#1_0" arrivalPos="104.29" arrivalSpeed="15.41" duration="27.00" routeLength="249.04" waitingTime="0.00" waitingCount="0" stopTime="0.00" timeLoss="10.64" rerouteNo="0" devices="tripinfo_flow_route_98_duration_20250327_1940.0" vType="car" speedFactor="0.94" vaporized=""/>
    <tripinfo id="flow_route_118_duration_20250327_1940.1" depart="2.00" departLane="134194079#0_0" departPos="261.87" departSpeed="0.00" departDelay="0.54" arrival="31.00" arrivalLane="1328664744#0_1" arrivalPos="208.33" arrivalSpeed="16.19" duration="29.00" routeLength="267.61" waitingTime="0.00" waitingCount="0" stopTime="0.00" timeLoss="12.43" rerouteNo="0" devices="tripinfo_flow_route_118_duration_20250327_1940.1" vType="car" speedFactor="1.05" vaporized=""/>
    <tripinfo id="flow_route_118_duration_20250327_1940.2" depart="3.00" departLane="134194079#0_0" departPos="69.84" departSpeed="0.00" departDelay="0.07" arrival="34.00" arrivalLane="1328664744#0_1" arrivalPos="87.98" arrivalSpeed="16.43" duration="31.00" routeLength="339.29" waitingTime="0.00" waitingCount="0" stopTime="0.00" timeLoss="10.07" rerouteNo="0" devices="tripinfo_flow_route_118_duration_20250327_1940.2" vType="car" speedFactor="1.12" vaporized=""/>
    <tripinfo id="flow_route_118_duration_20250327_1940.3" depart="5.00" departLane="134194079#0_0" departPos="202.11" departSpeed="0.00" departDelay="0.61" arrival="37.00" arrivalLane="1328664744#0_0" arrivalPos="212.22" arrivalSpeed="15.58" duration="32.00" routeLength="331.26" waitingTime="0.00" waitingCount="0" stopTime="0.00" timeLoss="10.53" rerouteNo="0" devices="tripinfo_flow_route_118_duration_20250327_1940.3" vType="car" speedFactor="0.94" vaporized=""/>
    <tripinfo id="flow_route_119_duration_20250327_1940.4" depart="14.00" departLane="134194079#0_0" departPos="181.47" departSpeed="0.00" departDelay="3.09" arrival="38.00" arrivalLane="1253188486#8_0" arrivalPos="16.43" arrivalSpeed="9.76" duration="24.00" routeLength="145.91" waitingTime="0.00" waitingCount="0" stopTime="0.00" timeLoss="13.79" rerouteNo="0" devices="tripinfo_flow_route_119_duration_20250327_1940.4" vType="car" speedFactor="1.01" vaporized=""/>
    <tripinfo id="flow_route_118_duration_20250327_1940.0" depart="0.00" departLane="134194079#0_0" departPos="13.63" departSpeed="0.00" departDelay="0.00" arrival="43.00" arrivalLane="1328664744#0_1" arrivalPos="165.30" arrivalSpeed="14.01" duration="43.00" routeLength="472.83" waitingTime="0.00" waitingCount="0" stopTime="0.00" timeLoss="9.78" rerouteNo="0" devices="tripinfo_flow_route_118_duration_20250327_1940.0" vType="car" speedFactor="0.86" vaporized=""/>
    <tripinfo id="flow_route_118_duration_20250327_1940.10" depart="20.00" departLane="134194079#0_0" departPos="260.21" departSpeed="0.00" departDelay="5.37" arrival="43.00" arrivalLane="1328664744#0_0" arrivalPos="129.79" arrivalSpeed="14.53" duration="23.00" routeLength="190.73" waitingTime="0.00" waitingCount="0" stopTime="0.00" timeLoss="9.45" rerouteNo="0" devices="tripinfo_flow_route_118_duration_20250327_1940.10" vType="car" speedFactor="0.90" vaporized=""/>
    <tripinfo id="flow_route_99_duration_20250327_1940.0" depart="1.00" departLane="1328664748#0_0" departPos="68.32" departSpeed="0.00" departDelay="1.00" arrival="45.00" arrivalLane="1253188486#8_2" arrivalPos="11.16" arrivalSpeed="7.19" duration="44.00" routeLength="200.71" waitingTime="11.00" waitingCount="1" stopTime="0.00" timeLoss="31.29" rerouteNo="0" devices="tripinfo_flow_route_99_duration_20250327_1940.0" vType="car" speedFactor="1.01" vaporized=""/>
    <tripinfo id="flow_route_118_duration_20250327_1940.7" depart="11.00" departLane="134194079#0_0" departPos="92.60" departSpeed="0.00" departDelay="0.76" arrival="48.00" arrivalLane="1328664744#0_1" arrivalPos="205.90" arrivalSpeed="16.46" duration="37.00" routeLength="434.46" waitingTime="0.00" waitingCount="0" stopTime="0.00" timeLoss="10.53" rerouteNo="0" devices="tripinfo_flow_route_118_duration_20250327_1940.7" vType="car" speedFactor="1.15" vaporized=""/>
    <tripinfo id="flow_route_118_duration_20250327_1940.11" depart="21.00" departLane="134194079#0_0" departPos="249.44" departSpeed="0.00" departDelay="4.91" arrival="49.00" arrivalLane="1328664744#0_0" arrivalPos="194.24" arrivalSpeed="15.78" duration="28.00" routeLength="265.95" waitingTime="0.00" waitingCount="0" stopTime="0.00" timeLoss="10.50" rerouteNo="0" devices="tripinfo_flow_route_118_duration_20250327_1940.11" vType="car" speedFactor="0.96" vaporized=""/>
    <tripinfo id="flow_route_97_duration_20250327_1940.1" depart="30.00" departLane="1328664748#0_0" departPos="128.95" departSpeed="0.00" departDelay="0.00" arrival="59.00" arrivalLane="135474719#0_0" arrivalPos="130.16" arrivalSpeed="15.67" duration="29.00" routeLength="235.93" waitingTime="0.00" waitingCount="0" stopTime="0.00" timeLoss="13.39" rerouteNo="0" devices="tripinfo_flow_route_97_duration_20250327_1940.1" vType="car" speedFactor="0.97" vaporized=""/>
    <tripinfo id="flow_route_99_duration_20250327_1940.4" depart="36.00" departLane="1328664748#0_0" departPos="176.40" departSpeed="0.00" departDelay="1.72" arrival="59.00" arrivalLane="1253188486#8_2" arrivalPos="98.95" arrivalSpeed="14.86" duration="23.00" routeLength="180.42" waitingTime="0.00" waitingCount="0" stopTime="0.00" timeLoss="11.80" rerouteNo="0" devices="tripinfo_flow_route_99_duration_20250327_1940.4" vType="car" speedFactor="1.15" vaporized=""/>
    <tripinfo id="flow_route_99_duration_20250327_1940.1" depart="9.00" departLane="1328664748#0_0" departPos="109.59" departSpeed="0.00" departDelay="0.43" arrival="60.00" arrivalLane="1253188486#8_2" arrivalPos="163.92" arrivalSpeed="16.54" duration="51.00" routeLength="312.20" waitingTime="7.00" waitingCount="1" stopTime="0.00" timeLoss="29.92" rerouteNo="0" devices="tripinfo_flow_route_99_duration_20250327_1940.1" vType="car" speedFactor="0.89" vaporized=""/>
    <tripinfo id="flow_route_99_duration_20250327_1940.2" depart="18.00" departLane="1328664748#0_0" departPos="76.29" departSpeed="0.00" departDelay="0.86" arrival="62.00" arrivalLane="1253188486#8_2" arrivalPos="174.37" arrivalSpeed="16.46" duration="44.00" routeLength="355.96" waitingTime="0.00" waitingCount="0" stopTime="0.00" timeLoss="21.88" rerouteNo="0" devices="tripinfo_flow_route_99_duration_20250327_1940.2" vType="car" speedFactor="1.04" vaporized=""/>
    <tripinfo id="flow_route_99_duration_20250327_1940.5" depart="43.00" departLane="1328664748#0_0" departPos="156.68" departSpeed="0.00" departDelay="0.15" arrival="69.00" arrivalLane="1253188486#8_2" arrivalPos="49.55" arrivalSpeed="11.93" duration="26.00" routeLength="150.74" waitingTime="0.00" waitingCount="0" stopTime="0.00" timeLoss="15.63" rerouteNo="0" devices="tripinfo_flow_route_99_duration_20250327_1940.5" vType="car" speedFactor="0.95" vaporized=""/>
    <tripinfo id="flow_route_99_duration_20250327_1940.3" depart="26.00" departLane="1328664748#0_0" departPos="2.60" departSpeed="0.00" departDelay="0.29" arrival="73.00" arrivalLane="1253188486#8_2" arrivalPos="221.63" arrivalSpeed="16.49" duration="47.00" routeLength="476.91" waitingTime="0.00" waitingCount="0" stopTime="0.00" timeLoss="17.18" rerouteNo="0" devices="tripinfo_flow_route_99_duration_20250327_1940.3" vType="car" speedFactor="0.99" vaporized=""/>
    <tripinfo id="flow_route_110_duration_20250327_1940.0" depart="0.00" departLane="1254519225#0.109_0" departPos="3.76" departSpeed="0.00" departDelay="0.00" arrival="81.00" arrivalLane="177211987#1_2" arrivalPos="6.38" arrivalSpeed="7.46" duration="81.00" routeLength="190.24" waitingTime="50.00" waitingCount="1" stopTime="0.00" timeLoss="66.41" rerouteNo="0" devices="tripinfo_flow_route_110_duration_20250327_1940.0" vType="car" speedFactor="0.83" vaporized=""/>
    <tripinfo id="flow_route_109_duration_20250327_1940.1" depart="10.00" departLane="1254519225#0.109_0" departPos="34.11" departSpeed="0.00" departDelay="0.00" arrival="87.00" arrivalLane="1328664744#0_0" arrivalPos="37.36" arrivalSpeed="9.96" duration="77.00" routeLength="177.48" waitingTime="43.00" waitingCount="2" stopTime="0.00" timeLoss="65.74" rerouteNo="0" devices="tripinfo_flow_route_109_duration_20250327_1940.1" vType="car" speedFactor="1.13" vaporized=""/>
    <tripinfo id="flow_route_108_duration_20250327_1940.0" depart="0.00" departLane="1254519225#0.109_0" departPos="35.33" departSpeed="0.00" departDelay="0.00" arrival="88.00" arrivalLane="135474719#0_0" arrivalPos="75.82" arrivalSpeed="13.95" duration="88.00" routeLength="240.24" waitingTime="51.00" waitingCount="1" stopTime="0.00" timeLoss="73.45" rerouteNo="0" devices="tripinfo_flow_route_108_duration_20250327_1940.0" vType="car" speedFactor="1.08" vaporized=""/>
    <tripinfo id="flow_route_109_duration_20250327_1940.0" depart="0.00" departLane="1254519225#0.109_0" departPos="16.50" departSpeed="0.00" departDelay="0.00" arrival="92.00" arrivalLane="1328664744#0_0" arrivalPos="130.88" arrivalSpeed="15.16" duration="92.00" routeLength="288.61" waitingTime="49.00" waitingCount="1" stopTime="0.00" timeLoss="73.53" rerouteNo="0" devices="tripinfo_flow_route_109_duration_20250327_1940.0" vType="car" speedFactor="1.03" vaporized=""/>
    <tripinfo id="flow_route_108_duration_20250327_1940.2" depart="18.00" departLane="1254519225#0.109_0" departPos="43.64" departSpeed="0.00" departDelay="0.86" arrival="92.00" arrivalLane="135474719#0_2" arrivalPos="70.32" arrivalSpeed="13.64" duration="74.00" routeLength="226.43" waitingTime="37.00" waitingCount="2" stopTime="0.00" timeLoss="60.16" rerouteNo="0" devices="tripinfo_flow_route_108_duration_20250327_1940.2" vType="car" speedFactor="1.04" vaporized=""/>
    <tripinfo id="flow_route_108_duration_20250327_1940.3" depart="26.00" departLane="1254519225#0.109_0" departPos="30.35" departSpeed="0.00" departDelay="0.29" arrival="92.00" arrivalLane="135474719#0_0" arrivalPos="25.84" arrivalSpeed="12.55" duration="66.00" routeLength="195.25" waitingTime="33.00" waitingCount="1" stopTime="0.00" timeLoss="53.36" rerouteNo="0" devices="tripinfo_flow_route_108_duration_20250327_1940.3" vType="car" speedFactor="0.94" vaporized=""/>
    <tripinfo id="flow_route_108_duration_20250327_1940.4" depart="35.00" departLane="1254519225#0.109_0" departPos="7.45" departSpeed="0.00" departDelay="0.72" arrival="92.00" arrivalLane="135474719#0_2" arrivalPos="13.05" arrivalSpeed="11.63" duration="57.00" routeLength="205.35" waitingTime="21.00" waitingCount="1" stopTime="0.00" timeLoss="43.69" rerouteNo="0" devices="tripinfo_flow_route_108_duration_20250327_1940.4" vType="car" speedFactor="0.98" vaporized=""/>
    <tripinfo id="flow_route_108_duration_20250327_1940.1" depart="9.00" departLane="1254519225#0.109_0" departPos="36.19" departSpeed="0.00" departDelay="0.43" arrival="93.00" arrivalLane="135474719#0_2" arrivalPos="110.40" arrivalSpeed="13.57" duration="84.00" routeLength="273.96" waitingTime="44.00" waitingCount="1" stopTime="0.00" timeLoss="63.96" rerouteNo="0" devices="tripinfo_flow_route_108_duration_20250327_1940.1" vType="car" speedFactor="0.83" vaporized=""/>
    <tripinfo id="flow_route_110_duration_20250327_1940.2" depart="41.00" departLane="1254519225#0.109_0" departPos="3.06" departSpeed="0.00" departDelay="1.00" arrival="94.00" arrivalLane="177211987#1_2" arrivalPos="32.48" arrivalSpeed="12.61" duration="53.00" routeLength="217.05" waitingTime="14.00" waitingCount="1" stopTime="0.00" timeLoss="37.26" rerouteNo="0" devices="tripinfo_flow_route_110_duration_20250327_1940.2" vType="car" speedFactor="0.91" vaporized=""/>
    <tripinfo id="flow_route_110_duration_20250327_1940.1" depart="20.00" departLane="1254519225#0.109_0" departPos="2.66" departSpeed="0.00" departDelay="0.00" arrival="97.00" arrivalLane="177211987#1_2" arrivalPos="114.32" arrivalSpeed="14.04" duration="77.00" routeLength="299.28" waitingTime="34.00" waitingCount="1" stopTime="0.00" timeLoss="54.09" rerouteNo="0" devices="tripinfo_flow_route_110_duration_20250327_1940.1" vType="car" speedFactor="0.85" vaporized=""/>
    <tripinfo id="flow_route_109_duration_20250327_1940.3" depart="30.00" departLane="1254519225#0.109_0" departPos="8.08" departSpeed="0.00" departDelay="0.00" arrival="97.00" arrivalLane="1328664744#0_0" arrivalPos="73.84" arrivalSpeed="13.62" duration="67.00" routeLength="239.99" waitingTime="28.00" waitingCount="1" stopTime="0.00" timeLoss="50.31" rerouteNo="0" devices="tripinfo_flow_route_109_duration_20250327_1940.3" vType="car" speedFactor="0.94" vaporized=""/>
    <tripinfo id="flow_route_109_duration_20250327_1940.2" depart="20.00" departLane="1254519225#0.109_0" departPos="29.95" departSpeed="0.00" departDelay="0.00" arrival="98.00" arrivalLane="1328664744#0_0" arrivalPos="146.82" arrivalSpeed="14.22" duration="78.00" routeLength="291.11" waitingTime="34.00" waitingCount="1" stopTime="0.00" timeLoss="56.06" rerouteNo="0" devices="tripinfo_flow_route_109_duration_20250327_1940.2" vType="car" speedFactor="0.88" vaporized=""/>
    <tripinfo id="flow_route_108_duration_20250327_1940.5" depart="43.00" departLane="1254519225#0.109_0" departPos="49.69" departSpeed="0.00" departDelay="0.15" arrival="98.00" arrivalLane="135474719#0_2" arrivalPos="52.91" arrivalSpeed="14.30" duration="55.00" routeLength="202.96" waitingTime="15.00" waitingCount="2" stopTime="0.00" timeLoss="40.81" rerouteNo="0" devices="tripinfo_flow_route_108_duration_20250327_1940.5" vType="car" speedFactor="0.89" vaporized=""/>
    <tripinfo id="flow_route_109_duration_20250327_1940.5" depart="50.00" departLane="1254519225#0.109_0" departPos="31.59" departSpeed="0.00" departDelay="0.00" arrival="98.00" arrivalLane="1328664744#0_0" arrivalPos="40.76" arrivalSpeed="12.57" duration="48.00" routeLength="183.40" waitingTime="13.00" waitingCount="1" stopTime="0.00" timeLoss="35.66" rerouteNo="0" devices="tripinfo_flow_route_109_duration_20250327_1940.5" vType="car" speedFactor="0.99" vaporized=""/>
    <tripinfo id="flow_route_108_duration_20250327_1940.6" depart="52.00" departLane="1254519225#0.109_0" departPos="26.69" departSpeed="0.00" departDelay="0.57" arrival="103.00" arrivalLane="135474719#0_2" arrivalPos="106.96" arrivalSpeed="16.54" duration="51.00" routeLength="280.02" waitingTime="11.00" waitingCount="1" stopTime="0.00" timeLoss="33.61" rerouteNo="0" devices="tripinfo_flow_route_108_duration_20250327_1940.6" vType="car" speedFactor="1.06" vaporized=""/>
    <tripinfo id="flow_route_109_duration_20250327_1940.4" depart="40.00" departLane="1254519225#0.109_0" departPos="47.48" departSpeed="0.00" departDelay="0.00" arrival="107.00" arrivalLane="1328664744#0_0" arrivalPos="200.74" arrivalSpeed="16.22" duration="67.00" routeLength="327.49" waitingTime="23.00" waitingCount="1" stopTime="0.00" timeLoss="45.60" rerouteNo="0" devices="tripinfo_flow_route_109_duration_20250327_1940.4" vType="car" speedFactor="1.01" vaporized=""/>
    <tripinfo id="flow_route_115_duration_20250327_1940.1" depart="5.00" departLane="1253188486#4_0" departPos="4.57" departSpeed="0.00" departDelay="0.72" arrival="122.00" arrivalLane="1328664744#0_2" arrivalPos="35.30" arrivalSpeed="10.45" duration="117.00" routeLength="216.13" waitingTime="81.00" waitingCount="1" stopTime="0.00" timeLoss="102.37" rerouteNo="0" devices="tripinfo_flow_route_115_duration_20250327_1940.1" vType="car" speedFactor="0.88" vaporized=""/>
    <tripinfo id="flow_route_114_duration_20250327_1940.0" depart="0.00" departLane="1253188486#4_0" departPos="49.31" departSpeed="0.00" departDelay="0.00" arrival="124.00" arrivalLane="177211987#1_0" arrivalPos="36.23" arrivalSpeed="10.44" duration="124.00" routeLength="153.37" waitingTime="92.00" waitingCount="1" stopTime="0.00" timeLoss="112.98" rerouteNo="0" devices="tripinfo_flow_route_114_duration_20250327_1940.0" vType="car" speedFactor="0.89" vaporized=""/>
    <tripinfo id="flow_route_115_duration_20250327_1940.3" depart="22.00" departLane="1253188486#4_0" departPos="58.12" departSpeed="0.00" departDelay="9.15" arrival="124.00" arrivalLane="1328664744#0_2" arrivalPos="10.39" arrivalSpeed="9.67" duration="102.00" routeLength="137.67" waitingTime="73.00" waitingCount="1" stopTime="0.00" timeLoss="92.98" rerouteNo="0" devices="tripinfo_flow_route_115_duration_20250327_1940.3" vType="car" speedFactor="1.02" vaporized=""/>
    <tripinfo id="flow_route_114_duration_20250327_1940.1" depart="21.00" departLane="1253188486#4_0" departPos="103.43" departSpeed="0.00" departDelay="11.00" arrival="125.00" arrivalLane="177211987#1_0" arrivalPos="26.84" arrivalSpeed="9.95" duration="104.00" routeLength="89.86" waitingTime="80.00" waitingCount="1" stopTime="0.00" timeLoss="97.68" rerouteNo="0" devices="tripinfo_flow_route_114_duration_20250327_1940.1" vType="car" speedFactor="1.18" vaporized=""/>
    <tripinfo id="flow_route_115_duration_20250327_1940.0" depart="0.00" departLane="1253188486#4_0" departPos="104.70" departSpeed="0.00" departDelay="0.00" arrival="127.00" arrivalLane="1328664744#0_2" arrivalPos="120.97" arrivalSpeed="15.49" duration="127.00" routeLength="201.67" waitingTime="95.00" waitingCount="1" stopTime="0.00" timeLoss="112.54" rerouteNo="0" devices="tripinfo_flow_route_115_duration_20250327_1940.0" vType="car" speedFactor="0.94" vaporized=""/>
    <tripinfo id="flow_route_113_duration_20250327_1940.3" depart="7.00" departLane="1253188486#4_0" departPos="34.17" departSpeed="0.00" departDelay="1.20" arrival="127.00" arrivalLane="1253188486#8_1" arrivalPos="81.28" arrivalSpeed="14.35" duration="120.00" routeLength="245.74" waitingTime="83.00" waitingCount="1" stopTime="0.00" timeLoss="104.73" rerouteNo="0" devices="tripinfo_flow_route_113_duration_20250327_1940.3" vType="car" speedFactor="0.94" vaporized=""/>
    <tripinfo id="flow_route_113_duration_20250327_1940.2" depart="4.00" departLane="1253188486#4_0" departPos="117.09" departSpeed="0.00" departDelay="0.13" arrival="128.00" arrivalLane="1253188486#8_0" arrivalPos="74.03" arrivalSpeed="14.08" duration="124.00" routeLength="155.57" waitingTime="95.00" waitingCount="1" stopTime="0.00" timeLoss="113.96" rerouteNo="0" devices="tripinfo_flow_route_113_duration_20250327_1940.2" vType="car" speedFactor="0.93" vaporized=""/>
    <tripinfo id="flow_route_113_duration_20250327_1940.6" depart="22.00" departLane="1253188486#4_0" departPos="42.47" departSpeed="0.00" departDelay="10.39" arrival="129.00" arrivalLane="1253188486#8_1" arrivalPos="21.10" arrivalSpeed="11.42" duration="107.00" routeLength="177.26" waitingTime="74.00" waitingCount="1" stopTime="0.00" timeLoss="96.06" rerouteNo="0" devices="tripinfo_flow_route_113_duration_20250327_1940.6" vType="car" speedFactor="1.17" vaporized=""/>
    <tripinfo id="flow_route_113_duration_20250327_1940.1" depart="2.00" departLane="1253188486#4_0" departPos="126.25" departSpeed="0.00" departDelay="0.07" arrival="130.00" arrivalLane="1253188486#8_1" arrivalPos="155.42" arrivalSpeed="16.57" duration="128.00" routeLength="227.80" waitingTime="97.00" waitingCount="1" stopTime="0.00" timeLoss="113.45" rerouteNo="0" devices="tripinfo_flow_route_113_duration_20250327_1940.1" vType="car" speedFactor="1.03" vaporized=""/>
    <tripinfo id="flow_route_113_duration_20250327_1940.0" depart="0.00" departLane="1253188486#4_0" departPos="134.10" departSpeed="0.00" departDelay="0.00" arrival="132.00" arrivalLane="1253188486#8_0" arrivalPos="182.35" arrivalSpeed="16.48" duration="132.00" routeLength="246.88" waitingTime="99.00" waitingCount="1" stopTime="0.00" timeLoss="116.97" rerouteNo="0" devices="tripinfo_flow_route_113_duration_20250327_1940.0" vType="car" speedFactor="1.05" vaporized=""/>
    <tripinfo id="flow_route_115_duration_20250327_1940.2" depart="13.00" departLane="1253188486#4_0" departPos="12.25" departSpeed="0.00" departDelay="4.43" arrival="132.00" arrivalLane="1328664744#0_2" arrivalPos="132.27" arrivalSpeed="14.19" duration="119.00" routeLength="305.42" waitingTime="75.00" waitingCount="1" stopTime="0.00" timeLoss="97.42" rerouteNo="0" devices="tripinfo_flow_route_115_duration_20250327_1940.2" vType="car" speedFactor="0.87" vaporized=""/>
    <tripinfo id="flow_route_113_duration_20250327_1940.4" depart="11.00" departLane="1253188486#4_0" departPos="27.41" departSpeed="0.00" departDelay="3.26" arrival="133.00" arrivalLane="1253188486#8_1" arrivalPos="140.24" arrivalSpeed="16.59" duration="122.00" routeLength="311.46" waitingTime="78.00" waitingCount="1" stopTime="0.00" timeLoss="103.05" rerouteNo="0" devices="tripinfo_flow_route_113_duration_20250327_1940.4" vType="car" speedFactor="1.01" vaporized=""/>
    <tripinfo id="flow_route_113_duration_20250327_1940.7" depart="26.00" departLane="1253188486#4_0" departPos="72.03" departSpeed="0.00" departDelay="12.46" arrival="134.00" arrivalLane="1253188486#8_0" arrivalPos="71.16" arrivalSpeed="14.84" duration="108.00" routeLength="197.76" waitingTime="72.00" waitingCount="1" stopTime="0.00" timeLoss="95.46" rerouteNo="0" devices="tripinfo_flow_route_113_duration_20250327_1940.7" vType="car" speedFactor="0.97" vaporized=""/>
    <tripinfo id="flow_route_113_duration_20250327_1940.10" depart="31.00" departLane="1253188486#4_0" departPos="34.61" departSpeed="0.00" departDelay="11.65" arrival="135.00" arrivalLane="1253188486#8_1" arrivalPos="68.99" arrivalSpeed="14.75" duration="104.00" routeLength="233.01" waitingTime="65.00" waitingCount="1" stopTime="0.00" timeLoss="89.32" rerouteNo="0" devices="tripinfo_flow_route_113_duration_20250327_1940.10" vType="car" speedFactor="0.85" vaporized=""/>
    <tripinfo id="flow_route_114_duration_20250327_1940.3" depart="60.00" departLane="1253188486#4_0" departPos="64.76" departSpeed="0.00" departDelay="30.00" arrival="136.00" arrivalLane="177211987#1_0" arrivalPos="22.45" arrivalSpeed="8.93" duration="76.00" routeLength="124.14" waitingTime="47.00" waitingCount="1" stopTime="0.00" timeLoss="66.95" rerouteNo="0" devices="tripinfo_flow_route_114_duration_20250327_1940.3" vType="car" speedFactor="0.96" vaporized=""/>
    <tripinfo id="flow_route_115_duration_20250327_1940.4" depart="31.00" departLane="1253188486#4_0" departPos="14.96" departSpeed="0.00" departDelay="13.86" arrival="137.00" arrivalLane="1328664744#0_2" arrivalPos="127.26" arrivalSpeed="16.37" duration="106.00" routeLength="297.70" waitingTime="64.00" waitingCount="1" stopTime="0.00" timeLoss="86.84" rerouteNo="0" devices="tripinfo_flow_route_115_duration_20250327_1940.4" vType="car" speedFactor="1.00" vaporized=""/>
    <tripinfo id="flow_route_114_duration_20250327_1940.2" depart="33.00" departLane="1253188486#4_0" departPos="29.18" departSpeed="0.00" departDelay="13.00" arrival="137.00" arrivalLane="177211987#1_0" arrivalPos="104.25" arrivalSpeed="15.38" duration="104.00" routeLength="241.53" waitingTime="65.00" waitingCount="1" stopTime="0.00" timeLoss="88.70" rerouteNo="0" devices="tripinfo_flow_route_114_duration_20250327_1940.2" vType="car" speedFactor="1.17" vaporized=""/>
    <tripinfo id="flow_route_113_duration_20250327_1940.11" depart="40.00" departLane="1253188486#4_0" departPos="28.79" departSpeed="0.00" departDelay="18.72" arrival="138.00" arrivalLane="1253188486#8_1" arrivalPos="84.53" arrivalSpeed="15.31" duration="98.00" routeLength="254.37" waitingTime="57.00" waitingCount="1" stopTime="0.00" timeLoss="81.92" rerouteNo="0" devices="tripinfo_flow_route_113_duration_20250327_1940.11" vType="car" speedFactor="1.00" vaporized=""/>
    <tripinfo id="flow_route_113_duration_20250327_1940.13" depart="46.00" departLane="1253188486#4_0" departPos="36.99" departSpeed="0.00" departDelay="20.85" arrival="139.00" arrivalLane="1253188486#8_1" arrivalPos="84.85" arrivalSpeed="15.21" duration="93.00" routeLength="246.49" waitingTime="55.00" waitingCount="1" stopTime="0.00" timeLoss="77.92" rerouteNo="0" devices="tripinfo_flow_route_113_duration_20250327_1940.13" vType="car" speedFactor="0.88" vaporized=""/>
    <tripinfo id="flow_route_113_duration_20250327_1940.5" depart="16.00" departLane="1253188486#4_0" departPos="3.65" departSpeed="0.00" departDelay="6.33" arrival="141.00" arrivalLane="1253188486#8_1" arrivalPos="234.28" arrivalSpeed="16.14" duration="125.00" routeLength="429.25" waitingTime="75.00" waitingCount="1" stopTime="0.00" timeLoss="98.63" rerouteNo="0" devices="tripinfo_flow_route_113_duration_20250327_1940.5" vType="car" speedFactor="0.93" vaporized=""/>
    <tripinfo id="flow_route_113_duration_20250327_1940.9" depart="30.00" departLane="1253188486#4_0" departPos="56.13" departSpeed="0.00" departDelay="12.59" arrival="142.00" arrivalLane="1253188486#8_2" arrivalPos="214.39" arrivalSpeed="16.26" duration="112.00" routeLength="356.88" waitingTime="66.00" waitingCount="1" stopTime="0.00" timeLoss="89.76" rerouteNo="0" devices="tripinfo_flow_route_113_duration_20250327_1940.9" vType="car" speedFactor="1.09" vaporized=""/>
    <tripinfo id="flow_route_115_duration_20250327_1940.5" depart="41.00" departLane="1253188486#4_0" departPos="2.04" departSpeed="0.00" departDelay="19.58" arrival="142.00" arrivalLane="1328664744#0_2" arrivalPos="147.15" arrivalSpeed="14.71" duration="101.00" routeLength="330.52" waitingTime="54.00" waitingCount="1" stopTime="0.00" timeLoss="78.75" rerouteNo="0" devices="tripinfo_flow_route_115_duration_20250327_1940.5" vType="car" speedFactor="0.90" vaporized=""/>
    <tripinfo id="flow_route_113_duration_20250327_1940.15" depart="57.00" departLane="1253188486#4_0" departPos="40.02" departSpeed="0.00" departDelay="27.98" arrival="142.00" arrivalLane="1253188486#8_0" arrivalPos="50.91" arrivalSpeed="14.11" duration="85.00" routeLength="209.52" waitingTime="46.00" waitingCount="1" stopTime="0.00" timeLoss="71.87" rerouteNo="0" devices="tripinfo_flow_route_113_duration_20250327_1940.15" vType="car" speedFactor="1.06" vaporized=""/>
    <tripinfo id="flow_route_115_duration_20250327_1940.8" depart="72.00" departLane="1253188486#4_0" departPos="18.27" departSpeed="0.00" departDelay="37.72" arrival="143.00" arrivalLane="1328664744#0_2" arrivalPos="7.68" arrivalSpeed="9.01" duration="71.00" routeLength="174.81" waitingTime="29.00" waitingCount="1" stopTime="0.00" timeLoss="59.20" rerouteNo="0" devices="tripinfo_flow_route_115_duration_20250327_1940.8" vType="car" speedFactor="1.04" vaporized=""/>
    <tripinfo id="flow_route_113_duration_20250327_1940.12" depart="44.00" departLane="1253188486#4_0" departPos="52.29" departSpeed="0.00" departDelay="20.78" arrival="144.00" arrivalLane="1253188486#8_0" arrivalPos="157.29" arrivalSpeed="16.41" duration="100.00" routeLength="303.64" waitingTime="58.00" waitingCount="1" stopTime="0.00" timeLoss="81.00" rerouteNo="0" devices="tripinfo_flow_route_113_duration_20250327_1940.12" vType="car" speedFactor="0.97" vaporized=""/>
    <tripinfo id="flow_route_115_duration_20250327_1940.7" depart="61.00" departLane="1253188486#4_0" departPos="9.23" departSpeed="0.00" departDelay="31.01" arrival="144.00" arrivalLane="1328664744#0_2" arrivalPos="99.06" arrivalSpeed="15.03" duration="83.00" routeLength="275.23" waitingTime="39.00" waitingCount="1" stopTime="0.00" timeLoss="65.41" rerouteNo="0" devices="tripinfo_flow_route_115_duration_20250327_1940.7" vType="car" speedFactor="0.98" vaporized=""/>