<?xml version="1.0" encoding="UTF-8"?>

<!-- generated on 2025-05-06 21:07:45 by Eclipse SUMO sumo Version 1.20.0
<configuration xmlns:xsi="http://www.w3.org/2001/XMLSchema-instance" xsi:noNamespaceSchemaLocation="http://sumo.dlr.de/xsd/sumoConfiguration.xsd">

    <input>
        <net-file value="osm.net.xml"/>
        <route-files value="xml/route_static_cluster_11657899598_353811979_6712514804_0.rou.xml"/>
    </input>

    <output>
        <tripinfo-output value="xml/tripinfo_static_cluster_11657899598_353811979_6712514804_0.xml"/>
    </output>

    <traci_server>
        <remote-port value="57691"/>
    </traci_server>

</configuration>
-->

<tripinfos xmlns:xsi="http://www.w3.org/2001/XMLSchema-instance" xsi:noNamespaceSchemaLocation="http://sumo.dlr.de/xsd/tripinfo_file.xsd">
    <tripinfo id="flow_route_136_duration_20250327_2300.0" depart="0.00" departLane="688883939#0_0" departPos="70.95" departSpeed="0.00" departDelay="0.00" arrival="22.00" arrivalLane="186410975#0_1" arrivalPos="11.74" arrivalSpeed="11.21" duration="22.00" routeLength="133.80" waitingTime="1.00" waitingCount="1" stopTime="0.00" timeLoss="11.77" rerouteNo="0" devices="tripinfo_flow_route_136_duration_20250327_2300.0" vType="car" speedFactor="1.01" vaporized=""/>
    <tripinfo id="flow_route_134_duration_20250327_2300.0" depart="0.00" departLane="688883939#0_0" departPos="78.56" departSpeed="0.00" departDelay="0.00" arrival="28.00" arrivalLane="809719540#0_0" arrivalPos="239.32" arrivalSpeed="16.14" duration="28.00" routeLength="300.42" waitingTime="0.00" waitingCount="0" stopTime="0.00" timeLoss="9.69" rerouteNo="0" devices="tripinfo_flow_route_134_duration_20250327_2300.0" vType="car" speedFactor="1.06" vaporized=""/>
    <tripinfo id="flow_route_138_duration_20250327_2300.0" depart="1.00" departLane="1310781056_0" departPos="99.29" departSpeed="0.00" departDelay="1.00" arrival="35.00" arrivalLane="186410975#0_0" arrivalPos="152.27" arrivalSpeed="11.22" duration="34.00" routeLength="305.80" waitingTime="0.00" waitingCount="0" stopTime="0.00" timeLoss="10.66" rerouteNo="0" devices="tripinfo_flow_route_138_duration_20250327_2300.0" vType="car" speedFactor="1.03" vaporized=""/>
    <tripinfo id="flow_route_135_duration_20250327_2300.1" depart="15.00" departLane="688883939#0_0" departPos="57.65" departSpeed="0.00" departDelay="0.00" arrival="37.00" arrivalLane="1254157399#1_0" arrivalPos="93.84" arrivalSpeed="16.39" duration="22.00" routeLength="169.91" waitingTime="0.00" waitingCount="0" stopTime="0.00" timeLoss="10.41" rerouteNo="0" devices="tripinfo_flow_route_135_duration_20250327_2300.1" vType="car" speedFactor="0.93" vaporized=""/>
    <tripinfo id="flow_route_135_duration_20250327_2300.0" depart="0.00" departLane="688883939#0_0" departPos="0.64" departSpeed="0.00" departDelay="0.00" arrival="45.00" arrivalLane="1254157399#1_0" arrivalPos="440.36" arrivalSpeed="16.52" duration="45.00" routeLength="573.44" waitingTime="0.00" waitingCount="0" stopTime="0.00" timeLoss="9.40" rerouteNo="0" devices="tripinfo_flow_route_135_duration_20250327_2300.0" vType="car" speedFactor="0.94" vaporized=""/>
    <tripinfo id="flow_route_136_duration_20250327_2300.1" depart="12.00" departLane="688883939#0_0" departPos="98.58" departSpeed="0.00" departDelay="0.00" arrival="47.00" arrivalLane="186410975#0_0" arrivalPos="184.69" arrivalSpeed="9.87" duration="35.00" routeLength="279.13" waitingTime="0.00" waitingCount="0" stopTime="0.00" timeLoss="7.56" rerouteNo="0" devices="tripinfo_flow_route_136_duration_20250327_2300.1" vType="car" speedFactor="0.89" vaporized=""/>
    <tripinfo id="flow_route_153_duration_20250327_2300.1" depart="6.00" departLane="31861355#0_0" departPos="594.82" departSpeed="0.00" departDelay="0.55" arrival="50.00" arrivalLane="809719540#0_0" arrivalPos="81.05" arrivalSpeed="11.94" duration="44.00" routeLength="117.35" waitingTime="19.00" waitingCount="1" stopTime="0.00" timeLoss="34.80" rerouteNo="0" devices="tripinfo_flow_route_153_duration_20250327_2300.1" vType="car" speedFactor="0.93" vaporized=""/>
    <tripinfo id="flow_route_153_duration_20250327_2300.2" depart="11.00" departLane="31861355#0_0" departPos="415.45" departSpeed="0.00" departDelay="0.09" arrival="52.00" arrivalLane="809719540#0_0" arrivalPos="64.84" arrivalSpeed="11.19" duration="41.00" routeLength="280.50" waitingTime="1.00" waitingCount="1" stopTime="0.00" timeLoss="22.48" rerouteNo="0" devices="tripinfo_flow_route_153_duration_20250327_2300.2" vType="car" speedFactor="0.97" vaporized=""/>
    <tripinfo id="flow_route_152_duration_20250327_2300.0" depart="0.00" departLane="31861355#0_0" departPos="164.48" departSpeed="0.00" departDelay="0.00" arrival="54.00" arrivalLane="714011134#0_1" arrivalPos="26.08" arrivalSpeed="11.13" duration="54.00" routeLength="522.49" waitingTime="0.00" waitingCount="0" stopTime="0.00" timeLoss="18.05" rerouteNo="0" devices="tripinfo_flow_route_152_duration_20250327_2300.0" vType="car" speedFactor="0.89" vaporized=""/>
    <tripinfo id="flow_route_152_duration_20250327_2300.2" depart="9.00" departLane="31861355#0_0" departPos="255.78" departSpeed="0.00" departDelay="0.43" arrival="56.00" arrivalLane="714011134#0_1" arrivalPos="13.21" arrivalSpeed="11.06" duration="47.00" routeLength="418.32" waitingTime="0.00" waitingCount="0" stopTime="0.00" timeLoss="19.96" rerouteNo="0" devices="tripinfo_flow_route_152_duration_20250327_2300.2" vType="car" speedFactor="0.94" vaporized=""/>
    <tripinfo id="flow_route_139_duration_20250327_2300.5" depart="12.00" departLane="1310781056_0" departPos="108.86" departSpeed="0.00" departDelay="0.47" arrival="56.00" arrivalLane="1254157399#1_0" arrivalPos="368.50" arrivalSpeed="16.42" duration="44.00" routeLength="449.47" waitingTime="1.00" waitingCount="1" stopTime="0.00" timeLoss="14.28" rerouteNo="0" devices="tripinfo_flow_route_139_duration_20250327_2300.5" vType="car" speedFactor="0.83" vaporized=""/>
    <tripinfo id="flow_route_152_duration_20250327_2300.5" depart="22.00" departLane="31861355#0_0" departPos="544.42" departSpeed="0.00" departDelay="0.58" arrival="56.00" arrivalLane="714011134#0_1" arrivalPos="102.95" arrivalSpeed="14.73" duration="34.00" routeLength="219.41" waitingTime="0.00" waitingCount="0" stopTime="0.00" timeLoss="20.32" rerouteNo="0" devices="tripinfo_flow_route_152_duration_20250327_2300.5" vType="car" speedFactor="1.03" vaporized=""/>
    <tripinfo id="flow_route_153_duration_20250327_2300.4" depart="22.00" departLane="31861355#0_0" departPos="388.77" departSpeed="0.00" departDelay="0.18" arrival="57.00" arrivalLane="809719540#0_0" arrivalPos="6.40" arrivalSpeed="6.08" duration="35.00" routeLength="248.74" waitingTime="0.00" waitingCount="0" stopTime="0.00" timeLoss="18.76" rerouteNo="0" devices="tripinfo_flow_route_153_duration_20250327_2300.4" vType="car" speedFactor="0.96" vaporized=""/>
    <tripinfo id="flow_route_152_duration_20250327_2300.7" depart="35.00" departLane="31861355#0_0" departPos="571.21" departSpeed="0.00" departDelay="5.01" arrival="57.00" arrivalLane="714011134#0_1" arrivalPos="36.31" arrivalSpeed="12.06" duration="22.00" routeLength="125.98" waitingTime="0.00" waitingCount="0" stopTime="0.00" timeLoss="12.80" rerouteNo="0" devices="tripinfo_flow_route_152_duration_20250327_2300.7" vType="car" speedFactor="0.90" vaporized=""/>
    <tripinfo id="flow_route_139_duration_20250327_2300.1" depart="4.00" departLane="1310781056_0" departPos="71.84" departSpeed="0.00" departDelay="1.69" arrival="61.00" arrivalLane="1254157399#1_0" arrivalPos="422.50" arrivalSpeed="16.13" duration="57.00" routeLength="540.50" waitingTime="0.00" waitingCount="0" stopTime="0.00" timeLoss="21.87" rerouteNo="0" devices="tripinfo_flow_route_139_duration_20250327_2300.1" vType="car" speedFactor="0.86" vaporized=""/>
    <tripinfo id="flow_route_151_duration_20250327_2300.1" depart="3.00" departLane="31861355#0_0" departPos="190.94" departSpeed="0.00" departDelay="0.69" arrival="63.00" arrivalLane="186410975#0_1" arrivalPos="11.92" arrivalSpeed="12.07" duration="60.00" routeLength="548.20" waitingTime="0.00" waitingCount="0" stopTime="0.00" timeLoss="26.13" rerouteNo="0" devices="tripinfo_flow_route_151_duration_20250327_2300.1" vType="car" speedFactor="1.09" vaporized=""/>
    <tripinfo id="flow_route_139_duration_20250327_2300.2" depart="6.00" departLane="1310781056_0" departPos="86.69" departSpeed="0.00" departDelay="1.39" arrival="63.00" arrivalLane="1254157399#1_0" arrivalPos="580.37" arrivalSpeed="16.28" duration="57.00" routeLength="683.51" waitingTime="0.00" waitingCount="0" stopTime="0.00" timeLoss="14.28" rerouteNo="0" devices="tripinfo_flow_route_139_duration_20250327_2300.2" vType="car" speedFactor="1.03" vaporized=""/>
    <tripinfo id="flow_route_152_duration_20250327_2300.4" depart="20.00" departLane="31861355#0_0" departPos="263.16" departSpeed="0.00" departDelay="2.86" arrival="63.00" arrivalLane="714011134#0_1" arrivalPos="9.07" arrivalSpeed="12.87" duration="43.00" routeLength="406.78" waitingTime="0.00" waitingCount="0" stopTime="0.00" timeLoss="17.86" rerouteNo="0" devices="tripinfo_flow_route_152_duration_20250327_2300.4" vType="car" speedFactor="0.99" vaporized=""/>
    <tripinfo id="flow_route_151_duration_20250327_2300.10" depart="24.00" departLane="31861355#0_0" departPos="604.08" departSpeed="0.00" departDelay="0.93" arrival="64.00" arrivalLane="186410975#0_1" arrivalPos="117.64" arrivalSpeed="11.12" duration="40.00" routeLength="240.77" waitingTime="6.00" waitingCount="1" stopTime="0.00" timeLoss="21.42" rerouteNo="0" devices="tripinfo_flow_route_151_duration_20250327_2300.10" vType="car" speedFactor="1.04" vaporized=""/>
    <tripinfo id="flow_route_152_duration_20250327_2300.1" depart="5.00" departLane="31861355#0_0" departPos="147.19" departSpeed="0.00" departDelay="0.72" arrival="65.00" arrivalLane="714011134#0_1" arrivalPos="93.55" arrivalSpeed="15.80" duration="60.00" routeLength="607.23" waitingTime="0.00" waitingCount="0" stopTime="0.00" timeLoss="23.24" rerouteNo="0" devices="tripinfo_flow_route_152_duration_20250327_2300.1" vType="car" speedFactor="1.12" vaporized=""/>
    <tripinfo id="flow_route_151_duration_20250327_2300.0" depart="0.00" departLane="31861355#0_0" departPos="352.12" departSpeed="0.00" departDelay="0.00" arrival="68.00" arrivalLane="186410975#0_0" arrivalPos="191.84" arrivalSpeed="11.41" duration="68.00" routeLength="566.94" waitingTime="3.00" waitingCount="1" stopTime="0.00" timeLoss="28.80" rerouteNo="0" devices="tripinfo_flow_route_151_duration_20250327_2300.0" vType="car" speedFactor="1.05" vaporized=""/>
    <tripinfo id="flow_route_151_duration_20250327_2300.11" depart="26.00" departLane="31861355#0_0" departPos="485.63" departSpeed="0.00" departDelay="0.62" arrival="68.00" arrivalLane="186410975#0_0" arrivalPos="88.50" arrivalSpeed="10.84" duration="42.00" routeLength="330.07" waitingTime="0.00" waitingCount="0" stopTime="0.00" timeLoss="19.04" rerouteNo="0" devices="tripinfo_flow_route_151_duration_20250327_2300.11" vType="car" speedFactor="1.00" vaporized=""/>
    <tripinfo id="flow_route_153_duration_20250327_2300.5" depart="32.00" departLane="31861355#0_0" departPos="532.62" departSpeed="0.00" departDelay="4.73" arrival="68.00" arrivalLane="809719540#0_0" arrivalPos="236.90" arrivalSpeed="16.48" duration="36.00" routeLength="335.40" waitingTime="0.00" waitingCount="0" stopTime="0.00" timeLoss="14.38" rerouteNo="0" devices="tripinfo_flow_route_153_duration_20250327_2300.5" vType="car" speedFactor="1.17" vaporized=""/>
    <tripinfo id="flow_route_151_duration_20250327_2300.8" depart="20.00" departLane="31861355#0_0" departPos="242.35" departSpeed="0.00" departDelay="1.54" arrival="72.00" arrivalLane="186410975#0_1" arrivalPos="12.09" arrivalSpeed="10.65" duration="52.00" routeLength="496.95" waitingTime="0.00" waitingCount="0" stopTime="0.00" timeLoss="20.29" rerouteNo="0" devices="tripinfo_flow_route_151_duration_20250327_2300.8" vType="car" speedFactor="0.97" vaporized=""/>
    <tripinfo id="flow_route_153_duration_20250327_2300.0" depart="0.00" departLane="31861355#0_0" departPos="37.47" departSpeed="0.00" departDelay="0.00" arrival="73.00" arrivalLane="809719540#0_0" arrivalPos="146.46" arrivalSpeed="15.55" duration="73.00" routeLength="740.10" waitingTime="0.00" waitingCount="0" stopTime="0.00" timeLoss="24.03" rerouteNo="0" devices="tripinfo_flow_route_153_duration_20250327_2300.0" vType="car" speedFactor="0.94" vaporized=""/>
    <tripinfo id="flow_route_139_duration_20250327_2300.4" depart="11.00" departLane="1310781056_0" departPos="92.05" departSpeed="0.00" departDelay="1.77" arrival="73.00" arrivalLane="1254157399#1_0" arrivalPos="596.14" arrivalSpeed="16.30" duration="62.00" routeLength="693.92" waitingTime="3.00" waitingCount="2" stopTime="0.00" timeLoss="19.11" rerouteNo="0" devices="tripinfo_flow_route_139_duration_20250327_2300.4" vType="car" speedFactor="1.16" vaporized=""/>
    <tripinfo id="flow_route_151_duration_20250327_2300.2" depart="5.00" departLane="31861355#0_0" departPos="338.46" departSpeed="0.00" departDelay="0.39" arrival="74.00" arrivalLane="186410975#0_0" arrivalPos="212.76" arrivalSpeed="11.61" duration="69.00" routeLength="601.51" waitingTime="0.00" waitingCount="0" stopTime="0.00" timeLoss="26.47" rerouteNo="0" devices="tripinfo_flow_route_151_duration_20250327_2300.2" vType="car" speedFactor="1.05" vaporized=""/>
    <tripinfo id="flow_route_153_duration_20250327_2300.3" depart="20.00" departLane="31861355#0_0" departPos="422.01" departSpeed="0.00" departDelay="3.64" arrival="74.00" arrivalLane="809719540#0_0" arrivalPos="266.52" arrivalSpeed="16.17" duration="54.00" routeLength="475.62" waitingTime="0.00" waitingCount="0" stopTime="0.00" timeLoss="23.88" rerouteNo="0" devices="tripinfo_flow_route_153_duration_20250327_2300.3" vType="car" speedFactor="1.17" vaporized=""/>
    <tripinfo id="flow_route_137_duration_20250327_2300.0" depart="0.00" departLane="1310781056_0" departPos="52.86" departSpeed="0.00" departDelay="0.00" arrival="79.00" arrivalLane="714011134#0_0" arrivalPos="51.79" arrivalSpeed="11.30" duration="79.00" routeLength="192.73" waitingTime="30.00" waitingCount="5" stopTime="0.00" timeLoss="66.91" rerouteNo="0" devices="tripinfo_flow_route_137_duration_20250327_2300.0" vType="car" speedFactor="1.08" vaporized=""/>
    <tripinfo id="flow_route_138_duration_20250327_2300.1" depart="6.00" departLane="1310781056_0" departPos="18.04" departSpeed="0.00" departDelay="0.55" arrival="84.00" arrivalLane="186410975#0_1" arrivalPos="8.37" arrivalSpeed="10.74" duration="78.00" routeLength="243.14" waitingTime="21.00" waitingCount="2" stopTime="0.00" timeLoss="62.12" rerouteNo="0" devices="tripinfo_flow_route_138_duration_20250327_2300.1" vType="car" speedFactor="0.99" vaporized=""/>
    <tripinfo id="flow_route_151_duration_20250327_2300.5" depart="12.00" departLane="31861355#0_0" departPos="191.38" departSpeed="0.00" departDelay="0.47" arrival="84.00" arrivalLane="186410975#0_0" arrivalPos="178.51" arrivalSpeed="9.58" duration="72.00" routeLength="714.34" waitingTime="0.00" waitingCount="0" stopTime="0.00" timeLoss="17.02" rerouteNo="0" devices="tripinfo_flow_route_151_duration_20250327_2300.5" vType="car" speedFactor="0.87" vaporized=""/>
    <tripinfo id="flow_route_138_duration_20250327_2300.5" depart="33.00" departLane="1310781056_0" departPos="111.24" departSpeed="0.00" departDelay="5.73" arrival="85.00" arrivalLane="186410975#0_0" arrivalPos="32.08" arrivalSpeed="9.69" duration="52.00" routeLength="173.66" waitingTime="20.00" waitingCount="1" stopTime="0.00" timeLoss="38.84" rerouteNo="0" devices="tripinfo_flow_route_138_duration_20250327_2300.5" vType="car" speedFactor="0.88" vaporized=""/>
    <tripinfo id="flow_route_151_duration_20250327_2300.3" depart="7.00" departLane="31861355#0_0" departPos="80.45" departSpeed="0.00" departDelay="0.08" arrival="86.00" arrivalLane="186410975#0_0" arrivalPos="176.82" arrivalSpeed="10.26" duration="79.00" routeLength="823.59" waitingTime="0.00" waitingCount="0" stopTime="0.00" timeLoss="20.75" rerouteNo="0" devices="tripinfo_flow_route_151_duration_20250327_2300.3" vType="car" speedFactor="0.94" vaporized=""/>
    <tripinfo id="flow_route_139_duration_20250327_2300.0" depart="1.00" departLane="1310781056_0" departPos="36.51" departSpeed="0.00" departDelay="1.00" arrival="87.00" arrivalLane="1254157399#1_1" arrivalPos="26.95" arrivalSpeed="9.43" duration="86.00" routeLength="180.27" waitingTime="29.00" waitingCount="5" stopTime="0.00" timeLoss="73.26" rerouteNo="0" devices="tripinfo_flow_route_139_duration_20250327_2300.0" vType="car" speedFactor="0.83" vaporized=""/>
    <tripinfo id="flow_route_139_duration_20250327_2300.3" depart="7.00" departLane="1310781056_0" departPos="37.57" departSpeed="0.00" departDelay="0.08" arrival="89.00" arrivalLane="1254157399#1_1" arrivalPos="18.43" arrivalSpeed="9.12" duration="82.00" routeLength="170.69" waitingTime="25.00" waitingCount="3" stopTime="0.00" timeLoss="69.58" rerouteNo="0" devices="tripinfo_flow_route_139_duration_20250327_2300.3" vType="car" speedFactor="0.88" vaporized=""/>
    <tripinfo id="flow_route_139_duration_20250327_2300.8" depart="23.00" departLane="1310781056_0" departPos="104.88" departSpeed="0.00" departDelay="4.54" arrival="90.00" arrivalLane="1254157399#1_1" arrivalPos="111.66" arrivalSpeed="13.48" duration="67.00" routeLength="196.60" waitingTime="32.00" waitingCount="2" stopTime="0.00" timeLoss="53.99" rerouteNo="0" devices="tripinfo_flow_route_139_duration_20250327_2300.8" vType="car" speedFactor="1.02" vaporized=""/>
    <tripinfo id="flow_route_139_duration_20250327_2300.6" depart="14.00" departLane="1310781056_0" departPos="72.76" departSpeed="0.00" departDelay="0.16" arrival="92.00" arrivalLane="1254157399#1_0" arrivalPos="104.08" arrivalSpeed="14.04" duration="78.00" routeLength="221.15" waitingTime="30.00" waitingCount="4" stopTime="0.00" timeLoss="62.66" rerouteNo="0" devices="tripinfo_flow_route_139_duration_20250327_2300.6" vType="car" speedFactor="0.95" vaporized=""/>
    <tripinfo id="flow_route_134_duration_20250327_2300.1" depart="30.00" departLane="688883939#0_0" departPos="62.11" departSpeed="0.00" departDelay="0.00" arrival="92.00" arrivalLane="809719540#0_0" arrivalPos="262.75" arrivalSpeed="16.37" duration="62.00" routeLength="340.29" waitingTime="22.00" waitingCount="1" stopTime="0.00" timeLoss="40.60" rerouteNo="0" devices="tripinfo_flow_route_134_duration_20250327_2300.1" vType="car" speedFactor="1.02" vaporized=""/>
    <tripinfo id="flow_route_139_duration_20250327_2300.7" depart="20.00" departLane="1310781056_0" departPos="32.89" departSpeed="0.00" departDelay="3.85" arrival="94.00" arrivalLane="1254157399#1_1" arrivalPos="41.39" arrivalSpeed="9.93" duration="74.00" routeLength="198.33" waitingTime="20.00" waitingCount="1" stopTime="0.00" timeLoss="60.99" rerouteNo="0" devices="tripinfo_flow_route_139_duration_20250327_2300.7" vType="car" speedFactor="1.15" vaporized=""/>
    <tripinfo id="flow_route_138_duration_20250327_2300.4" depart="26.00" departLane="1310781056_0" departPos="52.88" departSpeed="0.00" departDelay="4.18" arrival="96.00" arrivalLane="186410975#0_0" arrivalPos="94.26" arrivalSpeed="9.51" duration="70.00" routeLength="294.19" waitingTime="18.00" waitingCount="1" stopTime="0.00" timeLoss="48.15" rerouteNo="0" devices="tripinfo_flow_route_138_duration_20250327_2300.4" vType="car" speedFactor="0.90" vaporized=""/>
    <tripinfo id="flow_route_136_duration_20250327_2300.2" depart="24.00" departLane="688883939#0_0" departPos="60.48" departSpeed="0.00" departDelay="0.00" arrival="97.00" arrivalLane="186410975#0_1" arrivalPos="109.72" arrivalSpeed="11.95" duration="73.00" routeLength="242.26" waitingTime="30.00" waitingCount="2" stopTime="0.00" timeLoss="54.25" rerouteNo="0" devices="tripinfo_flow_route_136_duration_20250327_2300.2" vType="car" speedFactor="1.09" vaporized=""/>
    <tripinfo id="flow_route_138_duration_20250327_2300.2" depart="11.00" departLane="1310781056_0" departPos="10.10" departSpeed="0.00" departDelay="0.09" arrival="98.00" arrivalLane="186410975#0_0" arrivalPos="147.54" arrivalSpeed="10.96" duration="87.00" routeLength="390.26" waitingTime="19.00" waitingCount="1" stopTime="0.00" timeLoss="58.99" rerouteNo="0" devices="tripinfo_flow_route_138_duration_20250327_2300.2" vType="car" speedFactor="1.01" vaporized=""/>
    <tripinfo id="flow_route_135_duration_20250327_2300.3" depart="45.00" departLane="688883939#0_0" departPos="48.05" departSpeed="0.00" departDelay="0.00" arrival="100.00" arrivalLane="1254157399#1_0" arrivalPos="352.03" arrivalSpeed="16.36" duration="55.00" routeLength="437.70" waitingTime="8.00" waitingCount="1" stopTime="0.00" timeLoss="27.95" rerouteNo="0" devices="tripinfo_flow_route_135_duration_20250327_2300.3" vType="car" speedFactor="1.09" vaporized=""/>
    <tripinfo id="flow_route_136_duration_20250327_2300.4" depart="49.00" departLane="688883939#0_0" departPos="36.55" departSpeed="0.00" departDelay="1.00" arrival="101.00" arrivalLane="186410975#0_1" arrivalPos="101.81" arrivalSpeed="9.88" duration="52.00" routeLength="258.27" waitingTime="6.00" waitingCount="2" stopTime="0.00" timeLoss="31.81" rerouteNo="0" devices="tripinfo_flow_route_136_duration_20250327_2300.4" vType="car" speedFactor="1.02" vaporized=""/>
    <tripinfo id="flow_route_139_duration_20250327_2300.13" depart="36.00" departLane="1310781056_0" departPos="46.70" departSpeed="0.00" departDelay="6.01" arrival="103.00" arrivalLane="1254157399#1_1" arrivalPos="94.91" arrivalSpeed="13.90" duration="67.00" routeLength="238.03" waitingTime="19.00" waitingCount="1" stopTime="0.00" timeLoss="51.09" rerouteNo="0" devices="tripinfo_flow_route_139_duration_20250327_2300.13" vType="car" speedFactor="1.00" vaporized=""/>
    <tripinfo id="flow_route_138_duration_20250327_2300.3" depart="19.00" departLane="1310781056_0" departPos="9.07" departSpeed="0.00" departDelay="2.64" arrival="109.00" arrivalLane="186410975#0_0" arrivalPos="239.55" arrivalSpeed="12.78" duration="90.00" routeLength="483.30" waitingTime="18.00" waitingCount="1" stopTime="0.00" timeLoss="56.96" rerouteNo="0" devices="tripinfo_flow_route_138_duration_20250327_2300.3" vType="car" speedFactor="1.18" vaporized=""/>
    <tripinfo id="flow_route_135_duration_20250327_2300.2" depart="30.00" departLane="688883939#0_0" departPos="29.23" departSpeed="0.00" departDelay="0.00" arrival="109.00" arrivalLane="1254157399#1_0" arrivalPos="522.55" arrivalSpeed="16.52" duration="79.00" routeLength="627.04" waitingTime="18.00" waitingCount="1" stopTime="0.00" timeLoss="40.35" rerouteNo="0" devices="tripinfo_flow_route_135_duration_20250327_2300.2" vType="car" speedFactor="1.10" vaporized=""/>
    <tripinfo id="flow_route_138_duration_20250327_2300.6" depart="36.00" departLane="1310781056_0" departPos="12.97" departSpeed="0.00" departDelay="3.28" arrival="109.00" arrivalLane="186410975#0_0" arrivalPos="211.93" arrivalSpeed="12.20" duration="73.00" routeLength="451.79" waitingTime="15.00" waitingCount="1" stopTime="0.00" timeLoss="41.55" rerouteNo="0" devices="tripinfo_flow_route_138_duration_20250327_2300.6" vType="car" speedFactor="1.14" vaporized=""/>
    <tripinfo id="flow_route_139_duration_20250327_2300.11" depart="31.00" departLane="1310781056_0" departPos="43.03" departSpeed="0.00" departDelay="5.62" arrival="111.00" arrivalLane="1254157399#1_0" arrivalPos="254.07" arrivalSpeed="16.28" duration="80.00" routeLength="400.87" waitingTime="20.00" waitingCount="1" stopTime="0.00" timeLoss="53.86" rerouteNo="0" devices="tripinfo_flow_route_139_duration_20250327_2300.11" vType="car" speedFactor="1.09" vaporized=""/>
    <tripinfo id="flow_route_138_duration_20250327_2300.7" depart="48.00" departLane="1310781056_0" departPos="59.91" departSpeed="0.00" departDelay="9.82" arrival="112.00" arrivalLane="186410975#0_0" arrivalPos="186.65" arrivalSpeed="9.97" duration="64.00" routeLength="379.56" waitingTime="11.00" waitingCount="1" stopTime="0.00" timeLoss="32.86" rerouteNo="0" devices="tripinfo_flow_route_138_duration_20250327_2300.7" vType="car" speedFactor="0.91" vaporized=""/>
    <tripinfo id="flow_route_152_duration_20250327_2300.11" depart="50.00" departLane="31861355#0_0" departPos="515.00" departSpeed="0.00" departDelay="2.87" arrival="112.00" arrivalLane="714011134#0_1" arrivalPos="11.56" arrivalSpeed="9.37" duration="62.00" routeLength="157.44" waitingTime="31.00" waitingCount="1" stopTime="0.00" timeLoss="52.03" rerouteNo="0" devices="tripinfo_flow_route_152_duration_20250327_2300.11" vType="car" speedFactor="0.97" vaporized=""/>
    <tripinfo id="flow_route_136_duration_20250327_2300.3" depart="38.00" departLane="688883939#0_0" departPos="47.08" departSpeed="0.00" departDelay="2.00" arrival="113.00" arrivalLane="186410975#0_1" arrivalPos="234.66" arrivalSpeed="10.25" duration="75.00" routeLength="380.60" waitingTime="16.00" waitingCount="2" stopTime="0.00" timeLoss="40.67" rerouteNo="0" devices="tripinfo_flow_route_136_duration_20250327_2300.3" vType="car" speedFactor="0.94" vaporized=""/>
    <tripinfo id="flow_route_152_duration_20250327_2300.3" depart="15.00" departLane="31861355#0_0" departPos="17.31" departSpeed="0.00" departDelay="2.15" arrival="120.00" arrivalLane="714011134#0_1" arrivalPos="51.91" arrivalSpeed="12.86" duration="105.00" routeLength="695.48" waitingTime="28.00" waitingCount="1" stopTime="0.00" timeLoss="59.10" rerouteNo="0" devices="tripinfo_flow_route_152_duration_20250327_2300.3" vType="car" speedFactor="0.92" vaporized=""/>
    <tripinfo id="flow_route_151_duration_20250327_2300.4" depart="10.00" departLane="31861355#0_0" departPos="104.43" departSpeed="0.00" departDelay="0.77" arrival="121.00" arrivalLane="186410975#0_1" arrivalPos="68.16" arrivalSpeed="10.94" duration="111.00" routeLength="690.94" waitingTime="33.00" waitingCount="1" stopTime="0.00" timeLoss="67.02" rerouteNo="0" devices="tripinfo_flow_route_151_duration_20250327_2300.4" vType="car" speedFactor="1.02" vaporized=""/>
    <tripinfo id="flow_route_153_duration_20250327_2300.6" depart="38.00" departLane="31861355#0_0" departPos="206.96" departSpeed="0.00" departDelay="5.28" arrival="121.00" arrivalLane="809719540#0_0" arrivalPos="3.93" arrivalSpeed="5.73" duration="83.00" routeLength="428.08" waitingTime="23.00" waitingCount="1" stopTime="0.00" timeLoss="55.92" rerouteNo="0" devices="tripinfo_flow_route_153_duration_20250327_2300.6" vType="car" speedFactor="1.08" vaporized=""/>
    <tripinfo id="flow_route_151_duration_20250327_2300.7" depart="20.00" departLane="31861355#0_0" departPos="132.05" departSpeed="0.00" departDelay="3.85" arrival="123.00" arrivalLane="186410975#0_1" arrivalPos="46.20" arrivalSpeed="10.82" duration="103.00" routeLength="641.35" waitingTime="30.00" waitingCount="1" stopTime="0.00" timeLoss="62.53" rerouteNo="0" devices="tripinfo_flow_route_151_duration_20250327_2300.7" vType="car" speedFactor="1.01" vaporized=""/>
    <tripinfo id="flow_route_152_duration_20250327_2300.6" depart="26.00" departLane="31861355#0_0" departPos="174.86" departSpeed="0.00" departDelay="0.29" arrival="124.00" arrivalLane="714011134#0_1" arrivalPos="73.72" arrivalSpeed="14.97" duration="98.00" routeLength="559.74" waitingTime="28.00" waitingCount="1" stopTime="0.00" timeLoss="59.85" rerouteNo="0" devices="tripinfo_flow_route_152_duration_20250327_2300.6" vType="car" speedFactor="0.90" vaporized=""/>
    <tripinfo id="flow_route_151_duration_20250327_2300.17" depart="45.00" departLane="31861355#0_0" departPos="414.19" departSpeed="0.00" departDelay="5.78" arrival="124.00" arrivalLane="186410975#0_0" arrivalPos="33.42" arrivalSpeed="10.48" duration="79.00" routeLength="346.44" waitingTime="26.00" waitingCount="1" stopTime="0.00" timeLoss="55.99" rerouteNo="0" devices="tripinfo_flow_route_151_duration_20250327_2300.17" vType="car" speedFactor="0.97" vaporized=""/>
    <tripinfo id="flow_route_153_duration_20250327_2300.9" depart="54.00" departLane="31861355#0_0" departPos="437.87" departSpeed="0.00" departDelay="4.91" arrival="125.00" arrivalLane="809719540#0_0" arrivalPos="81.21" arrivalSpeed="12.63" duration="71.00" routeLength="274.45" waitingTime="23.00" waitingCount="1" stopTime="0.00" timeLoss="52.75" rerouteNo="0" devices="tripinfo_flow_route_153_duration_20250327_2300.9" vType="car" speedFactor="1.04" vaporized=""/>
    <tripinfo id="flow_route_153_duration_20250327_2300.10" depart="56.00" departLane="31861355#0_0" departPos="555.65" departSpeed="0.00" departDelay="1.46" arrival="125.00" arrivalLane="809719540#0_0" arrivalPos="238.46" arrivalSpeed="16.21" duration="69.00" routeLength="313.92" waitingTime="29.00" waitingCount="1" stopTime="0.00" timeLoss="49.05" rerouteNo="0" devices="tripinfo_flow_route_153_duration_20250327_2300.10" vType="car" speedFactor="1.09" vaporized=""/>
    <tripinfo id="flow_route_151_duration_20250327_2300.22" depart="54.00" departLane="31861355#0_0" departPos="495.27" departSpeed="0.00" departDelay="3.25" arrival="127.00" arrivalLane="186410975#0_0" arrivalPos="94.35" arrivalSpeed="11.21" duration="73.00" routeLength="326.29" waitingTime="27.00" waitingCount="1" stopTime="0.00" timeLoss="49.92" rerouteNo="0" devices="tripinfo_flow_route_151_duration_20250327_2300.22" vType="car" speedFactor="1.02" vaporized=""/>
    <tripinfo id="flow_route_139_duration_20250327_2300.15" depart="45.00" departLane="1310781056_0" departPos="85.00" departSpeed="0.00" departDelay="10.40" arrival="129.00" arrivalLane="1254157399#1_0" arrivalPos="493.18" arrivalSpeed="16.16" duration="84.00" routeLength="598.01" waitingTime="18.00" waitingCount="1" stopTime="0.00" timeLoss="46.83" rerouteNo="0" devices="tripinfo_flow_route_139_duration_20250327_2300.15" vType="car" speedFactor="1.12" vaporized=""/>