<?xml version="1.0" encoding="UTF-8"?>

<!-- generated on 2025-05-06 16:33:52 by Eclipse SUMO sumo Version 1.20.0
<configuration xmlns:xsi="http://www.w3.org/2001/XMLSchema-instance" xsi:noNamespaceSchemaLocation="http://sumo.dlr.de/xsd/sumoConfiguration.xsd">

    <input>
        <net-file value="osm.net.xml"/>
        <route-files value="xml/routes_ddpg_632031937.rou.xml"/>
    </input>

    <output>
        <tripinfo-output value="xml/tripinfo_42362.xml"/>
    </output>

    <traci_server>
        <remote-port value="47125"/>
    </traci_server>

</configuration>
-->

<tripinfos xmlns:xsi="http://www.w3.org/2001/XMLSchema-instance" xsi:noNamespaceSchemaLocation="http://sumo.dlr.de/xsd/tripinfo_file.xsd">
    <tripinfo id="flow_route_53_duration_20250327_1920.4" depart="7.00" departLane="138002006#0_0" departPos="67.86" departSpeed="0.00" departDelay="0.52" arrival="19.00" arrivalLane="1369578052#0_0" arrivalPos="5.98" arrivalSpeed="8.22" duration="12.00" routeLength="46.03" waitingTime="0.00" waitingCount="0" stopTime="0.00" timeLoss="8.90" rerouteNo="0" devices="tripinfo_flow_route_53_duration_20250327_1920.4" vType="car" speedFactor="0.99" vaporized=""/>
    <tripinfo id="flow_route_66_duration_20250327_1920.0" depart="0.00" departLane="-138002002#2_0" departPos="85.87" departSpeed="0.00" departDelay="0.00" arrival="20.00" arrivalLane="-138002006#3_1" arrivalPos="3.87" arrivalSpeed="12.67" duration="20.00" routeLength="121.39" waitingTime="0.00" waitingCount="0" stopTime="0.00" timeLoss="10.91" rerouteNo="0" devices="tripinfo_flow_route_66_duration_20250327_1920.0" vType="car" speedFactor="0.83" vaporized=""/>
    <tripinfo id="flow_route_53_duration_20250327_1920.0" depart="0.00" departLane="138002006#0_0" departPos="48.40" departSpeed="0.00" departDelay="0.00" arrival="23.00" arrivalLane="1369578052#0_1" arrivalPos="131.33" arrivalSpeed="15.35" duration="23.00" routeLength="190.85" waitingTime="0.00" waitingCount="0" stopTime="0.00" timeLoss="10.00" rerouteNo="0" devices="tripinfo_flow_route_53_duration_20250327_1920.0" vType="car" speedFactor="0.94" vaporized=""/>
    <tripinfo id="flow_route_53_duration_20250327_1920.1" depart="2.00" departLane="138002006#0_0" departPos="5.35" departSpeed="0.00" departDelay="0.38" arrival="23.00" arrivalLane="1369578052#0_1" arrivalPos="48.76" arrivalSpeed="14.01" duration="21.00" routeLength="151.33" waitingTime="0.00" waitingCount="0" stopTime="0.00" timeLoss="10.70" rerouteNo="0" devices="tripinfo_flow_route_53_duration_20250327_1920.1" vType="car" speedFactor="0.89" vaporized=""/>
    <tripinfo id="flow_route_53_duration_20250327_1920.5" depart="11.00" departLane="138002006#0_0" departPos="50.74" departSpeed="0.00" departDelay="2.90" arrival="24.00" arrivalLane="1369578052#0_1" arrivalPos="5.50" arrivalSpeed="9.64" duration="13.00" routeLength="62.68" waitingTime="0.00" waitingCount="0" stopTime="0.00" timeLoss="8.41" rerouteNo="0" devices="tripinfo_flow_route_53_duration_20250327_1920.5" vType="car" speedFactor="0.94" vaporized=""/>
    <tripinfo id="flow_route_53_duration_20250327_1920.2" depart="5.00" departLane="138002006#0_0" departPos="83.36" departSpeed="0.00" departDelay="1.76" arrival="25.00" arrivalLane="1369578052#0_0" arrivalPos="126.01" arrivalSpeed="14.03" duration="20.00" routeLength="150.57" waitingTime="0.00" waitingCount="0" stopTime="0.00" timeLoss="9.27" rerouteNo="0" devices="tripinfo_flow_route_53_duration_20250327_1920.2" vType="car" speedFactor="0.86" vaporized=""/>
    <tripinfo id="flow_route_53_duration_20250327_1920.3" depart="5.00" departLane="138002006#0_0" departPos="73.17" departSpeed="0.00" departDelay="0.14" arrival="25.00" arrivalLane="1369578052#0_0" arrivalPos="94.56" arrivalSpeed="13.61" duration="20.00" routeLength="129.30" waitingTime="0.00" waitingCount="0" stopTime="0.00" timeLoss="11.95" rerouteNo="0" devices="tripinfo_flow_route_53_duration_20250327_1920.3" vType="car" speedFactor="1.09" vaporized=""/>
    <tripinfo id="flow_route_52_duration_20250327_1920.0" depart="0.00" departLane="138002006#0_0" departPos="21.97" departSpeed="0.00" departDelay="0.00" arrival="30.00" arrivalLane="380351865#0_1" arrivalPos="15.21" arrivalSpeed="11.55" duration="30.00" routeLength="234.80" waitingTime="0.00" waitingCount="0" stopTime="0.00" timeLoss="10.26" rerouteNo="0" devices="tripinfo_flow_route_52_duration_20250327_1920.0" vType="car" speedFactor="1.06" vaporized=""/>
    <tripinfo id="flow_route_67_duration_20250327_1920.0" depart="1.00" departLane="-138002002#2_0" departPos="104.31" departSpeed="0.00" departDelay="1.00" arrival="32.00" arrivalLane="380351865#0_0" arrivalPos="12.69" arrivalSpeed="11.37" duration="31.00" routeLength="241.42" waitingTime="0.00" waitingCount="0" stopTime="0.00" timeLoss="11.15" rerouteNo="0" devices="tripinfo_flow_route_67_duration_20250327_1920.0" vType="car" speedFactor="1.05" vaporized=""/>
    <tripinfo id="flow_route_53_duration_20250327_1920.9" depart="19.00" departLane="138002006#0_0" departPos="54.60" departSpeed="0.00" departDelay="4.41" arrival="33.00" arrivalLane="1369578052#0_0" arrivalPos="5.13" arrivalSpeed="7.94" duration="14.00" routeLength="58.45" waitingTime="0.00" waitingCount="0" stopTime="0.00" timeLoss="9.99" rerouteNo="0" devices="tripinfo_flow_route_53_duration_20250327_1920.9" vType="car" speedFactor="0.92" vaporized=""/>
    <tripinfo id="flow_route_53_duration_20250327_1920.6" depart="13.00" departLane="138002006#0_0" departPos="27.32" departSpeed="0.00" departDelay="3.27" arrival="36.00" arrivalLane="1369578052#0_1" arrivalPos="23.11" arrivalSpeed="11.57" duration="23.00" routeLength="103.71" waitingTime="0.00" waitingCount="0" stopTime="0.00" timeLoss="16.21" rerouteNo="0" devices="tripinfo_flow_route_53_duration_20250327_1920.6" vType="car" speedFactor="1.16" vaporized=""/>
    <tripinfo id="flow_route_53_duration_20250327_1920.7" depart="14.00" departLane="138002006#0_0" departPos="16.28" departSpeed="0.00" departDelay="2.65" arrival="38.00" arrivalLane="1369578052#0_1" arrivalPos="123.16" arrivalSpeed="15.82" duration="24.00" routeLength="214.80" waitingTime="0.00" waitingCount="0" stopTime="0.00" timeLoss="10.59" rerouteNo="0" devices="tripinfo_flow_route_53_duration_20250327_1920.7" vType="car" speedFactor="0.97" vaporized=""/>
    <tripinfo id="flow_route_53_duration_20250327_1920.8" depart="15.00" departLane="138002006#0_0" departPos="82.39" departSpeed="0.00" departDelay="2.03" arrival="38.00" arrivalLane="1369578052#0_0" arrivalPos="172.36" arrivalSpeed="13.60" duration="23.00" routeLength="197.89" waitingTime="0.00" waitingCount="0" stopTime="0.00" timeLoss="8.42" rerouteNo="0" devices="tripinfo_flow_route_53_duration_20250327_1920.8" vType="car" speedFactor="0.83" vaporized=""/>
    <tripinfo id="flow_route_53_duration_20250327_1920.10" depart="21.00" departLane="138002006#0_0" departPos="77.72" departSpeed="0.00" departDelay="4.79" arrival="40.00" arrivalLane="1369578052#0_0" arrivalPos="104.54" arrivalSpeed="14.53" duration="19.00" routeLength="134.74" waitingTime="0.00" waitingCount="0" stopTime="0.00" timeLoss="9.85" rerouteNo="0" devices="tripinfo_flow_route_53_duration_20250327_1920.10" vType="car" speedFactor="0.93" vaporized=""/>
    <tripinfo id="flow_route_52_duration_20250327_1920.1" depart="11.00" departLane="138002006#0_0" departPos="14.91" departSpeed="0.00" departDelay="2.43" arrival="45.00" arrivalLane="380351865#0_1" arrivalPos="16.33" arrivalSpeed="9.60" duration="34.00" routeLength="242.98" waitingTime="0.00" waitingCount="0" stopTime="0.00" timeLoss="10.20" rerouteNo="0" devices="tripinfo_flow_route_52_duration_20250327_1920.1" vType="car" speedFactor="0.88" vaporized=""/>
    <tripinfo id="flow_route_58_duration_20250327_1920.0" depart="0.00" departLane="186407685_0" departPos="1.07" departSpeed="0.00" departDelay="0.00" arrival="47.00" arrivalLane="-138002006#3_1" arrivalPos="43.63" arrivalSpeed="10.50" duration="47.00" routeLength="235.82" waitingTime="12.00" waitingCount="1" stopTime="0.00" timeLoss="31.75" rerouteNo="0" devices="tripinfo_flow_route_58_duration_20250327_1920.0" vType="car" speedFactor="1.08" vaporized=""/>
    <tripinfo id="flow_route_59_duration_20250327_1920.2" depart="5.00" departLane="186407685_0" departPos="157.17" departSpeed="0.00" departDelay="0.86" arrival="49.00" arrivalLane="1369578052#0_0" arrivalPos="56.60" arrivalSpeed="9.68" duration="44.00" routeLength="85.54" waitingTime="23.00" waitingCount="1" stopTime="0.00" timeLoss="37.60" rerouteNo="0" devices="tripinfo_flow_route_59_duration_20250327_1920.2" vType="car" speedFactor="1.03" vaporized=""/>
    <tripinfo id="flow_route_59_duration_20250327_1920.0" depart="0.00" departLane="186407685_0" departPos="119.17" departSpeed="0.00" departDelay="0.00" arrival="56.00" arrivalLane="1369578052#0_0" arrivalPos="108.75" arrivalSpeed="12.80" duration="56.00" routeLength="175.69" waitingTime="22.00" waitingCount="1" stopTime="0.00" timeLoss="43.84" rerouteNo="0" devices="tripinfo_flow_route_59_duration_20250327_1920.0" vType="car" speedFactor="1.03" vaporized=""/>
    <tripinfo id="flow_route_59_duration_20250327_1920.3" depart="7.00" departLane="186407685_0" departPos="28.17" departSpeed="0.00" departDelay="0.80" arrival="56.00" arrivalLane="1369578052#0_0" arrivalPos="55.62" arrivalSpeed="11.38" duration="49.00" routeLength="213.56" waitingTime="11.00" waitingCount="1" stopTime="0.00" timeLoss="34.05" rerouteNo="0" devices="tripinfo_flow_route_59_duration_20250327_1920.3" vType="car" speedFactor="0.93" vaporized=""/>
    <tripinfo id="flow_route_57_duration_20250327_1920.0" depart="0.00" departLane="186407685_0" departPos="131.94" departSpeed="0.00" departDelay="0.00" arrival="58.00" arrivalLane="380351865#0_0" arrivalPos="0.78" arrivalSpeed="11.18" duration="58.00" routeLength="205.45" waitingTime="24.00" waitingCount="1" stopTime="0.00" timeLoss="40.58" rerouteNo="0" devices="tripinfo_flow_route_57_duration_20250327_1920.0" vType="car" speedFactor="1.01" vaporized=""/>
    <tripinfo id="flow_route_57_duration_20250327_1920.1" depart="28.00" departLane="186407685_0" departPos="104.31" departSpeed="0.00" departDelay="8.00" arrival="58.00" arrivalLane="380351865#0_1" arrivalPos="9.99" arrivalSpeed="10.56" duration="30.00" routeLength="242.29" waitingTime="0.00" waitingCount="0" stopTime="0.00" timeLoss="9.71" rerouteNo="0" devices="tripinfo_flow_route_57_duration_20250327_1920.1" vType="car" speedFactor="0.97" vaporized=""/>
    <tripinfo id="flow_route_59_duration_20250327_1920.5" depart="11.00" departLane="186407685_0" departPos="15.76" departSpeed="0.00" departDelay="0.66" arrival="59.00" arrivalLane="1369578052#0_0" arrivalPos="41.13" arrivalSpeed="9.40" duration="48.00" routeLength="211.48" waitingTime="10.00" waitingCount="1" stopTime="0.00" timeLoss="34.01" rerouteNo="0" devices="tripinfo_flow_route_59_duration_20250327_1920.5" vType="car" speedFactor="1.01" vaporized=""/>
    <tripinfo id="flow_route_59_duration_20250327_1920.1" depart="3.00" departLane="186407685_0" departPos="57.01" departSpeed="0.00" departDelay="0.93" arrival="61.00" arrivalLane="1369578052#0_0" arrivalPos="161.40" arrivalSpeed="15.55" duration="58.00" routeLength="290.50" waitingTime="18.00" waitingCount="1" stopTime="0.00" timeLoss="38.37" rerouteNo="0" devices="tripinfo_flow_route_59_duration_20250327_1920.1" vType="car" speedFactor="0.94" vaporized=""/>
    <tripinfo id="flow_route_59_duration_20250327_1920.10" depart="29.00" departLane="186407685_0" departPos="101.52" departSpeed="0.00" departDelay="8.32" arrival="62.00" arrivalLane="1369578052#0_0" arrivalPos="55.80" arrivalSpeed="10.78" duration="33.00" routeLength="140.39" waitingTime="2.00" waitingCount="1" stopTime="0.00" timeLoss="24.05" rerouteNo="0" devices="tripinfo_flow_route_59_duration_20250327_1920.10" vType="car" speedFactor="1.10" vaporized=""/>
    <tripinfo id="flow_route_59_duration_20250327_1920.4" depart="9.00" departLane="186407685_0" departPos="22.91" departSpeed="0.00" departDelay="0.73" arrival="64.00" arrivalLane="1369578052#0_0" arrivalPos="126.28" arrivalSpeed="14.62" duration="55.00" routeLength="289.48" waitingTime="9.00" waitingCount="1" stopTime="0.00" timeLoss="35.81" rerouteNo="0" devices="tripinfo_flow_route_59_duration_20250327_1920.4" vType="car" speedFactor="0.94" vaporized=""/>
    <tripinfo id="flow_route_66_duration_20250327_1920.1" depart="6.00" departLane="-138002002#2_0" departPos="43.61" departSpeed="0.00" departDelay="0.00" arrival="71.00" arrivalLane="-138002006#3_0" arrivalPos="48.32" arrivalSpeed="10.67" duration="65.00" routeLength="208.11" waitingTime="30.00" waitingCount="1" stopTime="0.00" timeLoss="51.88" rerouteNo="0" devices="tripinfo_flow_route_66_duration_20250327_1920.1" vType="car" speedFactor="1.12" vaporized=""/>
    <tripinfo id="flow_route_66_duration_20250327_1920.3" depart="18.00" departLane="-138002002#2_0" departPos="125.02" departSpeed="0.00" departDelay="0.00" arrival="72.00" arrivalLane="-138002006#3_0" arrivalPos="31.24" arrivalSpeed="9.71" duration="54.00" routeLength="109.61" waitingTime="27.00" waitingCount="1" stopTime="0.00" timeLoss="46.89" rerouteNo="0" devices="tripinfo_flow_route_66_duration_20250327_1920.3" vType="car" speedFactor="1.17" vaporized=""/>
    <tripinfo id="flow_route_66_duration_20250327_1920.4" depart="27.00" departLane="-138002002#2_0" departPos="63.47" departSpeed="0.00" departDelay="3.00" arrival="72.00" arrivalLane="-138002006#3_1" arrivalPos="26.31" arrivalSpeed="9.38" duration="45.00" routeLength="166.23" waitingTime="11.00" waitingCount="1" stopTime="0.00" timeLoss="34.98" rerouteNo="0" devices="tripinfo_flow_route_66_duration_20250327_1920.4" vType="car" speedFactor="1.09" vaporized=""/>
    <tripinfo id="flow_route_66_duration_20250327_1920.2" depart="13.00" departLane="-138002002#2_0" departPos="31.02" departSpeed="0.00" departDelay="1.00" arrival="73.00" arrivalLane="-138002006#3_1" arrivalPos="63.53" arrivalSpeed="11.62" duration="60.00" routeLength="235.90" waitingTime="22.00" waitingCount="1" stopTime="0.00" timeLoss="43.95" rerouteNo="0" devices="tripinfo_flow_route_66_duration_20250327_1920.2" vType="car" speedFactor="0.89" vaporized=""/>
    <tripinfo id="flow_route_53_duration_20250327_1920.14" depart="31.00" departLane="138002006#0_0" departPos="70.83" departSpeed="0.00" departDelay="8.31" arrival="73.00" arrivalLane="1369578052#0_0" arrivalPos="84.01" arrivalSpeed="12.31" duration="42.00" routeLength="121.10" waitingTime="18.00" waitingCount="1" stopTime="0.00" timeLoss="34.49" rerouteNo="0" devices="tripinfo_flow_route_53_duration_20250327_1920.14" vType="car" speedFactor="1.03" vaporized=""/>
    <tripinfo id="flow_route_66_duration_20250327_1920.6" depart="39.00" departLane="-138002002#2_0" departPos="85.81" departSpeed="0.00" departDelay="3.00" arrival="76.00" arrivalLane="-138002006#3_1" arrivalPos="13.61" arrivalSpeed="9.49" duration="37.00" routeLength="131.19" waitingTime="6.00" waitingCount="1" stopTime="0.00" timeLoss="28.54" rerouteNo="0" devices="tripinfo_flow_route_66_duration_20250327_1920.6" vType="car" speedFactor="0.94" vaporized=""/>
    <tripinfo id="flow_route_53_duration_20250327_1920.13" depart="31.00" departLane="138002006#0_0" departPos="30.70" departSpeed="0.00" departDelay="9.93" arrival="77.00" arrivalLane="1369578052#0_0" arrivalPos="90.82" arrivalSpeed="13.80" duration="46.00" routeLength="168.04" waitingTime="14.00" waitingCount="1" stopTime="0.00" timeLoss="34.76" rerouteNo="0" devices="tripinfo_flow_route_53_duration_20250327_1920.13" vType="car" speedFactor="0.90" vaporized=""/>
    <tripinfo id="flow_route_66_duration_20250327_1920.5" depart="30.00" departLane="-138002002#2_0" departPos="88.92" departSpeed="0.00" departDelay="0.00" arrival="77.00" arrivalLane="-138002006#3_1" arrivalPos="48.76" arrivalSpeed="11.89" duration="47.00" routeLength="163.23" waitingTime="10.00" waitingCount="2" stopTime="0.00" timeLoss="37.13" rerouteNo="0" devices="tripinfo_flow_route_66_duration_20250327_1920.5" vType="car" speedFactor="1.10" vaporized=""/>
    <tripinfo id="flow_route_67_duration_20250327_1920.1" depart="5.00" departLane="-138002002#2_0" departPos="73.05" departSpeed="0.00" departDelay="0.00" arrival="79.00" arrivalLane="380351865#0_0" arrivalPos="10.81" arrivalSpeed="11.16" duration="74.00" routeLength="270.81" waitingTime="33.00" waitingCount="1" stopTime="0.00" timeLoss="53.15" rerouteNo="0" devices="tripinfo_flow_route_67_duration_20250327_1920.1" vType="car" speedFactor="1.05" vaporized=""/>
    <tripinfo id="flow_route_53_duration_20250327_1920.19" depart="49.00" departLane="138002006#0_0" departPos="18.79" departSpeed="0.00" departDelay="18.20" arrival="79.00" arrivalLane="1369578052#0_0" arrivalPos="30.88" arrivalSpeed="11.17" duration="30.00" routeLength="120.00" waitingTime="3.00" waitingCount="1" stopTime="0.00" timeLoss="22.25" rerouteNo="0" devices="tripinfo_flow_route_53_duration_20250327_1920.19" vType="car" speedFactor="1.00" vaporized=""/>
    <tripinfo id="flow_route_53_duration_20250327_1920.16" depart="36.00" departLane="138002006#0_0" departPos="64.19" departSpeed="0.00" departDelay="10.06" arrival="81.00" arrivalLane="1369578052#0_0" arrivalPos="162.58" arrivalSpeed="14.71" duration="45.00" routeLength="206.31" waitingTime="15.00" waitingCount="1" stopTime="0.00" timeLoss="30.51" rerouteNo="0" devices="tripinfo_flow_route_53_duration_20250327_1920.16" vType="car" speedFactor="0.90" vaporized=""/>
    <tripinfo id="flow_route_53_duration_20250327_1920.23" depart="62.00" departLane="138002006#0_0" departPos="28.54" departSpeed="0.00" departDelay="24.72" arrival="81.00" arrivalLane="1369578052#0_0" arrivalPos="21.14" arrivalSpeed="11.58" duration="19.00" routeLength="100.51" waitingTime="0.00" waitingCount="0" stopTime="0.00" timeLoss="12.10" rerouteNo="0" devices="tripinfo_flow_route_53_duration_20250327_1920.23" vType="car" speedFactor="0.88" vaporized=""/>
    <tripinfo id="flow_route_53_duration_20250327_1920.15" depart="32.00" departLane="138002006#0_0" departPos="1.04" departSpeed="0.00" departDelay="7.69" arrival="82.00" arrivalLane="1369578052#0_0" arrivalPos="121.99" arrivalSpeed="15.70" duration="50.00" routeLength="228.88" waitingTime="13.00" waitingCount="1" stopTime="0.00" timeLoss="35.57" rerouteNo="0" devices="tripinfo_flow_route_53_duration_20250327_1920.15" vType="car" speedFactor="1.04" vaporized=""/>
    <tripinfo id="flow_route_67_duration_20250327_1920.2" depart="13.00" departLane="-138002002#2_0" departPos="90.74" departSpeed="0.00" departDelay="3.00" arrival="83.00" arrivalLane="380351865#0_0" arrivalPos="7.02" arrivalSpeed="11.23" duration="70.00" routeLength="249.33" waitingTime="26.00" waitingCount="1" stopTime="0.00" timeLoss="49.84" rerouteNo="0" devices="tripinfo_flow_route_67_duration_20250327_1920.2" vType="car" speedFactor="1.02" vaporized=""/>
    <tripinfo id="flow_route_66_duration_20250327_1920.7" depart="46.00" departLane="-138002002#2_0" departPos="34.63" departSpeed="0.00" departDelay="4.00" arrival="83.00" arrivalLane="-138002006#3_1" arrivalPos="65.79" arrivalSpeed="13.74" duration="37.00" routeLength="234.55" waitingTime="0.00" waitingCount="0" stopTime="0.00" timeLoss="22.14" rerouteNo="0" devices="tripinfo_flow_route_66_duration_20250327_1920.7" vType="car" speedFactor="1.06" vaporized=""/>
    <tripinfo id="flow_route_67_duration_20250327_1920.3" depart="15.00" departLane="-138002002#2_0" departPos="57.82" departSpeed="0.00" departDelay="0.00" arrival="85.00" arrivalLane="380351865#0_0" arrivalPos="9.33" arrivalSpeed="12.49" duration="70.00" routeLength="284.57" waitingTime="25.00" waitingCount="1" stopTime="0.00" timeLoss="48.83" rerouteNo="0" devices="tripinfo_flow_route_67_duration_20250327_1920.3" vType="car" speedFactor="1.13" vaporized=""/>
    <tripinfo id="flow_route_66_duration_20250327_1920.8" depart="49.00" departLane="-138002002#2_0" departPos="5.80" departSpeed="0.00" departDelay="1.00" arrival="85.00" arrivalLane="-138002006#3_1" arrivalPos="73.53" arrivalSpeed="14.52" duration="36.00" routeLength="271.12" waitingTime="0.00" waitingCount="0" stopTime="0.00" timeLoss="18.52" rerouteNo="0" devices="tripinfo_flow_route_66_duration_20250327_1920.8" vType="car" speedFactor="0.97" vaporized=""/>
    <tripinfo id="flow_route_67_duration_20250327_1920.5" depart="29.00" departLane="-138002002#2_0" departPos="118.10" departSpeed="0.00" departDelay="4.00" arrival="86.00" arrivalLane="380351865#0_0" arrivalPos="4.80" arrivalSpeed="11.62" duration="57.00" routeLength="219.75" waitingTime="21.00" waitingCount="1" stopTime="0.00" timeLoss="39.93" rerouteNo="0" devices="tripinfo_flow_route_67_duration_20250327_1920.5" vType="car" speedFactor="1.09" vaporized=""/>
    <tripinfo id="flow_route_53_duration_20250327_1920.18" depart="43.00" departLane="138002006#0_0" departPos="38.20" departSpeed="0.00" departDelay="13.82" arrival="86.00" arrivalLane="1369578052#0_0" arrivalPos="151.35" arrivalSpeed="16.40" duration="43.00" routeLength="221.08" waitingTime="10.00" waitingCount="1" stopTime="0.00" timeLoss="28.78" rerouteNo="0" devices="tripinfo_flow_route_53_duration_20250327_1920.18" vType="car" speedFactor="1.17" vaporized=""/>
    <tripinfo id="flow_route_67_duration_20250327_1920.4" depart="20.00" departLane="-138002002#2_0" departPos="4.39" departSpeed="0.00" departDelay="0.00" arrival="88.00" arrivalLane="380351865#0_0" arrivalPos="7.12" arrivalSpeed="12.90" duration="68.00" routeLength="335.78" waitingTime="14.00" waitingCount="1" stopTime="0.00" timeLoss="44.69" rerouteNo="0" devices="tripinfo_flow_route_67_duration_20250327_1920.4" vType="car" speedFactor="1.18" vaporized=""/>
    <tripinfo id="flow_route_53_duration_20250327_1920.20" depart="49.00" departLane="138002006#0_0" departPos="4.35" departSpeed="0.00" departDelay="16.58" arrival="90.00" arrivalLane="1369578052#0_0" arrivalPos="167.58" arrivalSpeed="16.13" duration="41.00" routeLength="271.16" waitingTime="3.00" waitingCount="1" stopTime="0.00" timeLoss="23.86" rerouteNo="0" devices="tripinfo_flow_route_53_duration_20250327_1920.20" vType="car" speedFactor="1.14" vaporized=""/>
    <tripinfo id="flow_route_53_duration_20250327_1920.25" depart="65.00" departLane="138002006#0_0" departPos="22.14" departSpeed="0.00" departDelay="24.48" arrival="92.00" arrivalLane="1369578052#0_0" arrivalPos="146.18" arrivalSpeed="15.91" duration="27.00" routeLength="231.95" waitingTime="0.00" waitingCount="0" stopTime="0.00" timeLoss="11.80" rerouteNo="0" devices="tripinfo_flow_route_53_duration_20250327_1920.25" vType="car" speedFactor="0.97" vaporized=""/>
    <tripinfo id="flow_route_67_duration_20250327_1920.8" depart="40.00" departLane="-138002002#2_0" departPos="104.74" departSpeed="0.00" departDelay="0.00" arrival="93.00" arrivalLane="380351865#0_0" arrivalPos="16.06" arrivalSpeed="10.91" duration="53.00" routeLength="244.37" waitingTime="13.00" waitingCount="1" stopTime="0.00" timeLoss="32.61" rerouteNo="0" devices="tripinfo_flow_route_67_duration_20250327_1920.8" vType="car" speedFactor="1.02" vaporized=""/>
    <tripinfo id="flow_route_52_duration_20250327_1920.2" depart="24.00" departLane="138002006#0_0" departPos="30.44" departSpeed="0.00" departDelay="6.86" arrival="100.00" arrivalLane="380351865#0_1" arrivalPos="1.37" arrivalSpeed="12.71" duration="76.00" routeLength="212.49" waitingTime="38.00" waitingCount="2" stopTime="0.00" timeLoss="59.01" rerouteNo="0" devices="tripinfo_flow_route_52_duration_20250327_1920.2" vType="car" speedFactor="1.15" vaporized=""/>
    <tripinfo id="flow_route_53_duration_20250327_1920.11" depart="26.00" departLane="138002006#0_0" departPos="32.99" departSpeed="0.00" departDelay="8.17" arrival="100.00" arrivalLane="1369578052#0_0" arrivalPos="133.06" arrivalSpeed="15.32" duration="74.00" routeLength="208.00" waitingTime="36.00" waitingCount="2" stopTime="0.00" timeLoss="61.38" rerouteNo="0" devices="tripinfo_flow_route_53_duration_20250327_1920.11" vType="car" speedFactor="1.01" vaporized=""/>
    <tripinfo id="flow_route_53_duration_20250327_1920.12" depart="26.00" departLane="138002006#0_0" departPos="3.78" departSpeed="0.00" departDelay="6.55" arrival="103.00" arrivalLane="1369578052#0_1" arrivalPos="152.17" arrivalSpeed="16.14" duration="77.00" routeLength="256.31" waitingTime="34.00" waitingCount="2" stopTime="0.00" timeLoss="60.87" rerouteNo="0" devices="tripinfo_flow_route_53_duration_20250327_1920.12" vType="car" speedFactor="1.02" vaporized=""/>
    <tripinfo id="flow_route_53_duration_20250327_1920.26" depart="71.00" departLane="138002006#0_0" departPos="24.35" departSpeed="0.00" departDelay="28.85" arrival="103.00" arrivalLane="1369578052#0_0" arrivalPos="108.47" arrivalSpeed="14.84" duration="32.00" routeLength="192.04" waitingTime="0.00" waitingCount="0" stopTime="0.00" timeLoss="19.64" rerouteNo="0" devices="tripinfo_flow_route_53_duration_20250327_1920.26" vType="car" speedFactor="0.98" vaporized=""/>
    <tripinfo id="flow_route_52_duration_20250327_1920.3" depart="36.00" departLane="138002006#0_0" departPos="28.71" departSpeed="0.00" departDelay="10.29" arrival="105.00" arrivalLane="380351865#0_1" arrivalPos="2.41" arrivalSpeed="10.89" duration="69.00" routeLength="215.26" waitingTime="29.00" waitingCount="2" stopTime="0.00" timeLoss="50.15" rerouteNo="0" devices="tripinfo_flow_route_52_duration_20250327_1920.3" vType="car" speedFactor="1.00" vaporized=""/>
    <tripinfo id="flow_route_53_duration_20250327_1920.28" depart="75.00" departLane="138002006#0_0" departPos="47.10" departSpeed="0.00" departDelay="29.61" arrival="105.00" arrivalLane="1369578052#0_0" arrivalPos="173.65" arrivalSpeed="16.57" duration="30.00" routeLength="234.48" waitingTime="0.00" waitingCount="0" stopTime="0.00" timeLoss="15.66" rerouteNo="0" devices="tripinfo_flow_route_53_duration_20250327_1920.28" vType="car" speedFactor="1.09" vaporized=""/>
    <tripinfo id="flow_route_59_duration_20250327_1920.8" depart="24.00" departLane="186407685_0" departPos="72.79" departSpeed="0.00" departDelay="7.46" arrival="107.00" arrivalLane="1369578052#0_0" arrivalPos="38.19" arrivalSpeed="8.96" duration="83.00" routeLength="151.51" waitingTime="36.00" waitingCount="2" stopTime="0.00" timeLoss="72.82" rerouteNo="0" devices="tripinfo_flow_route_59_duration_20250327_1920.8" vType="car" speedFactor="1.18" vaporized=""/>
    <tripinfo id="flow_route_59_duration_20250327_1920.9" depart="26.00" departLane="186407685_0" departPos="85.00" departSpeed="0.00" departDelay="7.39" arrival="109.00" arrivalLane="1369578052#0_0" arrivalPos="78.01" arrivalSpeed="11.22" duration="83.00" routeLength="179.12" waitingTime="37.00" waitingCount="2" stopTime="0.00" timeLoss="71.04" rerouteNo="0" devices="tripinfo_flow_route_59_duration_20250327_1920.9" vType="car" speedFactor="0.99" vaporized=""/>
    <tripinfo id="flow_route_58_duration_20250327_1920.1" depart="46.00" departLane="186407685_0" departPos="39.30" departSpeed="0.00" departDelay="16.00" arrival="110.00" arrivalLane="-138002006#3_1" arrivalPos="83.88" arrivalSpeed="12.94" duration="64.00" routeLength="237.84" waitingTime="27.00" waitingCount="1" stopTime="0.00" timeLoss="48.17" rerouteNo="0" devices="tripinfo_flow_route_58_duration_20250327_1920.1" vType="car" speedFactor="1.02" vaporized=""/>
    <tripinfo id="flow_route_59_duration_20250327_1920.7" depart="21.00" departLane="186407685_0" departPos="18.54" departSpeed="0.00" departDelay="6.52" arrival="113.00" arrivalLane="1369578052#0_0" arrivalPos="51.40" arrivalSpeed="10.60" duration="92.00" routeLength="218.97" waitingTime="33.00" waitingCount="1" stopTime="0.00" timeLoss="77.59" rerouteNo="0" devices="tripinfo_flow_route_59_duration_20250327_1920.7" vType="car" speedFactor="0.95" vaporized=""/>
    <tripinfo id="flow_route_57_duration_20250327_1920.2" depart="61.00" departLane="186407685_0" departPos="75.74" departSpeed="0.00" departDelay="21.00" arrival="115.00" arrivalLane="380351865#0_1" arrivalPos="3.25" arrivalSpeed="11.55" duration="54.00" routeLength="264.12" waitingTime="15.00" waitingCount="1" stopTime="0.00" timeLoss="34.23" rerouteNo="0" devices="tripinfo_flow_route_57_duration_20250327_1920.2" vType="car" speedFactor="1.04" vaporized=""/>
    <tripinfo id="flow_route_59_duration_20250327_1920.6" depart="15.00" departLane="186407685_0" departPos="11.86" departSpeed="0.00" departDelay="2.59" arrival="120.00" arrivalLane="1369578052#0_0" arrivalPos="176.95" arrivalSpeed="14.11" duration="105.00" routeLength="351.20" waitingTime="36.00" waitingCount="2" stopTime="0.00" timeLoss="80.88" rerouteNo="0" devices="tripinfo_flow_route_59_duration_20250327_1920.6" vType="car" speedFactor="0.87" vaporized=""/>
    <tripinfo id="flow_route_59_duration_20250327_1920.13" depart="41.00" departLane="186407685_0" departPos="71.42" departSpeed="0.00" departDelay="14.12" arrival="124.00" arrivalLane="1369578052#0_0" arrivalPos="155.85" arrivalSpeed="14.38" duration="83.00" routeLength="270.54" waitingTime="32.00" waitingCount="1" stopTime="0.00" timeLoss="64.29" rerouteNo="0" devices="tripinfo_flow_route_59_duration_20250327_1920.13" vType="car" speedFactor="0.88" vaporized=""/>
    <tripinfo id="flow_route_59_duration_20250327_1920.12" depart="38.00" departLane="186407685_0" departPos="40.01" departSpeed="0.00" departDelay="13.18" arrival="125.00" arrivalLane="1369578052#0_0" arrivalPos="143.96" arrivalSpeed="15.63" duration="87.00" routeLength="290.06" waitingTime="32.00" waitingCount="1" stopTime="0.00" timeLoss="67.79" rerouteNo="0" devices="tripinfo_flow_route_59_duration_20250327_1920.12" vType="car" speedFactor="1.04" vaporized=""/>