<?xml version="1.0" encoding="UTF-8"?>

<!-- generated on 2025-05-06 21:08:43 by Eclipse SUMO sumo Version 1.20.0
<configuration xmlns:xsi="http://www.w3.org/2001/XMLSchema-instance" xsi:noNamespaceSchemaLocation="http://sumo.dlr.de/xsd/sumoConfiguration.xsd">

    <input>
        <net-file value="osm.net.xml"/>
        <route-files value="xml/route_rl_cluster7571105647_7571105653_cluster_1141265322_11869698130_256036890_4227138136_#4more_6.rou.xml"/>
    </input>

    <output>
        <tripinfo-output value="xml/tripinfo_rl_cluster7571105647_7571105653_cluster_1141265322_11869698130_256036890_4227138136_#4more_6.xml"/>
    </output>

    <traci_server>
        <remote-port value="57371"/>
    </traci_server>

</configuration>
-->

<tripinfos xmlns:xsi="http://www.w3.org/2001/XMLSchema-instance" xsi:noNamespaceSchemaLocation="http://sumo.dlr.de/xsd/tripinfo_file.xsd">
    <tripinfo id="flow_route_143_duration_20250327_2210.0" depart="0.00" departLane="1253222187#0_0" departPos="157.10" departSpeed="0.00" departDelay="0.00" arrival="28.00" arrivalLane="1310781056_0" arrivalPos="55.73" arrivalSpeed="16.37" duration="28.00" routeLength="267.13" waitingTime="0.00" waitingCount="0" stopTime="0.00" timeLoss="11.65" rerouteNo="0" devices="tripinfo_flow_route_143_duration_20250327_2210.0" vType="car" speedFactor="1.08" vaporized=""/>
    <tripinfo id="flow_route_143_duration_20250327_2210.1" depart="20.00" departLane="1253222187#0_0" departPos="133.56" departSpeed="0.00" departDelay="0.00" arrival="46.00" arrivalLane="1310781056_0" arrivalPos="5.24" arrivalSpeed="16.49" duration="26.00" routeLength="240.18" waitingTime="0.00" waitingCount="0" stopTime="0.00" timeLoss="11.15" rerouteNo="0" devices="tripinfo_flow_route_143_duration_20250327_2210.1" vType="car" speedFactor="0.94" vaporized=""/>
    <tripinfo id="flow_route_142_duration_20250327_2210.0" depart="0.00" departLane="1253222187#0_0" departPos="114.97" departSpeed="0.00" departDelay="0.00" arrival="53.00" arrivalLane="683079388#0_0" arrivalPos="1.17" arrivalSpeed="16.33" duration="53.00" routeLength="684.52" waitingTime="0.00" waitingCount="0" stopTime="0.00" timeLoss="11.35" rerouteNo="0" devices="tripinfo_flow_route_142_duration_20250327_2210.0" vType="car" speedFactor="1.01" vaporized=""/>
    <tripinfo id="flow_route_140_duration_20250327_2210.0" depart="0.00" departLane="809719540#0_0" departPos="199.64" departSpeed="0.00" departDelay="0.00" arrival="62.00" arrivalLane="-809772643#1_0" arrivalPos="184.22" arrivalSpeed="16.37" duration="62.00" routeLength="292.04" waitingTime="23.00" waitingCount="1" stopTime="0.00" timeLoss="43.77" rerouteNo="0" devices="tripinfo_flow_route_140_duration_20250327_2210.0" vType="car" speedFactor="1.06" vaporized=""/>
    <tripinfo id="flow_route_141_duration_20250327_2210.2" depart="30.00" departLane="809719540#0_0" departPos="238.42" departSpeed="0.00" departDelay="0.00" arrival="84.00" arrivalLane="683079387#1_1" arrivalPos="8.42" arrivalSpeed="7.38" duration="54.00" routeLength="665.56" waitingTime="0.00" waitingCount="0" stopTime="0.00" timeLoss="12.08" rerouteNo="0" devices="tripinfo_flow_route_141_duration_20250327_2210.2" vType="car" speedFactor="1.09" vaporized=""/>
    <tripinfo id="flow_route_141_duration_20250327_2210.0" depart="0.00" departLane="809719540#0_0" departPos="66.48" departSpeed="0.00" departDelay="0.00" arrival="92.00" arrivalLane="683079387#1_1" arrivalPos="7.27" arrivalSpeed="6.29" duration="92.00" routeLength="843.38" waitingTime="13.00" waitingCount="1" stopTime="0.00" timeLoss="35.42" rerouteNo="0" devices="tripinfo_flow_route_141_duration_20250327_2210.0" vType="car" speedFactor="0.94" vaporized=""/>
    <tripinfo id="flow_route_146_duration_20250327_2210.2" depart="40.00" departLane="683079387#1_0" departPos="7.81" departSpeed="0.00" departDelay="0.00" arrival="92.00" arrivalLane="-809772643#1_0" arrivalPos="48.94" arrivalSpeed="13.90" duration="52.00" routeLength="654.11" waitingTime="0.00" waitingCount="0" stopTime="0.00" timeLoss="12.45" rerouteNo="0" devices="tripinfo_flow_route_146_duration_20250327_2210.2" vType="car" speedFactor="1.12" vaporized=""/>
    <tripinfo id="flow_route_147_duration_20250327_2210.0" depart="5.00" departLane="683079387#1_0" departPos="0.62" departSpeed="0.00" departDelay="5.00" arrival="95.00" arrivalLane="1310781056_0" arrivalPos="4.95" arrivalSpeed="14.42" duration="90.00" routeLength="684.16" waitingTime="20.00" waitingCount="1" stopTime="0.00" timeLoss="40.03" rerouteNo="0" devices="tripinfo_flow_route_147_duration_20250327_2210.0" vType="car" speedFactor="0.83" vaporized=""/>
    <tripinfo id="flow_route_141_duration_20250327_2210.1" depart="15.00" departLane="809719540#0_0" departPos="86.48" departSpeed="0.00" departDelay="0.00" arrival="95.00" arrivalLane="683079387#1_1" arrivalPos="8.94" arrivalSpeed="7.05" duration="80.00" routeLength="818.02" waitingTime="1.00" waitingCount="1" stopTime="0.00" timeLoss="27.60" rerouteNo="0" devices="tripinfo_flow_route_141_duration_20250327_2210.1" vType="car" speedFactor="1.05" vaporized=""/>
    <tripinfo id="flow_route_146_duration_20250327_2210.1" depart="20.00" departLane="683079387#1_0" departPos="9.59" departSpeed="0.00" departDelay="0.00" arrival="95.00" arrivalLane="-809772643#1_1" arrivalPos="106.06" arrivalSpeed="14.09" duration="75.00" routeLength="709.44" waitingTime="3.00" waitingCount="1" stopTime="0.00" timeLoss="24.65" rerouteNo="0" devices="tripinfo_flow_route_146_duration_20250327_2210.1" vType="car" speedFactor="0.86" vaporized=""/>
    <tripinfo id="flow_route_146_duration_20250327_2210.0" depart="0.00" departLane="683079387#1_0" departPos="0.06" departSpeed="0.00" departDelay="0.00" arrival="96.00" arrivalLane="-809772643#1_0" arrivalPos="121.98" arrivalSpeed="16.23" duration="96.00" routeLength="734.89" waitingTime="28.00" waitingCount="1" stopTime="0.00" timeLoss="50.82" rerouteNo="0" devices="tripinfo_flow_route_146_duration_20250327_2210.0" vType="car" speedFactor="1.03" vaporized=""/>
    <tripinfo id="flow_route_141_duration_20250327_2210.3" depart="45.00" departLane="809719540#0_0" departPos="256.94" departSpeed="0.00" departDelay="0.00" arrival="99.00" arrivalLane="683079387#1_1" arrivalPos="1.62" arrivalSpeed="5.86" duration="54.00" routeLength="647.26" waitingTime="0.00" waitingCount="0" stopTime="0.00" timeLoss="11.90" rerouteNo="0" devices="tripinfo_flow_route_141_duration_20250327_2210.3" vType="car" speedFactor="0.99" vaporized=""/>
    <tripinfo id="flow_route_143_duration_20250327_2210.2" depart="40.00" departLane="1253222187#0_0" departPos="63.62" departSpeed="0.00" departDelay="0.00" arrival="111.00" arrivalLane="1310781056_0" arrivalPos="61.73" arrivalSpeed="16.59" duration="71.00" routeLength="366.60" waitingTime="23.00" waitingCount="2" stopTime="0.00" timeLoss="48.47" rerouteNo="0" devices="tripinfo_flow_route_143_duration_20250327_2210.2" vType="car" speedFactor="1.05" vaporized=""/>
    <tripinfo id="flow_route_142_duration_20250327_2210.2" depart="40.00" departLane="1253222187#0_0" departPos="6.83" departSpeed="0.00" departDelay="0.00" arrival="122.00" arrivalLane="683079388#0_0" arrivalPos="10.24" arrivalSpeed="16.14" duration="82.00" routeLength="801.71" waitingTime="8.00" waitingCount="1" stopTime="0.00" timeLoss="33.10" rerouteNo="0" devices="tripinfo_flow_route_142_duration_20250327_2210.2" vType="car" speedFactor="1.03" vaporized=""/>
    <tripinfo id="flow_route_142_duration_20250327_2210.1" depart="20.00" departLane="1253222187#0_0" departPos="64.74" departSpeed="0.00" departDelay="0.00" arrival="125.00" arrivalLane="683079388#0_0" arrivalPos="17.65" arrivalSpeed="14.56" duration="105.00" routeLength="751.22" waitingTime="34.00" waitingCount="1" stopTime="0.00" timeLoss="54.13" rerouteNo="0" devices="tripinfo_flow_route_142_duration_20250327_2210.1" vType="car" speedFactor="0.89" vaporized=""/>
</tripinfos>
