<?xml version="1.0" encoding="UTF-8"?>

<!-- generated on 2025-05-06 21:08:34 by Eclipse SUMO sumo Version 1.20.0
<configuration xmlns:xsi="http://www.w3.org/2001/XMLSchema-instance" xsi:noNamespaceSchemaLocation="http://sumo.dlr.de/xsd/sumoConfiguration.xsd">

    <input>
        <net-file value="osm.net.xml"/>
        <route-files value="xml/route_rl_cluster3828547534_cluster_1507433914_2954854770_2954854771_2954854772_#9more_5.rou.xml"/>
    </input>

    <output>
        <tripinfo-output value="xml/tripinfo_rl_cluster3828547534_cluster_1507433914_2954854770_2954854771_2954854772_#9more_5.xml"/>
    </output>

    <traci_server>
        <remote-port value="57573"/>
    </traci_server>

</configuration>
-->

<tripinfos xmlns:xsi="http://www.w3.org/2001/XMLSchema-instance" xsi:noNamespaceSchemaLocation="http://sumo.dlr.de/xsd/tripinfo_file.xsd">
    <tripinfo id="flow_route_6_duration_20250327_1930.0" depart="0.00" departLane="1252820505#0_0" departPos="39.30" departSpeed="0.00" departDelay="0.00" arrival="18.00" arrivalLane="379698350#0_0" arrivalPos="9.38" arrivalSpeed="13.65" duration="18.00" routeLength="129.45" waitingTime="0.00" waitingCount="0" stopTime="0.00" timeLoss="10.03" rerouteNo="0" devices="tripinfo_flow_route_6_duration_20250327_1930.0" vType="car" speedFactor="1.01" vaporized=""/>
    <tripinfo id="flow_route_11_duration_20250327_1930.0" depart="0.00" departLane="1252820505#0_0" departPos="76.11" departSpeed="0.00" departDelay="0.00" arrival="21.00" arrivalLane="137406408#0_2" arrivalPos="68.60" arrivalSpeed="14.85" duration="21.00" routeLength="154.08" waitingTime="0.00" waitingCount="0" stopTime="0.00" timeLoss="11.20" rerouteNo="0" devices="tripinfo_flow_route_11_duration_20250327_1930.0" vType="car" speedFactor="1.05" vaporized=""/>
    <tripinfo id="flow_route_22_duration_20250327_1930.0" depart="0.00" departLane="137415945#0_0" departPos="8.70" departSpeed="0.00" departDelay="0.00" arrival="25.00" arrivalLane="1342054204_0" arrivalPos="47.56" arrivalSpeed="15.23" duration="25.00" routeLength="232.19" waitingTime="0.00" waitingCount="0" stopTime="0.00" timeLoss="9.49" rerouteNo="0" devices="tripinfo_flow_route_22_duration_20250327_1930.0" vType="car" speedFactor="0.94" vaporized=""/>
    <tripinfo id="flow_route_24_duration_20250327_1930.0" depart="4.00" departLane="137415945#0_0" departPos="6.93" departSpeed="0.00" departDelay="4.00" arrival="25.00" arrivalLane="137406408#0_0" arrivalPos="0.56" arrivalSpeed="15.80" duration="21.00" routeLength="162.63" waitingTime="0.00" waitingCount="0" stopTime="0.00" timeLoss="10.26" rerouteNo="0" devices="tripinfo_flow_route_24_duration_20250327_1930.0" vType="car" speedFactor="1.09" vaporized=""/>
    <tripinfo id="flow_route_10_duration_20250327_1930.0" depart="0.00" departLane="1252820505#0_0" departPos="5.24" departSpeed="0.00" departDelay="0.00" arrival="27.00" arrivalLane="1235147073.116_0" arrivalPos="0.67" arrivalSpeed="13.39" duration="27.00" routeLength="263.17" waitingTime="0.00" waitingCount="0" stopTime="0.00" timeLoss="7.96" rerouteNo="0" devices="tripinfo_flow_route_10_duration_20250327_1930.0" vType="car" speedFactor="0.83" vaporized=""/>
    <tripinfo id="flow_route_22_duration_20250327_1930.1" depart="8.00" departLane="137415945#0_0" departPos="2.14" departSpeed="0.00" departDelay="6.33" arrival="34.00" arrivalLane="1342054204_0" arrivalPos="55.26" arrivalSpeed="16.25" duration="26.00" routeLength="246.45" waitingTime="0.00" waitingCount="0" stopTime="0.00" timeLoss="10.45" rerouteNo="0" devices="tripinfo_flow_route_22_duration_20250327_1930.1" vType="car" speedFactor="1.03" vaporized=""/>
    <tripinfo id="flow_route_6_duration_20250327_1930.1" depart="12.00" departLane="1252820505#0_0" departPos="5.82" departSpeed="0.00" departDelay="0.00" arrival="34.00" arrivalLane="379698350#0_0" arrivalPos="5.74" arrivalSpeed="13.88" duration="22.00" routeLength="159.29" waitingTime="0.00" waitingCount="0" stopTime="0.00" timeLoss="11.76" rerouteNo="0" devices="tripinfo_flow_route_6_duration_20250327_1930.1" vType="car" speedFactor="0.95" vaporized=""/>
    <tripinfo id="flow_route_10_duration_20250327_1930.1" depart="8.00" departLane="1252820505#0_0" departPos="20.98" departSpeed="0.00" departDelay="0.50" arrival="37.00" arrivalLane="1235147073.116_2" arrivalPos="3.42" arrivalSpeed="16.18" duration="29.00" routeLength="250.17" waitingTime="0.00" waitingCount="0" stopTime="0.00" timeLoss="13.21" rerouteNo="0" devices="tripinfo_flow_route_10_duration_20250327_1930.1" vType="car" speedFactor="1.16" vaporized=""/>
    <tripinfo id="flow_route_8_duration_20250327_1930.3" depart="11.00" departLane="133000078#0_0" departPos="132.49" departSpeed="0.00" departDelay="1.00" arrival="38.00" arrivalLane="1235147073.116_0" arrivalPos="10.59" arrivalSpeed="14.70" duration="27.00" routeLength="238.28" waitingTime="0.00" waitingCount="0" stopTime="0.00" timeLoss="9.71" rerouteNo="0" devices="tripinfo_flow_route_8_duration_20250327_1930.3" vType="car" speedFactor="0.89" vaporized=""/>
    <tripinfo id="flow_route_22_duration_20250327_1930.2" depart="14.00" departLane="137415945#0_0" departPos="7.22" departSpeed="0.00" departDelay="10.67" arrival="39.00" arrivalLane="1342054204_0" arrivalPos="34.59" arrivalSpeed="16.49" duration="25.00" routeLength="220.70" waitingTime="0.00" waitingCount="0" stopTime="0.00" timeLoss="11.02" rerouteNo="0" devices="tripinfo_flow_route_22_duration_20250327_1930.2" vType="car" speedFactor="1.12" vaporized=""/>
    <tripinfo id="flow_route_10_duration_20250327_1930.2" depart="15.00" departLane="1252820505#0_0" departPos="58.99" departSpeed="0.00" departDelay="0.00" arrival="41.00" arrivalLane="1235147073.116_0" arrivalPos="11.05" arrivalSpeed="16.17" duration="26.00" routeLength="219.80" waitingTime="0.00" waitingCount="0" stopTime="0.00" timeLoss="12.13" rerouteNo="0" devices="tripinfo_flow_route_10_duration_20250327_1930.2" vType="car" speedFactor="0.99" vaporized=""/>
    <tripinfo id="flow_route_8_duration_20250327_1930.0" depart="0.00" departLane="133000078#0_0" departPos="54.62" departSpeed="0.00" departDelay="0.00" arrival="50.00" arrivalLane="1235147073.116_0" arrivalPos="9.03" arrivalSpeed="16.11" duration="50.00" routeLength="314.60" waitingTime="2.00" waitingCount="1" stopTime="0.00" timeLoss="29.59" rerouteNo="0" devices="tripinfo_flow_route_8_duration_20250327_1930.0" vType="car" speedFactor="1.03" vaporized=""/>
    <tripinfo id="flow_route_8_duration_20250327_1930.8" depart="27.00" departLane="133000078#0_0" departPos="195.08" departSpeed="0.00" departDelay="0.34" arrival="51.00" arrivalLane="1235147073.116_0" arrivalPos="1.58" arrivalSpeed="14.84" duration="24.00" routeLength="166.68" waitingTime="0.00" waitingCount="0" stopTime="0.00" timeLoss="11.47" rerouteNo="0" devices="tripinfo_flow_route_8_duration_20250327_1930.8" vType="car" speedFactor="0.90" vaporized=""/>
    <tripinfo id="flow_route_11_duration_20250327_1930.2" depart="18.00" departLane="1252820505#0_0" departPos="76.10" departSpeed="0.00" departDelay="0.86" arrival="52.00" arrivalLane="137406408#0_2" arrivalPos="33.71" arrivalSpeed="10.20" duration="34.00" routeLength="119.18" waitingTime="3.00" waitingCount="2" stopTime="0.00" timeLoss="26.51" rerouteNo="0" devices="tripinfo_flow_route_11_duration_20250327_1930.2" vType="car" speedFactor="1.10" vaporized=""/>
    <tripinfo id="flow_route_10_duration_20250327_1930.3" depart="23.00" departLane="1252820505#0_0" departPos="12.27" departSpeed="0.00" departDelay="0.50" arrival="53.00" arrivalLane="1235147073.116_0" arrivalPos="10.90" arrivalSpeed="14.39" duration="30.00" routeLength="266.37" waitingTime="0.00" waitingCount="0" stopTime="0.00" timeLoss="11.61" rerouteNo="0" devices="tripinfo_flow_route_10_duration_20250327_1930.3" vType="car" speedFactor="0.88" vaporized=""/>
    <tripinfo id="flow_route_11_duration_20250327_1930.1" depart="11.00" departLane="1252820505#0_0" departPos="15.94" departSpeed="0.00" departDelay="2.43" arrival="54.00" arrivalLane="137406408#0_2" arrivalPos="74.92" arrivalSpeed="13.47" duration="43.00" routeLength="220.56" waitingTime="6.00" waitingCount="1" stopTime="0.00" timeLoss="28.93" rerouteNo="0" devices="tripinfo_flow_route_11_duration_20250327_1930.1" vType="car" speedFactor="1.02" vaporized=""/>
    <tripinfo id="flow_route_11_duration_20250327_1930.3" depart="26.00" departLane="1252820505#0_0" departPos="49.83" departSpeed="0.00" departDelay="0.29" arrival="54.00" arrivalLane="137406408#0_2" arrivalPos="39.77" arrivalSpeed="10.81" duration="28.00" routeLength="151.51" waitingTime="0.00" waitingCount="0" stopTime="0.00" timeLoss="18.63" rerouteNo="0" devices="tripinfo_flow_route_11_duration_20250327_1930.3" vType="car" speedFactor="1.00" vaporized=""/>
    <tripinfo id="flow_route_6_duration_20250327_1930.2" depart="26.00" departLane="1252820505#0_0" departPos="59.18" departSpeed="0.00" departDelay="2.00" arrival="56.00" arrivalLane="379698350#0_0" arrivalPos="181.90" arrivalSpeed="13.91" duration="30.00" routeLength="282.09" waitingTime="0.00" waitingCount="0" stopTime="0.00" timeLoss="9.77" rerouteNo="0" devices="tripinfo_flow_route_6_duration_20250327_1930.2" vType="car" speedFactor="0.85" vaporized=""/>
    <tripinfo id="flow_route_6_duration_20250327_1930.3" depart="38.00" departLane="1252820505#0_0" departPos="73.95" departSpeed="0.00" departDelay="2.00" arrival="56.00" arrivalLane="379698350#0_0" arrivalPos="32.51" arrivalSpeed="13.16" duration="18.00" routeLength="117.93" waitingTime="0.00" waitingCount="0" stopTime="0.00" timeLoss="10.26" rerouteNo="0" devices="tripinfo_flow_route_6_duration_20250327_1930.3" vType="car" speedFactor="1.06" vaporized=""/>
    <tripinfo id="flow_route_10_duration_20250327_1930.4" depart="30.00" departLane="1252820505#0_0" departPos="1.01" departSpeed="0.00" departDelay="0.00" arrival="57.00" arrivalLane="1235147073.116_1" arrivalPos="12.22" arrivalSpeed="16.53" duration="27.00" routeLength="278.94" waitingTime="0.00" waitingCount="0" stopTime="0.00" timeLoss="9.87" rerouteNo="0" devices="tripinfo_flow_route_10_duration_20250327_1930.4" vType="car" speedFactor="1.02" vaporized=""/>
    <tripinfo id="flow_route_11_duration_20250327_1930.4" depart="38.00" departLane="1252820505#0_0" departPos="21.77" departSpeed="0.00" departDelay="3.72" arrival="62.00" arrivalLane="137406408#0_2" arrivalPos="41.21" arrivalSpeed="13.63" duration="24.00" routeLength="181.02" waitingTime="0.00" waitingCount="0" stopTime="0.00" timeLoss="12.49" rerouteNo="0" devices="tripinfo_flow_route_11_duration_20250327_1930.4" vType="car" speedFactor="1.02" vaporized=""/>
    <tripinfo id="flow_route_10_duration_20250327_1930.6" depart="46.00" departLane="1252820505#0_0" departPos="71.99" departSpeed="0.00" departDelay="1.00" arrival="69.00" arrivalLane="1235147073.116_0" arrivalPos="3.40" arrivalSpeed="14.81" duration="23.00" routeLength="199.15" waitingTime="0.00" waitingCount="0" stopTime="0.00" timeLoss="8.84" rerouteNo="0" devices="tripinfo_flow_route_10_duration_20250327_1930.6" vType="car" speedFactor="0.89" vaporized=""/>
    <tripinfo id="flow_route_11_duration_20250327_1930.5" depart="43.00" departLane="1252820505#0_0" departPos="1.01" departSpeed="0.00" departDelay="0.15" arrival="70.00" arrivalLane="137406408#0_2" arrivalPos="36.41" arrivalSpeed="12.35" duration="27.00" routeLength="196.97" waitingTime="0.00" waitingCount="0" stopTime="0.00" timeLoss="14.42" rerouteNo="0" devices="tripinfo_flow_route_11_duration_20250327_1930.5" vType="car" speedFactor="1.00" vaporized=""/>
    <tripinfo id="flow_route_10_duration_20250327_1930.5" depart="40.00" departLane="1252820505#0_0" departPos="10.38" departSpeed="0.00" departDelay="2.50" arrival="71.00" arrivalLane="1235147073.116_0" arrivalPos="14.08" arrivalSpeed="16.13" duration="31.00" routeLength="271.44" waitingTime="0.00" waitingCount="0" stopTime="0.00" timeLoss="13.90" rerouteNo="0" devices="tripinfo_flow_route_10_duration_20250327_1930.5" vType="car" speedFactor="0.98" vaporized=""/>
    <tripinfo id="flow_route_6_duration_20250327_1930.4" depart="48.00" departLane="1252820505#0_0" departPos="17.55" departSpeed="0.00" departDelay="0.00" arrival="76.00" arrivalLane="379698350#0_0" arrivalPos="118.69" arrivalSpeed="16.52" duration="28.00" routeLength="260.51" waitingTime="0.00" waitingCount="0" stopTime="0.00" timeLoss="11.58" rerouteNo="0" devices="tripinfo_flow_route_6_duration_20250327_1930.4" vType="car" speedFactor="1.01" vaporized=""/>
    <tripinfo id="flow_route_11_duration_20250327_1930.6" depart="53.00" departLane="1252820505#0_0" departPos="56.98" departSpeed="0.00" departDelay="1.57" arrival="77.00" arrivalLane="137406408#0_2" arrivalPos="81.94" arrivalSpeed="15.39" duration="24.00" routeLength="186.55" waitingTime="0.00" waitingCount="0" stopTime="0.00" timeLoss="11.80" rerouteNo="0" devices="tripinfo_flow_route_11_duration_20250327_1930.6" vType="car" speedFactor="0.95" vaporized=""/>
    <tripinfo id="flow_route_10_duration_20250327_1930.7" depart="53.00" departLane="1252820505#0_0" departPos="4.22" departSpeed="0.00" departDelay="0.50" arrival="85.00" arrivalLane="1235147073.116_1" arrivalPos="3.70" arrivalSpeed="16.58" duration="32.00" routeLength="267.22" waitingTime="0.00" waitingCount="0" stopTime="0.00" timeLoss="15.24" rerouteNo="0" devices="tripinfo_flow_route_10_duration_20250327_1930.7" vType="car" speedFactor="1.01" vaporized=""/>
    <tripinfo id="flow_route_8_duration_20250327_1930.17" depart="65.00" departLane="133000078#0_0" departPos="204.17" departSpeed="0.00" departDelay="8.34" arrival="86.00" arrivalLane="1235147073.116_0" arrivalPos="12.91" arrivalSpeed="16.41" duration="21.00" routeLength="168.92" waitingTime="0.00" waitingCount="0" stopTime="0.00" timeLoss="9.48" rerouteNo="0" devices="tripinfo_flow_route_8_duration_20250327_1930.17" vType="car" speedFactor="1.10" vaporized=""/>
    <tripinfo id="flow_route_5_duration_20250327_1930.2" depart="40.00" departLane="291974733#0_0" departPos="42.70" departSpeed="0.00" departDelay="0.00" arrival="90.00" arrivalLane="1342054204_0" arrivalPos="7.38" arrivalSpeed="10.26" duration="50.00" routeLength="102.93" waitingTime="25.00" waitingCount="1" stopTime="0.00" timeLoss="43.03" rerouteNo="0" devices="tripinfo_flow_route_5_duration_20250327_1930.2" vType="car" speedFactor="1.03" vaporized=""/>
    <tripinfo id="flow_route_5_duration_20250327_1930.0" depart="0.00" departLane="291974733#0_0" departPos="43.68" departSpeed="0.00" departDelay="0.00" arrival="91.00" arrivalLane="1342054204_0" arrivalPos="62.15" arrivalSpeed="13.04" duration="91.00" routeLength="156.72" waitingTime="62.00" waitingCount="1" stopTime="0.00" timeLoss="79.70" rerouteNo="0" devices="tripinfo_flow_route_5_duration_20250327_1930.0" vType="car" speedFactor="0.94" vaporized=""/>
    <tripinfo id="flow_route_5_duration_20250327_1930.1" depart="20.00" departLane="291974733#0_0" departPos="32.13" departSpeed="0.00" departDelay="0.00" arrival="91.00" arrivalLane="1342054204_0" arrivalPos="39.76" arrivalSpeed="12.37" duration="71.00" routeLength="145.88" waitingTime="41.00" waitingCount="1" stopTime="0.00" timeLoss="61.52" rerouteNo="0" devices="tripinfo_flow_route_5_duration_20250327_1930.1" vType="car" speedFactor="1.09" vaporized=""/>
    <tripinfo id="flow_route_23_duration_20250327_1930.1" depart="23.00" departLane="137415945#0_0" departPos="1.58" departSpeed="0.00" departDelay="18.72" arrival="92.00" arrivalLane="379698350#0_2" arrivalPos="32.81" arrivalSpeed="11.95" duration="69.00" routeLength="223.58" waitingTime="32.00" waitingCount="1" stopTime="0.00" timeLoss="52.84" rerouteNo="0" devices="tripinfo_flow_route_23_duration_20250327_1930.1" vType="car" speedFactor="0.88" vaporized=""/>
    <tripinfo id="flow_route_23_duration_20250327_1930.3" depart="51.00" departLane="137415945#0_0" departPos="6.10" departSpeed="0.00" departDelay="38.15" arrival="96.00" arrivalLane="379698350#0_2" arrivalPos="36.91" arrivalSpeed="12.64" duration="45.00" routeLength="223.16" waitingTime="7.00" waitingCount="1" stopTime="0.00" timeLoss="29.64" rerouteNo="0" devices="tripinfo_flow_route_23_duration_20250327_1930.3" vType="car" speedFactor="0.93" vaporized=""/>
    <tripinfo id="flow_route_23_duration_20250327_1930.0" depart="0.00" departLane="137415945#0_0" departPos="0.59" departSpeed="0.00" departDelay="0.00" arrival="97.00" arrivalLane="379698350#0_2" arrivalPos="153.67" arrivalSpeed="14.03" duration="97.00" routeLength="345.44" waitingTime="53.00" waitingCount="1" stopTime="0.00" timeLoss="72.32" rerouteNo="0" devices="tripinfo_flow_route_23_duration_20250327_1930.0" vType="car" speedFactor="0.86" vaporized=""/>
    <tripinfo id="flow_route_4_duration_20250327_1930.0" depart="0.00" departLane="291974733#0_0" departPos="63.06" departSpeed="0.00" departDelay="0.00" arrival="100.00" arrivalLane="379698350#0_0" arrivalPos="183.76" arrivalSpeed="16.36" duration="100.00" routeLength="311.60" waitingTime="61.00" waitingCount="1" stopTime="0.00" timeLoss="80.63" rerouteNo="0" devices="tripinfo_flow_route_4_duration_20250327_1930.0" vType="car" speedFactor="1.06" vaporized=""/>
    <tripinfo id="flow_route_23_duration_20250327_1930.2" depart="35.00" departLane="137415945#0_0" departPos="5.66" departSpeed="0.00" departDelay="26.43" arrival="101.00" arrivalLane="379698350#0_2" arrivalPos="137.79" arrivalSpeed="15.79" duration="66.00" routeLength="324.48" waitingTime="20.00" waitingCount="1" stopTime="0.00" timeLoss="44.95" rerouteNo="0" devices="tripinfo_flow_route_23_duration_20250327_1930.2" vType="car" speedFactor="0.97" vaporized=""/>
    <tripinfo id="flow_route_23_duration_20250327_1930.4" depart="64.00" departLane="137415945#0_0" departPos="1.00" departSpeed="0.00" departDelay="46.86" arrival="109.00" arrivalLane="379698350#0_2" arrivalPos="201.46" arrivalSpeed="14.76" duration="45.00" routeLength="392.81" waitingTime="0.00" waitingCount="0" stopTime="0.00" timeLoss="17.65" rerouteNo="0" devices="tripinfo_flow_route_23_duration_20250327_1930.4" vType="car" speedFactor="0.90" vaporized=""/>
    <tripinfo id="flow_route_23_duration_20250327_1930.5" depart="85.00" departLane="137415945#0_0" departPos="1.05" departSpeed="0.00" departDelay="63.58" arrival="121.00" arrivalLane="379698350#0_2" arrivalPos="161.07" arrivalSpeed="14.68" duration="36.00" routeLength="352.38" waitingTime="1.00" waitingCount="1" stopTime="0.00" timeLoss="11.99" rerouteNo="0" devices="tripinfo_flow_route_23_duration_20250327_1930.5" vType="car" speedFactor="0.90" vaporized=""/>
    <tripinfo id="flow_route_12_duration_20250327_1930.1" depart="7.00" departLane="133000078#0_0" departPos="199.16" departSpeed="0.00" departDelay="2.39" arrival="126.00" arrivalLane="1342054204_3" arrivalPos="26.32" arrivalSpeed="14.32" duration="119.00" routeLength="124.96" waitingTime="97.00" waitingCount="1" stopTime="0.00" timeLoss="110.79" rerouteNo="0" devices="tripinfo_flow_route_12_duration_20250327_1930.1" vType="car" speedFactor="0.99" vaporized=""/>
    <tripinfo id="flow_route_7_duration_20250327_1930.0" depart="0.00" departLane="133000078#0_0" departPos="116.92" departSpeed="0.00" departDelay="0.00" arrival="134.00" arrivalLane="137406408#0_1" arrivalPos="45.36" arrivalSpeed="15.14" duration="134.00" routeLength="233.24" waitingTime="96.00" waitingCount="1" stopTime="0.00" timeLoss="119.35" rerouteNo="0" devices="tripinfo_flow_route_7_duration_20250327_1930.0" vType="car" speedFactor="1.08" vaporized=""/>
    <tripinfo id="flow_route_12_duration_20250327_1930.9" depart="42.00" departLane="133000078#0_0" departPos="202.82" departSpeed="0.00" departDelay="0.47" arrival="134.00" arrivalLane="1342054204_3" arrivalPos="69.16" arrivalSpeed="15.56" duration="92.00" routeLength="164.14" waitingTime="68.00" waitingCount="1" stopTime="0.00" timeLoss="81.69" rerouteNo="0" devices="tripinfo_flow_route_12_duration_20250327_1930.9" vType="car" speedFactor="1.15" vaporized=""/>
    <tripinfo id="flow_route_7_duration_20250327_1930.2" depart="34.00" departLane="133000078#0_0" departPos="174.20" departSpeed="0.00" departDelay="4.00" arrival="135.00" arrivalLane="137406408#0_1" arrivalPos="15.46" arrivalSpeed="14.11" duration="101.00" routeLength="146.06" waitingTime="76.00" waitingCount="1" stopTime="0.00" timeLoss="91.88" rerouteNo="0" devices="tripinfo_flow_route_7_duration_20250327_1930.2" vType="car" speedFactor="1.08" vaporized=""/>
    <tripinfo id="flow_route_12_duration_20250327_1930.0" depart="0.00" departLane="133000078#0_0" departPos="66.48" departSpeed="0.00" departDelay="0.00" arrival="138.00" arrivalLane="1342054204_3" arrivalPos="21.59" arrivalSpeed="13.44" duration="138.00" routeLength="252.91" waitingTime="95.00" waitingCount="2" stopTime="0.00" timeLoss="120.16" rerouteNo="0" devices="tripinfo_flow_route_12_duration_20250327_1930.0" vType="car" speedFactor="0.89" vaporized=""/>
    <tripinfo id="flow_route_8_duration_20250327_1930.2" depart="7.00" departLane="133000078#0_0" departPos="54.53" departSpeed="0.00" departDelay="0.33" arrival="140.00" arrivalLane="1235147073.116_0" arrivalPos="1.98" arrivalSpeed="15.46" duration="133.00" routeLength="307.64" waitingTime="77.00" waitingCount="2" stopTime="0.00" timeLoss="111.71" rerouteNo="0" devices="tripinfo_flow_route_8_duration_20250327_1930.2" vType="car" speedFactor="0.94" vaporized=""/>
    <tripinfo id="flow_route_12_duration_20250327_1930.2" depart="12.00" departLane="133000078#0_0" departPos="191.64" departSpeed="0.00" departDelay="2.77" arrival="140.00" arrivalLane="1342054204_3" arrivalPos="81.56" arrivalSpeed="13.65" duration="128.00" routeLength="187.73" waitingTime="101.00" waitingCount="1" stopTime="0.00" timeLoss="113.74" rerouteNo="0" devices="tripinfo_flow_route_12_duration_20250327_1930.2" vType="car" speedFactor="0.83" vaporized=""/>
    <tripinfo id="flow_route_7_duration_20250327_1930.1" depart="17.00" departLane="133000078#0_0" departPos="120.79" departSpeed="0.00" departDelay="2.00" arrival="142.00" arrivalLane="137406408#0_1" arrivalPos="7.38" arrivalSpeed="13.09" duration="125.00" routeLength="191.39" waitingTime="89.00" waitingCount="2" stopTime="0.00" timeLoss="113.18" rerouteNo="0" devices="tripinfo_flow_route_7_duration_20250327_1930.1" vType="car" speedFactor="1.17" vaporized=""/>
    <tripinfo id="flow_route_8_duration_20250327_1930.1" depart="4.00" departLane="133000078#0_0" departPos="6.69" departSpeed="0.00" departDelay="0.67" arrival="143.00" arrivalLane="1235147073.116_0" arrivalPos="13.59" arrivalSpeed="16.26" duration="139.00" routeLength="367.08" waitingTime="76.00" waitingCount="2" stopTime="0.00" timeLoss="115.28" rerouteNo="0" devices="tripinfo_flow_route_8_duration_20250327_1930.1" vType="car" speedFactor="1.05" vaporized=""/>
    <tripinfo id="flow_route_12_duration_20250327_1930.6" depart="29.00" departLane="133000078#0_0" departPos="186.53" departSpeed="0.00" departDelay="1.31" arrival="143.00" arrivalLane="1342054204_3" arrivalPos="47.91" arrivalSpeed="15.01" duration="114.00" routeLength="159.18" waitingTime="89.00" waitingCount="1" stopTime="0.00" timeLoss="104.35" rerouteNo="0" devices="tripinfo_flow_route_12_duration_20250327_1930.6" vType="car" speedFactor="1.02" vaporized=""/>
    <tripinfo id="flow_route_12_duration_20250327_1930.3" depart="14.00" departLane="133000078#0_0" departPos="9.67" departSpeed="0.00" departDelay="0.16" arrival="145.00" arrivalLane="1342054204_3" arrivalPos="29.57" arrivalSpeed="14.72" duration="131.00" routeLength="317.70" waitingTime="85.00" waitingCount="2" stopTime="0.00" timeLoss="111.28" rerouteNo="0" devices="tripinfo_flow_route_12_duration_20250327_1930.3" vType="car" speedFactor="1.15" vaporized=""/>
    <tripinfo id="flow_route_8_duration_20250327_1930.5" depart="19.00" departLane="133000078#0_0" departPos="87.78" departSpeed="0.00" departDelay="2.34" arrival="146.00" arrivalLane="1235147073.116_0" arrivalPos="5.97" arrivalSpeed="15.93" duration="127.00" routeLength="278.37" waitingTime="74.00" waitingCount="1" stopTime="0.00" timeLoss="108.17" rerouteNo="0" devices="tripinfo_flow_route_8_duration_20250327_1930.5" vType="car" speedFactor="0.97" vaporized=""/>
    <tripinfo id="flow_route_12_duration_20250327_1930.5" depart="27.00" departLane="133000078#0_0" departPos="169.54" departSpeed="0.00" departDelay="3.93" arrival="147.00" arrivalLane="1342054204_3" arrivalPos="41.87" arrivalSpeed="15.57" duration="120.00" routeLength="170.13" waitingTime="92.00" waitingCount="3" stopTime="0.00" timeLoss="109.61" rerouteNo="0" devices="tripinfo_flow_route_12_duration_20250327_1930.5" vType="car" speedFactor="1.17" vaporized=""/>
    <tripinfo id="flow_route_8_duration_20250327_1930.6" depart="21.00" departLane="133000078#0_0" departPos="96.29" departSpeed="0.00" departDelay="1.00" arrival="149.00" arrivalLane="1235147073.116_0" arrivalPos="13.38" arrivalSpeed="16.31" duration="128.00" routeLength="277.27" waitingTime="75.00" waitingCount="2" stopTime="0.00" timeLoss="110.31" rerouteNo="0" devices="tripinfo_flow_route_8_duration_20250327_1930.6" vType="car" speedFactor="1.04" vaporized=""/>
    <tripinfo id="flow_route_7_duration_20250327_1930.3" depart="48.00" departLane="133000078#0_0" departPos="6.50" departSpeed="0.00" departDelay="3.00" arrival="149.00" arrivalLane="137406408#0_1" arrivalPos="83.52" arrivalSpeed="16.17" duration="101.00" routeLength="381.81" waitingTime="38.00" waitingCount="2" stopTime="0.00" timeLoss="77.26" rerouteNo="0" devices="tripinfo_flow_route_7_duration_20250327_1930.3" vType="car" speedFactor="1.02" vaporized=""/>
    <tripinfo id="flow_route_8_duration_20250327_1930.4" depart="14.00" departLane="133000078#0_0" departPos="37.30" departSpeed="0.00" departDelay="0.67" arrival="150.00" arrivalLane="1235147073.116_0" arrivalPos="4.81" arrivalSpeed="15.99" duration="136.00" routeLength="327.68" waitingTime="73.00" waitingCount="1" stopTime="0.00" timeLoss="115.80" rerouteNo="0" devices="tripinfo_flow_route_8_duration_20250327_1930.4" vType="car" speedFactor="1.18" vaporized=""/>
    <tripinfo id="flow_route_12_duration_20250327_1930.4" depart="20.00" departLane="133000078#0_0" departPos="84.88" departSpeed="0.00" departDelay="1.54" arrival="151.00" arrivalLane="1342054204_3" arrivalPos="54.54" arrivalSpeed="15.66" duration="131.00" routeLength="267.46" waitingTime="78.00" waitingCount="2" stopTime="0.00" timeLoss="114.65" rerouteNo="0" devices="tripinfo_flow_route_12_duration_20250327_1930.4" vType="car" speedFactor="1.03" vaporized=""/>
    <tripinfo id="flow_route_12_duration_20250327_1930.7" depart="34.00" departLane="133000078#0_0" departPos="42.85" departSpeed="0.00" departDelay="1.70" arrival="152.00" arrivalLane="1342054204_3" arrivalPos="34.32" arrivalSpeed="15.15" duration="118.00" routeLength="289.28" waitingTime="72.00" waitingCount="1" stopTime="0.00" timeLoss="98.09" rerouteNo="0" devices="tripinfo_flow_route_12_duration_20250327_1930.7" vType="car" speedFactor="0.91" vaporized=""/>
    <tripinfo id="flow_route_8_duration_20250327_1930.7" depart="25.00" departLane="133000078#0_0" departPos="71.14" departSpeed="0.00" departDelay="1.67" arrival="154.00" arrivalLane="1235147073.116_0" arrivalPos="5.69" arrivalSpeed="14.05" duration="129.00" routeLength="294.73" waitingTime="73.00" waitingCount="1" stopTime="0.00" timeLoss="107.11" rerouteNo="0" devices="tripinfo_flow_route_8_duration_20250327_1930.7" vType="car" speedFactor="0.85" vaporized=""/>
    <tripinfo id="flow_route_12_duration_20250327_1930.8" depart="41.00" departLane="133000078#0_0" departPos="17.56" departSpeed="0.00" departDelay="4.08" arrival="154.00" arrivalLane="1342054204_3" arrivalPos="10.00" arrivalSpeed="12.77" duration="113.00" routeLength="290.24" waitingTime="66.00" waitingCount="1" stopTime="0.00" timeLoss="94.81" rerouteNo="0" devices="tripinfo_flow_route_12_duration_20250327_1930.8" vType="car" speedFactor="0.98" vaporized=""/>
    <tripinfo id="flow_route_8_duration_20250327_1930.11" depart="38.00" departLane="133000078#0_0" departPos="96.18" departSpeed="0.00" departDelay="1.34" arrival="156.00" arrivalLane="1235147073.116_0" arrivalPos="12.09" arrivalSpeed="15.55" duration="118.00" routeLength="276.08" waitingTime="71.00" waitingCount="1" stopTime="0.00" timeLoss="99.40" rerouteNo="0" devices="tripinfo_flow_route_8_duration_20250327_1930.11" vType="car" speedFactor="0.96" vaporized=""/>
    <tripinfo id="flow_route_8_duration_20250327_1930.9" depart="34.00" departLane="133000078#0_0" departPos="68.72" departSpeed="0.00" departDelay="4.00" arrival="159.00" arrivalLane="1235147073.116_0" arrivalPos="5.29" arrivalSpeed="15.97" duration="125.00" routeLength="296.75" waitingTime="72.00" waitingCount="1" stopTime="0.00" timeLoss="105.96" rerouteNo="0" devices="tripinfo_flow_route_8_duration_20250327_1930.9" vType="car" speedFactor="1.12" vaporized=""/>
    <tripinfo id="flow_route_22_duration_20250327_1930.4" depart="26.00" departLane="137415945#0_0" departPos="3.53" departSpeed="0.00" departDelay="19.34" arrival="161.00" arrivalLane="1342054204_1" arrivalPos="10.94" arrivalSpeed="10.75" duration="135.00" routeLength="200.74" waitingTime="100.00" waitingCount="1" stopTime="0.00" timeLoss="122.07" rerouteNo="0" devices="tripinfo_flow_route_22_duration_20250327_1930.4" vType="car" speedFactor="0.94" vaporized=""/>
    <tripinfo id="flow_route_8_duration_20250327_1930.10" depart="34.00" departLane="133000078#0_0" departPos="31.66" departSpeed="0.00" departDelay="0.67" arrival="161.00" arrivalLane="1235147073.116_0" arrivalPos="14.33" arrivalSpeed="16.41" duration="127.00" routeLength="342.85" waitingTime="73.00" waitingCount="1" stopTime="0.00" timeLoss="105.14" rerouteNo="0" devices="tripinfo_flow_route_8_duration_20250327_1930.10" vType="car" speedFactor="1.04" vaporized=""/>