<?xml version="1.0" encoding="UTF-8"?>

<!-- generated on 2025-05-06 21:01:17 by Eclipse SUMO sumo Version 1.20.0
<configuration xmlns:xsi="http://www.w3.org/2001/XMLSchema-instance" xsi:noNamespaceSchemaLocation="http://sumo.dlr.de/xsd/sumoConfiguration.xsd">

    <input>
        <net-file value="osm.net.xml"/>
        <route-files value="xml/routes_sac2_cluster3828547534_cluster_1507433914_2954854770_2954854771_2954854772_#9more.rou.xml"/>
    </input>

    <output>
        <tripinfo-output value="xml/tripinfo_9778.xml"/>
    </output>

    <traci_server>
        <remote-port value="57103"/>
    </traci_server>

</configuration>
-->

<tripinfos xmlns:xsi="http://www.w3.org/2001/XMLSchema-instance" xsi:noNamespaceSchemaLocation="http://sumo.dlr.de/xsd/tripinfo_file.xsd">
    <tripinfo id="flow_route_6_duration_20250327_2020.0" depart="0.00" departLane="1252820505#0_0" departPos="39.30" departSpeed="0.00" departDelay="0.00" arrival="18.00" arrivalLane="379698350#0_0" arrivalPos="9.38" arrivalSpeed="14.28" duration="18.00" routeLength="129.45" waitingTime="0.00" waitingCount="0" stopTime="0.00" timeLoss="9.89" rerouteNo="0" devices="tripinfo_flow_route_6_duration_20250327_2020.0" vType="car" speedFactor="1.01" vaporized=""/>
    <tripinfo id="flow_route_22_duration_20250327_2020.0" depart="0.00" departLane="137415945#0_0" departPos="8.70" departSpeed="0.00" departDelay="0.00" arrival="24.00" arrivalLane="1342054204_0" arrivalPos="47.56" arrivalSpeed="15.23" duration="24.00" routeLength="232.19" waitingTime="0.00" waitingCount="0" stopTime="0.00" timeLoss="8.92" rerouteNo="0" devices="tripinfo_flow_route_22_duration_20250327_2020.0" vType="car" speedFactor="0.94" vaporized=""/>
    <tripinfo id="flow_route_24_duration_20250327_2020.0" depart="5.00" departLane="137415945#0_0" departPos="6.93" departSpeed="0.00" departDelay="5.00" arrival="26.00" arrivalLane="137406408#0_0" arrivalPos="0.56" arrivalSpeed="15.61" duration="21.00" routeLength="162.63" waitingTime="0.00" waitingCount="0" stopTime="0.00" timeLoss="10.56" rerouteNo="0" devices="tripinfo_flow_route_24_duration_20250327_2020.0" vType="car" speedFactor="1.09" vaporized=""/>
    <tripinfo id="flow_route_10_duration_20250327_2020.0" depart="0.00" departLane="1252820505#0_0" departPos="5.24" departSpeed="0.00" departDelay="0.00" arrival="28.00" arrivalLane="1235147073.116_0" arrivalPos="0.67" arrivalSpeed="13.80" duration="28.00" routeLength="263.17" waitingTime="0.00" waitingCount="0" stopTime="0.00" timeLoss="8.18" rerouteNo="0" devices="tripinfo_flow_route_10_duration_20250327_2020.0" vType="car" speedFactor="0.83" vaporized=""/>
    <tripinfo id="flow_route_6_duration_20250327_2020.1" depart="8.00" departLane="1252820505#0_0" departPos="22.95" departSpeed="0.00" departDelay="0.50" arrival="29.00" arrivalLane="379698350#0_0" arrivalPos="26.68" arrivalSpeed="14.22" duration="21.00" routeLength="163.10" waitingTime="0.00" waitingCount="0" stopTime="0.00" timeLoss="9.43" rerouteNo="0" devices="tripinfo_flow_route_6_duration_20250327_2020.1" vType="car" speedFactor="0.88" vaporized=""/>
    <tripinfo id="flow_route_8_duration_20250327_2020.0" depart="0.00" departLane="133000078#0_0" departPos="54.62" departSpeed="0.00" departDelay="0.00" arrival="36.00" arrivalLane="1235147073.116_0" arrivalPos="9.03" arrivalSpeed="16.34" duration="36.00" routeLength="314.60" waitingTime="0.00" waitingCount="0" stopTime="0.00" timeLoss="15.99" rerouteNo="0" devices="tripinfo_flow_route_8_duration_20250327_2020.0" vType="car" speedFactor="1.03" vaporized=""/>
    <tripinfo id="flow_route_22_duration_20250327_2020.1" depart="7.00" departLane="137415945#0_0" departPos="0.38" departSpeed="0.00" departDelay="4.39" arrival="36.00" arrivalLane="1342054204_0" arrivalPos="81.91" arrivalSpeed="16.25" duration="29.00" routeLength="274.86" waitingTime="0.00" waitingCount="0" stopTime="0.00" timeLoss="11.69" rerouteNo="0" devices="tripinfo_flow_route_22_duration_20250327_2020.1" vType="car" speedFactor="1.03" vaporized=""/>
    <tripinfo id="flow_route_22_duration_20250327_2020.2" depart="16.00" departLane="137415945#0_0" departPos="4.00" departSpeed="0.00" departDelay="10.78" arrival="41.00" arrivalLane="1342054204_0" arrivalPos="26.32" arrivalSpeed="16.16" duration="25.00" routeLength="215.66" waitingTime="0.00" waitingCount="0" stopTime="0.00" timeLoss="11.10" rerouteNo="0" devices="tripinfo_flow_route_22_duration_20250327_2020.2" vType="car" speedFactor="0.99" vaporized=""/>
    <tripinfo id="flow_route_8_duration_20250327_2020.1" depart="8.00" departLane="133000078#0_0" departPos="46.07" departSpeed="0.00" departDelay="0.50" arrival="41.00" arrivalLane="1235147073.116_0" arrivalPos="1.92" arrivalSpeed="15.46" duration="33.00" routeLength="316.03" waitingTime="0.00" waitingCount="0" stopTime="0.00" timeLoss="11.75" rerouteNo="0" devices="tripinfo_flow_route_8_duration_20250327_2020.1" vType="car" speedFactor="0.94" vaporized=""/>
    <tripinfo id="flow_route_22_duration_20250327_2020.3" depart="21.00" departLane="137415945#0_0" departPos="5.31" departSpeed="0.00" departDelay="13.18" arrival="45.00" arrivalLane="1342054204_0" arrivalPos="35.88" arrivalSpeed="15.55" duration="24.00" routeLength="223.90" waitingTime="0.00" waitingCount="0" stopTime="0.00" timeLoss="9.26" rerouteNo="0" devices="tripinfo_flow_route_22_duration_20250327_2020.3" vType="car" speedFactor="0.94" vaporized=""/>
    <tripinfo id="flow_route_6_duration_20250327_2020.2" depart="15.00" departLane="1252820505#0_0" departPos="5.82" departSpeed="0.00" departDelay="0.00" arrival="45.00" arrivalLane="379698350#0_0" arrivalPos="31.31" arrivalSpeed="13.98" duration="30.00" routeLength="184.86" waitingTime="0.00" waitingCount="0" stopTime="0.00" timeLoss="17.49" rerouteNo="0" devices="tripinfo_flow_route_6_duration_20250327_2020.2" vType="car" speedFactor="0.92" vaporized=""/>
    <tripinfo id="flow_route_24_duration_20250327_2020.1" depart="25.00" departLane="137415945#0_0" departPos="1.29" departSpeed="0.00" departDelay="16.43" arrival="47.00" arrivalLane="137406408#0_0" arrivalPos="15.50" arrivalSpeed="15.99" duration="22.00" routeLength="183.21" waitingTime="0.00" waitingCount="0" stopTime="0.00" timeLoss="10.59" rerouteNo="0" devices="tripinfo_flow_route_24_duration_20250327_2020.1" vType="car" speedFactor="1.16" vaporized=""/>
    <tripinfo id="flow_route_6_duration_20250327_2020.3" depart="25.00" departLane="1252820505#0_0" departPos="67.88" departSpeed="0.00" departDelay="2.50" arrival="53.00" arrivalLane="379698350#0_0" arrivalPos="190.75" arrivalSpeed="16.23" duration="28.00" routeLength="282.24" waitingTime="0.00" waitingCount="0" stopTime="0.00" timeLoss="10.41" rerouteNo="0" devices="tripinfo_flow_route_6_duration_20250327_2020.3" vType="car" speedFactor="1.10" vaporized=""/>
    <tripinfo id="flow_route_10_duration_20250327_2020.1" depart="30.00" departLane="1252820505#0_0" departPos="55.73" departSpeed="0.00" departDelay="0.00" arrival="55.00" arrivalLane="1235147073.116_0" arrivalPos="5.81" arrivalSpeed="13.83" duration="25.00" routeLength="217.82" waitingTime="0.00" waitingCount="0" stopTime="0.00" timeLoss="9.00" rerouteNo="0" devices="tripinfo_flow_route_10_duration_20250327_2020.1" vType="car" speedFactor="0.85" vaporized=""/>
    <tripinfo id="flow_route_11_duration_20250327_2020.0" depart="0.00" departLane="1252820505#0_0" departPos="76.11" departSpeed="0.00" departDelay="0.00" arrival="59.00" arrivalLane="137406408#0_2" arrivalPos="68.60" arrivalSpeed="12.82" duration="59.00" routeLength="154.08" waitingTime="29.00" waitingCount="1" stopTime="0.00" timeLoss="48.96" rerouteNo="0" devices="tripinfo_flow_route_11_duration_20250327_2020.0" vType="car" speedFactor="1.05" vaporized=""/>
    <tripinfo id="flow_route_22_duration_20250327_2020.4" depart="32.00" departLane="137415945#0_0" departPos="0.19" departSpeed="0.00" departDelay="21.57" arrival="59.00" arrivalLane="1342054204_0" arrivalPos="58.28" arrivalSpeed="16.02" duration="27.00" routeLength="251.42" waitingTime="0.00" waitingCount="0" stopTime="0.00" timeLoss="10.78" rerouteNo="0" devices="tripinfo_flow_route_22_duration_20250327_2020.4" vType="car" speedFactor="0.97" vaporized=""/>
    <tripinfo id="flow_route_6_duration_20250327_2020.4" depart="30.00" departLane="1252820505#0_0" departPos="8.94" departSpeed="0.00" departDelay="0.00" arrival="59.00" arrivalLane="379698350#0_0" arrivalPos="121.49" arrivalSpeed="14.58" duration="29.00" routeLength="271.92" waitingTime="0.00" waitingCount="0" stopTime="0.00" timeLoss="9.92" rerouteNo="0" devices="tripinfo_flow_route_6_duration_20250327_2020.4" vType="car" speedFactor="0.88" vaporized=""/>
</tripinfos>
