<?xml version="1.0" encoding="UTF-8"?>

<!-- generated on 2025-05-06 21:08:06 by Eclipse SUMO sumo Version 1.20.0
<configuration xmlns:xsi="http://www.w3.org/2001/XMLSchema-instance" xsi:noNamespaceSchemaLocation="http://sumo.dlr.de/xsd/sumoConfiguration.xsd">

    <input>
        <net-file value="osm.net.xml"/>
        <route-files value="xml/route_static_cluster_11648745684_256036885_3839031483_2.rou.xml"/>
    </input>

    <output>
        <tripinfo-output value="xml/tripinfo_static_cluster_11648745684_256036885_3839031483_2.xml"/>
    </output>

    <traci_server>
        <remote-port value="51155"/>
    </traci_server>

</configuration>
-->

<tripinfos xmlns:xsi="http://www.w3.org/2001/XMLSchema-instance" xsi:noNamespaceSchemaLocation="http://sumo.dlr.de/xsd/tripinfo_file.xsd">
    <tripinfo id="flow_route_72_duration_20250327_1920.0" depart="0.00" departLane="1369578052#0_0" departPos="161.40" departSpeed="0.00" departDelay="0.00" arrival="15.00" arrivalLane="133342692#0_0" arrivalPos="42.43" arrivalSpeed="10.68" duration="15.00" routeLength="81.12" waitingTime="0.00" waitingCount="0" stopTime="0.00" timeLoss="8.11" rerouteNo="0" devices="tripinfo_flow_route_72_duration_20250327_1920.0" vType="car" speedFactor="0.89" vaporized=""/>
    <tripinfo id="flow_route_68_duration_20250327_1920.2" depart="5.00" departLane="1253209803#0_0" departPos="306.19" departSpeed="0.00" departDelay="0.72" arrival="22.00" arrivalLane="-138002002#2_0" arrivalPos="61.03" arrivalSpeed="13.03" duration="17.00" routeLength="106.16" waitingTime="0.00" waitingCount="0" stopTime="0.00" timeLoss="9.87" rerouteNo="0" devices="tripinfo_flow_route_68_duration_20250327_1920.2" vType="car" speedFactor="1.16" vaporized=""/>
    <tripinfo id="flow_route_68_duration_20250327_1920.0" depart="0.00" departLane="1253209803#0_0" departPos="143.52" departSpeed="0.00" departDelay="0.00" arrival="29.00" arrivalLane="-138002002#2_1" arrivalPos="90.53" arrivalSpeed="16.53" duration="29.00" routeLength="298.33" waitingTime="0.00" waitingCount="0" stopTime="0.00" timeLoss="10.49" rerouteNo="0" devices="tripinfo_flow_route_68_duration_20250327_1920.0" vType="car" speedFactor="1.08" vaporized=""/>
    <tripinfo id="flow_route_70_duration_20250327_1920.0" depart="0.00" departLane="1253209803#0_0" departPos="83.97" departSpeed="0.00" departDelay="0.00" arrival="30.00" arrivalLane="133342692#0_2" arrivalPos="7.48" arrivalSpeed="9.07" duration="30.00" routeLength="271.18" waitingTime="0.00" waitingCount="0" stopTime="0.00" timeLoss="11.81" rerouteNo="0" devices="tripinfo_flow_route_70_duration_20250327_1920.0" vType="car" speedFactor="0.83" vaporized=""/>
    <tripinfo id="flow_route_69_duration_20250327_1920.0" depart="0.00" departLane="1253209803#0_0" departPos="179.76" departSpeed="0.00" departDelay="0.00" arrival="33.00" arrivalLane="380585337#0_0" arrivalPos="14.31" arrivalSpeed="16.34" duration="33.00" routeLength="299.43" waitingTime="0.00" waitingCount="0" stopTime="0.00" timeLoss="14.23" rerouteNo="0" devices="tripinfo_flow_route_69_duration_20250327_1920.0" vType="car" speedFactor="1.03" vaporized=""/>
    <tripinfo id="flow_route_65_duration_20250327_1920.0" depart="6.00" departLane="133131666#1_0" departPos="5.36" departSpeed="0.00" departDelay="6.00" arrival="41.00" arrivalLane="138002016#0_2" arrivalPos="14.48" arrivalSpeed="7.46" duration="35.00" routeLength="193.58" waitingTime="2.00" waitingCount="1" stopTime="0.00" timeLoss="22.56" rerouteNo="0" devices="tripinfo_flow_route_65_duration_20250327_1920.0" vType="car" speedFactor="1.01" vaporized=""/>
    <tripinfo id="flow_route_64_duration_20250327_1920.2" depart="15.00" departLane="133131666#1_0" departPos="2.76" departSpeed="0.00" departDelay="10.00" arrival="44.00" arrivalLane="-138002002#2_0" arrivalPos="5.49" arrivalSpeed="6.48" duration="29.00" routeLength="168.28" waitingTime="0.00" waitingCount="0" stopTime="0.00" timeLoss="16.93" rerouteNo="0" devices="tripinfo_flow_route_64_duration_20250327_1920.2" vType="car" speedFactor="0.94" vaporized=""/>
    <tripinfo id="flow_route_65_duration_20250327_1920.1" depart="9.00" departLane="133131666#1_0" departPos="1.49" departSpeed="0.00" departDelay="7.50" arrival="50.00" arrivalLane="138002016#0_2" arrivalPos="97.75" arrivalSpeed="14.68" duration="41.00" routeLength="280.73" waitingTime="0.00" waitingCount="0" stopTime="0.00" timeLoss="23.13" rerouteNo="0" devices="tripinfo_flow_route_65_duration_20250327_1920.1" vType="car" speedFactor="1.03" vaporized=""/>
    <tripinfo id="flow_route_63_duration_20250327_1920.0" depart="0.00" departLane="133131666#1_0" departPos="14.94" departSpeed="0.00" departDelay="0.00" arrival="52.00" arrivalLane="133342692#0_0" arrivalPos="152.76" arrivalSpeed="16.30" duration="52.00" routeLength="321.54" waitingTime="9.00" waitingCount="1" stopTime="0.00" timeLoss="31.97" rerouteNo="0" devices="tripinfo_flow_route_63_duration_20250327_1920.0" vType="car" speedFactor="1.06" vaporized=""/>
    <tripinfo id="flow_route_64_duration_20250327_1920.0" depart="3.00" departLane="133131666#1_0" departPos="8.80" departSpeed="0.00" departDelay="3.00" arrival="52.00" arrivalLane="-138002002#2_0" arrivalPos="131.25" arrivalSpeed="15.00" duration="49.00" routeLength="287.99" waitingTime="7.00" waitingCount="1" stopTime="0.00" timeLoss="28.98" rerouteNo="0" devices="tripinfo_flow_route_64_duration_20250327_1920.0" vType="car" speedFactor="0.94" vaporized=""/>
    <tripinfo id="flow_route_65_duration_20250327_1920.4" depart="24.00" departLane="133131666#1_0" departPos="2.17" departSpeed="0.00" departDelay="18.00" arrival="54.00" arrivalLane="138002016#0_2" arrivalPos="53.47" arrivalSpeed="13.20" duration="30.00" routeLength="235.76" waitingTime="0.00" waitingCount="0" stopTime="0.00" timeLoss="14.54" rerouteNo="0" devices="tripinfo_flow_route_65_duration_20250327_1920.4" vType="car" speedFactor="0.97" vaporized=""/>
    <tripinfo id="flow_route_64_duration_20250327_1920.3" depart="28.00" departLane="133131666#1_0" departPos="9.55" departSpeed="0.00" departDelay="20.50" arrival="54.00" arrivalLane="-138002002#2_0" arrivalPos="31.02" arrivalSpeed="10.25" duration="26.00" routeLength="187.02" waitingTime="0.00" waitingCount="0" stopTime="0.00" timeLoss="13.67" rerouteNo="0" devices="tripinfo_flow_route_64_duration_20250327_1920.3" vType="car" speedFactor="1.13" vaporized=""/>
    <tripinfo id="flow_route_64_duration_20250327_1920.1" depart="14.00" departLane="133131666#1_0" departPos="12.74" departSpeed="0.00" departDelay="11.50" arrival="56.00" arrivalLane="-138002002#2_0" arrivalPos="172.98" arrivalSpeed="16.22" duration="42.00" routeLength="325.80" waitingTime="0.00" waitingCount="0" stopTime="0.00" timeLoss="21.40" rerouteNo="0" devices="tripinfo_flow_route_64_duration_20250327_1920.1" vType="car" speedFactor="1.05" vaporized=""/>
    <tripinfo id="flow_route_63_duration_20250327_1920.1" depart="28.00" departLane="133131666#1_0" departPos="1.89" departSpeed="0.00" departDelay="20.50" arrival="58.00" arrivalLane="133342692#0_1" arrivalPos="99.45" arrivalSpeed="15.41" duration="30.00" routeLength="281.28" waitingTime="0.00" waitingCount="0" stopTime="0.00" timeLoss="12.04" rerouteNo="0" devices="tripinfo_flow_route_63_duration_20250327_1920.1" vType="car" speedFactor="0.95" vaporized=""/>
    <tripinfo id="flow_route_65_duration_20250327_1920.2" depart="14.00" departLane="133131666#1_0" departPos="21.57" departSpeed="0.00" departDelay="11.00" arrival="63.00" arrivalLane="138002016#0_2" arrivalPos="262.42" arrivalSpeed="16.19" duration="49.00" routeLength="425.31" waitingTime="0.00" waitingCount="0" stopTime="0.00" timeLoss="21.99" rerouteNo="0" devices="tripinfo_flow_route_65_duration_20250327_1920.2" vType="car" speedFactor="1.12" vaporized=""/>
    <tripinfo id="flow_route_65_duration_20250327_1920.3" depart="22.00" departLane="133131666#1_0" departPos="8.73" departSpeed="0.00" departDelay="17.50" arrival="63.00" arrivalLane="138002016#0_2" arrivalPos="218.09" arrivalSpeed="15.22" duration="41.00" routeLength="393.82" waitingTime="0.00" waitingCount="0" stopTime="0.00" timeLoss="14.84" rerouteNo="0" devices="tripinfo_flow_route_65_duration_20250327_1920.3" vType="car" speedFactor="0.94" vaporized=""/>
    <tripinfo id="flow_route_64_duration_20250327_1920.4" depart="38.00" departLane="133131666#1_0" departPos="21.26" departSpeed="0.00" departDelay="28.00" arrival="65.00" arrivalLane="-138002002#2_0" arrivalPos="57.82" arrivalSpeed="12.09" duration="27.00" routeLength="202.11" waitingTime="0.00" waitingCount="0" stopTime="0.00" timeLoss="13.94" rerouteNo="0" devices="tripinfo_flow_route_64_duration_20250327_1920.4" vType="car" speedFactor="1.17" vaporized=""/>
    <tripinfo id="flow_route_64_duration_20250327_1920.5" depart="44.00" departLane="133131666#1_0" departPos="20.76" departSpeed="0.00" departDelay="31.50" arrival="72.00" arrivalLane="-138002002#2_0" arrivalPos="55.77" arrivalSpeed="10.96" duration="28.00" routeLength="200.55" waitingTime="0.00" waitingCount="0" stopTime="0.00" timeLoss="14.77" rerouteNo="0" devices="tripinfo_flow_route_64_duration_20250327_1920.5" vType="car" speedFactor="1.04" vaporized=""/>
    <tripinfo id="flow_route_65_duration_20250327_1920.5" depart="28.00" departLane="133131666#1_0" departPos="17.60" departSpeed="0.00" departDelay="20.50" arrival="73.00" arrivalLane="138002016#0_2" arrivalPos="303.99" arrivalSpeed="15.33" duration="45.00" routeLength="470.85" waitingTime="0.00" waitingCount="0" stopTime="0.00" timeLoss="13.95" rerouteNo="0" devices="tripinfo_flow_route_65_duration_20250327_1920.5" vType="car" speedFactor="0.93" vaporized=""/>
    <tripinfo id="flow_route_65_duration_20250327_1920.6" depart="38.00" departLane="133131666#1_0" departPos="9.50" departSpeed="0.00" departDelay="29.00" arrival="73.00" arrivalLane="138002016#0_2" arrivalPos="174.06" arrivalSpeed="16.29" duration="35.00" routeLength="349.03" waitingTime="0.00" waitingCount="0" stopTime="0.00" timeLoss="12.72" rerouteNo="0" devices="tripinfo_flow_route_65_duration_20250327_1920.6" vType="car" speedFactor="1.15" vaporized=""/>
    <tripinfo id="flow_route_65_duration_20250327_1920.7" depart="41.00" departLane="133131666#1_0" departPos="15.07" departSpeed="0.00" departDelay="30.50" arrival="73.00" arrivalLane="138002016#0_2" arrivalPos="92.33" arrivalSpeed="14.55" duration="32.00" routeLength="261.72" waitingTime="0.00" waitingCount="0" stopTime="0.00" timeLoss="15.00" rerouteNo="0" devices="tripinfo_flow_route_65_duration_20250327_1920.7" vType="car" speedFactor="1.10" vaporized=""/>
    <tripinfo id="flow_route_75_duration_20250327_1920.0" depart="0.00" departLane="380593307#0_0" departPos="8.02" departSpeed="0.00" departDelay="0.00" arrival="78.00" arrivalLane="-138002002#2_1" arrivalPos="1.11" arrivalSpeed="7.94" duration="78.00" routeLength="196.85" waitingTime="45.00" waitingCount="1" stopTime="0.00" timeLoss="65.29" rerouteNo="0" devices="tripinfo_flow_route_75_duration_20250327_1920.0" vType="car" speedFactor="1.09" vaporized=""/>
    <tripinfo id="flow_route_75_duration_20250327_1920.1" depart="4.00" departLane="380593307#0_0" departPos="166.07" departSpeed="0.00" departDelay="0.84" arrival="82.00" arrivalLane="-138002002#2_1" arrivalPos="55.59" arrivalSpeed="11.26" duration="78.00" routeLength="93.27" waitingTime="57.00" waitingCount="1" stopTime="0.00" timeLoss="70.14" rerouteNo="0" devices="tripinfo_flow_route_75_duration_20250327_1920.1" vType="car" speedFactor="0.88" vaporized=""/>
    <tripinfo id="flow_route_75_duration_20250327_1920.5" depart="20.00" departLane="380593307#0_0" departPos="58.83" departSpeed="0.00" departDelay="4.22" arrival="86.00" arrivalLane="-138002002#2_1" arrivalPos="7.85" arrivalSpeed="9.86" duration="66.00" routeLength="152.78" waitingTime="33.00" waitingCount="1" stopTime="0.00" timeLoss="55.61" rerouteNo="0" devices="tripinfo_flow_route_75_duration_20250327_1920.5" vType="car" speedFactor="1.00" vaporized=""/>
    <tripinfo id="flow_route_74_duration_20250327_1920.1" depart="6.00" departLane="380593307#0_0" departPos="15.46" departSpeed="0.00" departDelay="1.39" arrival="87.00" arrivalLane="138002016#0_0" arrivalPos="39.92" arrivalSpeed="10.08" duration="81.00" routeLength="207.15" waitingTime="34.00" waitingCount="1" stopTime="0.00" timeLoss="67.60" rerouteNo="0" devices="tripinfo_flow_route_74_duration_20250327_1920.1" vType="car" speedFactor="1.01" vaporized=""/>
    <tripinfo id="flow_route_73_duration_20250327_1920.2" depart="13.00" departLane="380593307#0_0" departPos="160.57" departSpeed="0.00" departDelay="3.00" arrival="87.00" arrivalLane="380585337#0_1" arrivalPos="2.09" arrivalSpeed="15.82" duration="74.00" routeLength="178.19" waitingTime="47.00" waitingCount="1" stopTime="0.00" timeLoss="63.05" rerouteNo="0" devices="tripinfo_flow_route_73_duration_20250327_1920.2" vType="car" speedFactor="1.02" vaporized=""/>
    <tripinfo id="flow_route_73_duration_20250327_1920.0" depart="0.00" departLane="380593307#0_0" departPos="55.90" departSpeed="0.00" departDelay="0.00" arrival="89.00" arrivalLane="380585337#0_0" arrivalPos="13.23" arrivalSpeed="15.30" duration="89.00" routeLength="294.01" waitingTime="48.00" waitingCount="1" stopTime="0.00" timeLoss="70.01" rerouteNo="0" devices="tripinfo_flow_route_73_duration_20250327_1920.0" vType="car" speedFactor="0.94" vaporized=""/>
    <tripinfo id="flow_route_73_duration_20250327_1920.1" depart="5.00" departLane="380593307#0_0" departPos="45.85" departSpeed="0.00" departDelay="0.00" arrival="89.00" arrivalLane="380585337#0_1" arrivalPos="3.14" arrivalSpeed="16.35" duration="84.00" routeLength="293.97" waitingTime="43.00" waitingCount="1" stopTime="0.00" timeLoss="65.72" rerouteNo="0" devices="tripinfo_flow_route_73_duration_20250327_1920.1" vType="car" speedFactor="1.02" vaporized=""/>
    <tripinfo id="flow_route_75_duration_20250327_1920.3" depart="15.00" departLane="380593307#0_0" departPos="24.51" departSpeed="0.00" departDelay="5.53" arrival="90.00" arrivalLane="-138002002#2_1" arrivalPos="38.16" arrivalSpeed="12.24" duration="75.00" routeLength="217.42" waitingTime="31.00" waitingCount="2" stopTime="0.00" timeLoss="61.39" rerouteNo="0" devices="tripinfo_flow_route_75_duration_20250327_1920.3" vType="car" speedFactor="1.18" vaporized=""/>
    <tripinfo id="flow_route_75_duration_20250327_1920.2" depart="8.00" departLane="380593307#0_0" departPos="4.83" departSpeed="0.00" departDelay="1.69" arrival="92.00" arrivalLane="-138002002#2_1" arrivalPos="127.40" arrivalSpeed="15.24" duration="84.00" routeLength="326.33" waitingTime="39.00" waitingCount="1" stopTime="0.00" timeLoss="61.50" rerouteNo="0" devices="tripinfo_flow_route_75_duration_20250327_1920.2" vType="car" speedFactor="0.92" vaporized=""/>
    <tripinfo id="flow_route_75_duration_20250327_1920.4" depart="16.00" departLane="380593307#0_0" departPos="117.24" departSpeed="0.00" departDelay="3.37" arrival="92.00" arrivalLane="-138002002#2_1" arrivalPos="161.28" arrivalSpeed="16.29" duration="76.00" routeLength="247.80" waitingTime="40.00" waitingCount="1" stopTime="0.00" timeLoss="60.29" rerouteNo="0" devices="tripinfo_flow_route_75_duration_20250327_1920.4" vType="car" speedFactor="1.09" vaporized=""/>
    <tripinfo id="flow_route_73_duration_20250327_1920.4" depart="28.00" departLane="380593307#0_0" departPos="104.95" departSpeed="0.00" departDelay="8.00" arrival="92.00" arrivalLane="380585337#0_1" arrivalPos="19.36" arrivalSpeed="16.36" duration="64.00" routeLength="251.08" waitingTime="27.00" waitingCount="1" stopTime="0.00" timeLoss="48.61" rerouteNo="0" devices="tripinfo_flow_route_73_duration_20250327_1920.4" vType="car" speedFactor="1.04" vaporized=""/>
    <tripinfo id="flow_route_75_duration_20250327_1920.9" depart="36.00" departLane="380593307#0_0" departPos="81.33" departSpeed="0.00" departDelay="7.59" arrival="92.00" arrivalLane="-138002002#2_1" arrivalPos="2.15" arrivalSpeed="8.75" duration="56.00" routeLength="124.57" waitingTime="25.00" waitingCount="1" stopTime="0.00" timeLoss="47.98" rerouteNo="0" devices="tripinfo_flow_route_75_duration_20250327_1920.9" vType="car" speedFactor="1.09" vaporized=""/>
    <tripinfo id="flow_route_74_duration_20250327_1920.0" depart="0.00" departLane="380593307#0_0" departPos="118.68" departSpeed="0.00" departDelay="0.00" arrival="93.00" arrivalLane="138002016#0_0" arrivalPos="237.21" arrivalSpeed="13.86" duration="93.00" routeLength="301.22" waitingTime="53.00" waitingCount="1" stopTime="0.00" timeLoss="70.15" rerouteNo="0" devices="tripinfo_flow_route_74_duration_20250327_1920.0" vType="car" speedFactor="0.86" vaporized=""/>
    <tripinfo id="flow_route_73_duration_20250327_1920.3" depart="19.00" departLane="380593307#0_0" departPos="2.54" departSpeed="0.00" departDelay="4.00" arrival="94.00" arrivalLane="380585337#0_1" arrivalPos="17.28" arrivalSpeed="16.45" duration="75.00" routeLength="351.42" waitingTime="27.00" waitingCount="1" stopTime="0.00" timeLoss="53.03" rerouteNo="0" devices="tripinfo_flow_route_73_duration_20250327_1920.3" vType="car" speedFactor="1.00" vaporized=""/>
    <tripinfo id="flow_route_74_duration_20250327_1920.2" depart="14.00" departLane="380593307#0_0" departPos="71.37" departSpeed="0.00" departDelay="4.77" arrival="96.00" arrivalLane="138002016#0_0" arrivalPos="180.55" arrivalSpeed="16.15" duration="82.00" routeLength="291.87" waitingTime="36.00" waitingCount="1" stopTime="0.00" timeLoss="62.11" rerouteNo="0" devices="tripinfo_flow_route_74_duration_20250327_1920.2" vType="car" speedFactor="0.97" vaporized=""/>
    <tripinfo id="flow_route_74_duration_20250327_1920.5" depart="31.00" departLane="380593307#0_0" departPos="36.75" departSpeed="0.00" departDelay="7.93" arrival="97.00" arrivalLane="138002016#0_0" arrivalPos="36.50" arrivalSpeed="9.60" duration="66.00" routeLength="182.44" waitingTime="25.00" waitingCount="1" stopTime="0.00" timeLoss="53.46" rerouteNo="0" devices="tripinfo_flow_route_74_duration_20250327_1920.5" vType="car" speedFactor="1.00" vaporized=""/>
    <tripinfo id="flow_route_73_duration_20250327_1920.5" depart="32.00" departLane="380593307#0_0" departPos="49.44" departSpeed="0.00" departDelay="7.00" arrival="97.00" arrivalLane="380585337#0_1" arrivalPos="20.64" arrivalSpeed="15.63" duration="65.00" routeLength="307.88" waitingTime="20.00" waitingCount="1" stopTime="0.00" timeLoss="45.26" rerouteNo="0" devices="tripinfo_flow_route_73_duration_20250327_1920.5" vType="car" speedFactor="0.97" vaporized=""/>
    <tripinfo id="flow_route_73_duration_20250327_1920.6" depart="36.00" departLane="380593307#0_0" departPos="68.87" departSpeed="0.00" departDelay="6.00" arrival="98.00" arrivalLane="380585337#0_1" arrivalPos="8.41" arrivalSpeed="15.64" duration="62.00" routeLength="276.22" waitingTime="20.00" waitingCount="1" stopTime="0.00" timeLoss="44.18" rerouteNo="0" devices="tripinfo_flow_route_73_duration_20250327_1920.6" vType="car" speedFactor="0.96" vaporized=""/>
    <tripinfo id="flow_route_73_duration_20250327_1920.7" depart="39.00" departLane="380593307#0_0" departPos="9.87" departSpeed="0.00" departDelay="4.00" arrival="100.00" arrivalLane="380585337#0_1" arrivalPos="15.90" arrivalSpeed="16.15" duration="61.00" routeLength="342.71" waitingTime="14.00" waitingCount="1" stopTime="0.00" timeLoss="40.04" rerouteNo="0" devices="tripinfo_flow_route_73_duration_20250327_1920.7" vType="car" speedFactor="1.01" vaporized=""/>
    <tripinfo id="flow_route_74_duration_20250327_1920.3" depart="18.00" departLane="380593307#0_0" departPos="102.90" departSpeed="0.00" departDelay="4.16" arrival="101.00" arrivalLane="138002016#0_0" arrivalPos="278.18" arrivalSpeed="14.27" duration="83.00" routeLength="357.98" waitingTime="37.00" waitingCount="1" stopTime="0.00" timeLoss="56.56" rerouteNo="0" devices="tripinfo_flow_route_74_duration_20250327_1920.3" vType="car" speedFactor="0.88" vaporized=""/>
    <tripinfo id="flow_route_75_duration_20250327_1920.6" depart="24.00" departLane="380593307#0_0" departPos="39.54" departSpeed="0.00" departDelay="5.06" arrival="103.00" arrivalLane="-138002002#2_1" arrivalPos="174.04" arrivalSpeed="16.14" duration="79.00" routeLength="338.26" waitingTime="30.00" waitingCount="1" stopTime="0.00" timeLoss="57.43" rerouteNo="0" devices="tripinfo_flow_route_75_duration_20250327_1920.6" vType="car" speedFactor="0.99" vaporized=""/>
    <tripinfo id="flow_route_74_duration_20250327_1920.4" depart="23.00" departLane="380593307#0_0" departPos="56.15" departSpeed="0.00" departDelay="4.54" arrival="104.00" arrivalLane="138002016#0_0" arrivalPos="261.40" arrivalSpeed="16.37" duration="81.00" routeLength="387.94" waitingTime="32.00" waitingCount="1" stopTime="0.00" timeLoss="56.78" rerouteNo="0" devices="tripinfo_flow_route_74_duration_20250327_1920.4" vType="car" speedFactor="1.02" vaporized=""/>
    <tripinfo id="flow_route_74_duration_20250327_1920.8" depart="41.00" departLane="380593307#0_0" departPos="47.62" departSpeed="0.00" departDelay="4.08" arrival="104.00" arrivalLane="138002016#0_0" arrivalPos="96.48" arrivalSpeed="14.37" duration="63.00" routeLength="231.56" waitingTime="22.00" waitingCount="1" stopTime="0.00" timeLoss="47.75" rerouteNo="0" devices="tripinfo_flow_route_74_duration_20250327_1920.8" vType="car" speedFactor="1.07" vaporized=""/>
    <tripinfo id="flow_route_74_duration_20250327_1920.7" depart="36.00" departLane="380593307#0_0" departPos="112.84" departSpeed="0.00" departDelay="3.70" arrival="105.00" arrivalLane="138002016#0_0" arrivalPos="224.18" arrivalSpeed="16.44" duration="69.00" routeLength="294.03" waitingTime="29.00" waitingCount="1" stopTime="0.00" timeLoss="49.57" rerouteNo="0" devices="tripinfo_flow_route_74_duration_20250327_1920.7" vType="car" speedFactor="1.06" vaporized=""/>
    <tripinfo id="flow_route_73_duration_20250327_1920.8" depart="49.00" departLane="380593307#0_0" departPos="30.24" departSpeed="0.00" departDelay="9.00" arrival="105.00" arrivalLane="380585337#0_1" arrivalPos="17.09" arrivalSpeed="16.43" duration="56.00" routeLength="323.54" waitingTime="13.00" waitingCount="1" stopTime="0.00" timeLoss="35.61" rerouteNo="0" devices="tripinfo_flow_route_73_duration_20250327_1920.8" vType="car" speedFactor="1.03" vaporized=""/>
    <tripinfo id="flow_route_74_duration_20250327_1920.6" depart="36.00" departLane="380593307#0_0" departPos="100.08" departSpeed="0.00" departDelay="8.31" arrival="107.00" arrivalLane="138002016#0_0" arrivalPos="187.34" arrivalSpeed="13.59" duration="71.00" routeLength="269.95" waitingTime="28.00" waitingCount="1" stopTime="0.00" timeLoss="50.09" rerouteNo="0" devices="tripinfo_flow_route_74_duration_20250327_1920.6" vType="car" speedFactor="0.83" vaporized=""/>
    <tripinfo id="flow_route_75_duration_20250327_1920.13" depart="55.00" departLane="380593307#0_0" departPos="97.38" departSpeed="0.00" departDelay="13.96" arrival="107.00" arrivalLane="-138002002#2_1" arrivalPos="154.19" arrivalSpeed="16.59" duration="52.00" routeLength="260.58" waitingTime="14.00" waitingCount="1" stopTime="0.00" timeLoss="35.06" rerouteNo="0" devices="tripinfo_flow_route_75_duration_20250327_1920.13" vType="car" speedFactor="1.01" vaporized=""/>
    <tripinfo id="flow_route_68_duration_20250327_1920.9" depart="20.00" departLane="1253209803#0_0" departPos="291.62" departSpeed="0.00" departDelay="0.72" arrival="109.00" arrivalLane="-138002002#2_0" arrivalPos="30.86" arrivalSpeed="9.95" duration="89.00" routeLength="90.56" waitingTime="65.00" waitingCount="1" stopTime="0.00" timeLoss="82.71" rerouteNo="0" devices="tripinfo_flow_route_68_duration_20250327_1920.9" vType="car" speedFactor="0.91" vaporized=""/>
    <tripinfo id="flow_route_71_duration_20250327_1920.1" depart="4.00" departLane="1369578052#0_0" departPos="29.33" departSpeed="0.00" departDelay="0.67" arrival="110.00" arrivalLane="138002016#0_1" arrivalPos="10.32" arrivalSpeed="8.84" duration="106.00" routeLength="198.67" waitingTime="67.00" waitingCount="1" stopTime="0.00" timeLoss="93.09" rerouteNo="0" devices="tripinfo_flow_route_71_duration_20250327_1920.1" vType="car" speedFactor="0.93" vaporized=""/>
    <tripinfo id="flow_route_68_duration_20250327_1920.5" depart="11.00" departLane="1253209803#0_0" departPos="162.80" departSpeed="0.00" departDelay="0.29" arrival="113.00" arrivalLane="-138002002#2_1" arrivalPos="39.12" arrivalSpeed="11.14" duration="102.00" routeLength="227.64" waitingTime="58.00" waitingCount="1" stopTime="0.00" timeLoss="87.54" rerouteNo="0" devices="tripinfo_flow_route_68_duration_20250327_1920.5" vType="car" speedFactor="0.90" vaporized=""/>
    <tripinfo id="flow_route_72_duration_20250327_1920.2" depart="11.00" departLane="1369578052#0_0" departPos="152.17" departSpeed="0.00" departDelay="0.09" arrival="114.00" arrivalLane="133342692#0_0" arrivalPos="116.36" arrivalSpeed="14.07" duration="103.00" routeLength="164.27" waitingTime="73.00" waitingCount="1" stopTime="0.00" timeLoss="92.09" rerouteNo="0" devices="tripinfo_flow_route_72_duration_20250327_1920.2" vType="car" speedFactor="1.03" vaporized=""/>
    <tripinfo id="flow_route_68_duration_20250327_1920.8" depart="18.00" departLane="1253209803#0_0" departPos="203.52" departSpeed="0.00" departDelay="0.86" arrival="114.00" arrivalLane="-138002002#2_1" arrivalPos="69.90" arrivalSpeed="12.99" duration="96.00" routeLength="217.70" waitingTime="59.00" waitingCount="1" stopTime="0.00" timeLoss="82.24" rerouteNo="0" devices="tripinfo_flow_route_68_duration_20250327_1920.8" vType="car" speedFactor="1.12" vaporized=""/>
    <tripinfo id="flow_route_72_duration_20250327_1920.1" depart="6.00" departLane="1369578052#0_0" departPos="123.16" departSpeed="0.00" departDelay="0.55" arrival="115.00" arrivalLane="133342692#0_0" arrivalPos="98.00" arrivalSpeed="14.20" duration="109.00" routeLength="174.93" waitingTime="73.00" waitingCount="1" stopTime="0.00" timeLoss="95.22" rerouteNo="0" devices="tripinfo_flow_route_72_duration_20250327_1920.1" vType="car" speedFactor="0.89" vaporized=""/>
    <tripinfo id="flow_route_71_duration_20250327_1920.3" depart="11.00" departLane="1369578052#0_0" departPos="113.38" departSpeed="0.00" departDelay="1.00" arrival="115.00" arrivalLane="138002016#0_0" arrivalPos="107.92" arrivalSpeed="14.45" duration="104.00" routeLength="212.22" waitingTime="69.00" waitingCount="1" stopTime="0.00" timeLoss="91.06" rerouteNo="0" devices="tripinfo_flow_route_71_duration_20250327_1920.3" vType="car" speedFactor="0.99" vaporized=""/>
    <tripinfo id="flow_route_68_duration_20250327_1920.6" depart="13.00" departLane="1253209803#0_0" departPos="134.95" departSpeed="0.00" departDelay="0.15" arrival="115.00" arrivalLane="-138002002#2_1" arrivalPos="19.29" arrivalSpeed="11.53" duration="102.00" routeLength="235.66" waitingTime="58.00" waitingCount="2" stopTime="0.00" timeLoss="87.38" rerouteNo="0" devices="tripinfo_flow_route_68_duration_20250327_1920.6" vType="car" speedFactor="1.04" vaporized=""/>
    <tripinfo id="flow_route_68_duration_20250327_1920.12" depart="30.00" departLane="1253209803#0_0" departPos="262.92" departSpeed="0.00" departDelay="4.30" arrival="116.00" arrivalLane="-138002002#2_0" arrivalPos="40.64" arrivalSpeed="11.68" duration="86.00" routeLength="129.04" waitingTime="56.00" waitingCount="1" stopTime="0.00" timeLoss="77.69" rerouteNo="0" devices="tripinfo_flow_route_68_duration_20250327_1920.12" vType="car" speedFactor="0.98" vaporized=""/>
    <tripinfo id="flow_route_68_duration_20250327_1920.1" depart="3.00" departLane="1253209803#0_0" departPos="75.15" departSpeed="0.00" departDelay="0.86" arrival="118.00" arrivalLane="-138002002#2_0" arrivalPos="163.51" arrivalSpeed="16.22" duration="115.00" routeLength="439.68" waitingTime="64.00" waitingCount="1" stopTime="0.00" timeLoss="88.30" rerouteNo="0" devices="tripinfo_flow_route_68_duration_20250327_1920.1" vType="car" speedFactor="0.99" vaporized=""/>
    <tripinfo id="flow_route_71_duration_20250327_1920.5" depart="18.00" departLane="1369578052#0_0" departPos="18.96" departSpeed="0.00" departDelay="1.34" arrival="118.00" arrivalLane="138002016#0_1" arrivalPos="48.89" arrivalSpeed="12.93" duration="100.00" routeLength="247.60" waitingTime="59.00" waitingCount="1" stopTime="0.00" timeLoss="84.51" rerouteNo="0" devices="tripinfo_flow_route_71_duration_20250327_1920.5" vType="car" speedFactor="1.14" vaporized=""/>
    <tripinfo id="flow_route_68_duration_20250327_1920.10" depart="22.00" departLane="1253209803#0_0" departPos="248.89" departSpeed="0.00" departDelay="0.58" arrival="120.00" arrivalLane="-138002002#2_0" arrivalPos="156.82" arrivalSpeed="16.51" duration="98.00" routeLength="259.25" waitingTime="59.00" waitingCount="1" stopTime="0.00" timeLoss="81.71" rerouteNo="0" devices="tripinfo_flow_route_68_duration_20250327_1920.10" vType="car" speedFactor="1.02" vaporized=""/>
    <tripinfo id="flow_route_71_duration_20250327_1920.4" depart="14.00" departLane="1369578052#0_0" departPos="128.94" departSpeed="0.00" departDelay="0.67" arrival="121.00" arrivalLane="138002016#0_0" arrivalPos="145.10" arrivalSpeed="14.58" duration="107.00" routeLength="233.84" waitingTime="72.00" waitingCount="1" stopTime="0.00" timeLoss="90.65" rerouteNo="0" devices="tripinfo_flow_route_71_duration_20250327_1920.4" vType="car" speedFactor="0.90" vaporized=""/>
    <tripinfo id="flow_route_68_duration_20250327_1920.7" depart="15.00" departLane="1253209803#0_0" departPos="117.97" departSpeed="0.00" departDelay="0.01" arrival="122.00" arrivalLane="-138002002#2_1" arrivalPos="143.87" arrivalSpeed="16.22" duration="107.00" routeLength="377.22" waitingTime="58.00" waitingCount="1" stopTime="0.00" timeLoss="83.58" rerouteNo="0" devices="tripinfo_flow_route_68_duration_20250327_1920.7" vType="car" speedFactor="1.02" vaporized=""/>