<?xml version="1.0" encoding="UTF-8"?>

<!-- generated on 2025-05-06 21:08:33 by Eclipse SUMO sumo Version 1.20.0
<configuration xmlns:xsi="http://www.w3.org/2001/XMLSchema-instance" xsi:noNamespaceSchemaLocation="http://sumo.dlr.de/xsd/sumoConfiguration.xsd">

    <input>
        <net-file value="osm.net.xml"/>
        <route-files value="xml/route_rl_cluster_11644940323_11644940324_3828703845_5.rou.xml"/>
    </input>

    <output>
        <tripinfo-output value="xml/tripinfo_rl_cluster_11644940323_11644940324_3828703845_5.xml"/>
    </output>

    <traci_server>
        <remote-port value="33029"/>
    </traci_server>

</configuration>
-->

<tripinfos xmlns:xsi="http://www.w3.org/2001/XMLSchema-instance" xsi:noNamespaceSchemaLocation="http://sumo.dlr.de/xsd/tripinfo_file.xsd">
    <tripinfo id="flow_route_3_duration_20250327_1930.0" depart="0.00" departLane="1318793173#0_0" departPos="80.53" departSpeed="0.00" departDelay="0.00" arrival="19.00" arrivalLane="291974733#0_1" arrivalPos="66.76" arrivalSpeed="13.99" duration="19.00" routeLength="123.20" waitingTime="0.00" waitingCount="0" stopTime="0.00" timeLoss="10.27" rerouteNo="0" devices="tripinfo_flow_route_3_duration_20250327_1930.0" vType="car" speedFactor="0.94" vaporized=""/>
    <tripinfo id="flow_route_16_duration_20250327_1930.0" depart="0.00" departLane="137406408#0_0" departPos="52.27" departSpeed="0.00" departDelay="0.00" arrival="20.00" arrivalLane="133126040#0_0" arrivalPos="80.39" arrivalSpeed="14.43" duration="20.00" routeLength="149.31" waitingTime="0.00" waitingCount="0" stopTime="0.00" timeLoss="10.89" rerouteNo="0" devices="tripinfo_flow_route_16_duration_20250327_1930.0" vType="car" speedFactor="1.05" vaporized=""/>
    <tripinfo id="flow_route_2_duration_20250327_1930.0" depart="0.00" departLane="1318793173#0_0" departPos="58.93" departSpeed="0.00" departDelay="0.00" arrival="21.00" arrivalLane="189835257_0" arrivalPos="46.92" arrivalSpeed="16.11" duration="21.00" routeLength="167.93" waitingTime="0.00" waitingCount="0" stopTime="0.00" timeLoss="9.59" rerouteNo="0" devices="tripinfo_flow_route_2_duration_20250327_1930.0" vType="car" speedFactor="1.06" vaporized=""/>
    <tripinfo id="flow_route_17_duration_20250327_1930.0" depart="0.00" departLane="137406408#0_0" departPos="24.41" departSpeed="0.00" departDelay="0.00" arrival="22.00" arrivalLane="1254771874#0_0" arrivalPos="63.27" arrivalSpeed="15.84" duration="22.00" routeLength="182.06" waitingTime="0.00" waitingCount="0" stopTime="0.00" timeLoss="9.88" rerouteNo="0" devices="tripinfo_flow_route_17_duration_20250327_1930.0" vType="car" speedFactor="0.89" vaporized=""/>
    <tripinfo id="flow_route_9_duration_20250327_1930.0" depart="0.00" departLane="1318793173#0_0" departPos="0.65" departSpeed="0.00" departDelay="0.00" arrival="24.00" arrivalLane="1254771874#0_1" arrivalPos="11.63" arrivalSpeed="11.17" duration="24.00" routeLength="169.44" waitingTime="0.00" waitingCount="0" stopTime="0.00" timeLoss="12.40" rerouteNo="0" devices="tripinfo_flow_route_9_duration_20250327_1930.0" vType="car" speedFactor="1.01" vaporized=""/>
    <tripinfo id="flow_route_2_duration_20250327_1930.1" depart="4.00" departLane="1318793173#0_0" departPos="34.79" departSpeed="0.00" departDelay="0.67" arrival="28.00" arrivalLane="189835257_0" arrivalPos="46.11" arrivalSpeed="14.39" duration="24.00" routeLength="191.25" waitingTime="0.00" waitingCount="0" stopTime="0.00" timeLoss="11.00" rerouteNo="0" devices="tripinfo_flow_route_2_duration_20250327_1930.1" vType="car" speedFactor="0.94" vaporized=""/>
    <tripinfo id="flow_route_3_duration_20250327_1930.1" depart="14.00" departLane="1318793173#0_0" departPos="104.24" departSpeed="0.00" departDelay="5.43" arrival="29.00" arrivalLane="291974733#0_1" arrivalPos="59.36" arrivalSpeed="11.08" duration="15.00" routeLength="92.08" waitingTime="0.00" waitingCount="0" stopTime="0.00" timeLoss="9.38" rerouteNo="0" devices="tripinfo_flow_route_3_duration_20250327_1930.1" vType="car" speedFactor="1.03" vaporized=""/>
    <tripinfo id="flow_route_17_duration_20250327_1930.2" depart="17.00" departLane="137406408#0_0" departPos="88.60" departSpeed="0.00" departDelay="2.00" arrival="33.00" arrivalLane="1254771874#0_0" arrivalPos="42.93" arrivalSpeed="11.66" duration="16.00" routeLength="97.54" waitingTime="0.00" waitingCount="0" stopTime="0.00" timeLoss="9.36" rerouteNo="0" devices="tripinfo_flow_route_17_duration_20250327_1930.2" vType="car" speedFactor="0.94" vaporized=""/>
    <tripinfo id="flow_route_2_duration_20250327_1930.4" depart="19.00" departLane="1318793173#0_0" departPos="103.20" departSpeed="0.00" departDelay="5.67" arrival="35.00" arrivalLane="189835257_0" arrivalPos="21.66" arrivalSpeed="12.69" duration="16.00" routeLength="98.40" waitingTime="0.00" waitingCount="0" stopTime="0.00" timeLoss="8.06" rerouteNo="0" devices="tripinfo_flow_route_2_duration_20250327_1930.4" vType="car" speedFactor="0.88" vaporized=""/>
    <tripinfo id="flow_route_16_duration_20250327_1930.1" depart="13.00" departLane="137406408#0_0" departPos="11.57" departSpeed="0.00" departDelay="4.43" arrival="37.00" arrivalLane="133126040#0_0" arrivalPos="101.57" arrivalSpeed="16.58" duration="24.00" routeLength="211.18" waitingTime="0.00" waitingCount="0" stopTime="0.00" timeLoss="11.18" rerouteNo="0" devices="tripinfo_flow_route_16_duration_20250327_1930.1" vType="car" speedFactor="1.05" vaporized=""/>
    <tripinfo id="flow_route_2_duration_20250327_1930.3" depart="15.00" departLane="1318793173#0_0" departPos="61.77" departSpeed="0.00" departDelay="5.00" arrival="37.00" arrivalLane="189835257_0" arrivalPos="20.88" arrivalSpeed="13.32" duration="22.00" routeLength="139.05" waitingTime="0.00" waitingCount="0" stopTime="0.00" timeLoss="12.39" rerouteNo="0" devices="tripinfo_flow_route_2_duration_20250327_1930.3" vType="car" speedFactor="1.12" vaporized=""/>
    <tripinfo id="flow_route_2_duration_20250327_1930.2" depart="7.00" departLane="1318793173#0_0" departPos="4.99" departSpeed="0.00" departDelay="0.33" arrival="40.00" arrivalLane="189835257_0" arrivalPos="36.00" arrivalSpeed="13.83" duration="33.00" routeLength="210.95" waitingTime="0.00" waitingCount="0" stopTime="0.00" timeLoss="16.70" rerouteNo="0" devices="tripinfo_flow_route_2_duration_20250327_1930.2" vType="car" speedFactor="0.86" vaporized=""/>
    <tripinfo id="flow_route_3_duration_20250327_1930.2" depart="20.00" departLane="1318793173#0_0" departPos="7.24" departSpeed="0.00" departDelay="2.86" arrival="40.00" arrivalLane="291974733#0_1" arrivalPos="28.84" arrivalSpeed="14.54" duration="20.00" routeLength="158.56" waitingTime="0.00" waitingCount="0" stopTime="0.00" timeLoss="10.45" rerouteNo="0" devices="tripinfo_flow_route_3_duration_20250327_1930.2" vType="car" speedFactor="1.02" vaporized=""/>
    <tripinfo id="flow_route_17_duration_20250327_1930.1" depart="8.00" departLane="137406408#0_0" departPos="28.34" departSpeed="0.00" departDelay="0.50" arrival="41.00" arrivalLane="1254771874#0_0" arrivalPos="131.12" arrivalSpeed="16.19" duration="33.00" routeLength="245.99" waitingTime="0.00" waitingCount="0" stopTime="0.00" timeLoss="17.17" rerouteNo="0" devices="tripinfo_flow_route_17_duration_20250327_1930.1" vType="car" speedFactor="1.09" vaporized=""/>
    <tripinfo id="flow_route_2_duration_20250327_1930.6" depart="21.00" departLane="1318793173#0_0" departPos="33.92" departSpeed="0.00" departDelay="1.00" arrival="46.00" arrivalLane="189835257_0" arrivalPos="1.47" arrivalSpeed="11.75" duration="25.00" routeLength="147.49" waitingTime="0.00" waitingCount="0" stopTime="0.00" timeLoss="15.27" rerouteNo="0" devices="tripinfo_flow_route_2_duration_20250327_1930.6" vType="car" speedFactor="0.97" vaporized=""/>
    <tripinfo id="flow_route_2_duration_20250327_1930.7" depart="28.00" departLane="1318793173#0_0" departPos="89.22" departSpeed="0.00" departDelay="4.67" arrival="47.00" arrivalLane="189835257_0" arrivalPos="38.01" arrivalSpeed="13.81" duration="19.00" routeLength="128.74" waitingTime="0.00" waitingCount="0" stopTime="0.00" timeLoss="9.90" rerouteNo="0" devices="tripinfo_flow_route_2_duration_20250327_1930.7" vType="car" speedFactor="0.95" vaporized=""/>
    <tripinfo id="flow_route_3_duration_20250327_1930.3" depart="31.00" departLane="1318793173#0_0" departPos="45.94" departSpeed="0.00" departDelay="5.29" arrival="49.00" arrivalLane="291974733#0_2" arrivalPos="19.90" arrivalSpeed="13.04" duration="18.00" routeLength="110.92" waitingTime="0.00" waitingCount="0" stopTime="0.00" timeLoss="10.72" rerouteNo="0" devices="tripinfo_flow_route_3_duration_20250327_1930.3" vType="car" speedFactor="1.13" vaporized=""/>
    <tripinfo id="flow_route_2_duration_20250327_1930.5" depart="19.00" departLane="1318793173#0_0" departPos="19.82" departSpeed="0.00" departDelay="2.34" arrival="51.00" arrivalLane="189835257_0" arrivalPos="36.42" arrivalSpeed="14.65" duration="32.00" routeLength="196.54" waitingTime="0.00" waitingCount="0" stopTime="0.00" timeLoss="18.99" rerouteNo="0" devices="tripinfo_flow_route_2_duration_20250327_1930.5" vType="car" speedFactor="1.16" vaporized=""/>
    <tripinfo id="flow_route_9_duration_20250327_1930.2" depart="23.00" departLane="1318793173#0_0" departPos="5.06" departSpeed="0.00" departDelay="3.00" arrival="52.00" arrivalLane="1254771874#0_1" arrivalPos="71.28" arrivalSpeed="13.86" duration="29.00" routeLength="224.69" waitingTime="0.00" waitingCount="0" stopTime="0.00" timeLoss="13.05" rerouteNo="0" devices="tripinfo_flow_route_9_duration_20250327_1930.2" vType="car" speedFactor="0.89" vaporized=""/>
    <tripinfo id="flow_route_2_duration_20250327_1930.8" depart="34.00" departLane="1318793173#0_0" departPos="44.43" departSpeed="0.00" departDelay="7.34" arrival="54.00" arrivalLane="189835257_0" arrivalPos="20.52" arrivalSpeed="16.10" duration="20.00" routeLength="156.04" waitingTime="0.00" waitingCount="0" stopTime="0.00" timeLoss="9.62" rerouteNo="0" devices="tripinfo_flow_route_2_duration_20250327_1930.8" vType="car" speedFactor="1.18" vaporized=""/>
    <tripinfo id="flow_route_9_duration_20250327_1930.1" depart="16.00" departLane="1318793173#0_0" departPos="72.20" departSpeed="0.00" departDelay="6.00" arrival="55.00" arrivalLane="1254771874#0_0" arrivalPos="139.14" arrivalSpeed="16.55" duration="39.00" routeLength="225.40" waitingTime="5.00" waitingCount="1" stopTime="0.00" timeLoss="23.72" rerouteNo="0" devices="tripinfo_flow_route_9_duration_20250327_1930.1" vType="car" speedFactor="0.99" vaporized=""/>
    <tripinfo id="flow_route_3_duration_20250327_1930.4" depart="40.00" departLane="1318793173#0_0" departPos="97.74" departSpeed="0.00" departDelay="5.72" arrival="56.00" arrivalLane="291974733#0_1" arrivalPos="65.54" arrivalSpeed="11.87" duration="16.00" routeLength="104.76" waitingTime="0.00" waitingCount="0" stopTime="0.00" timeLoss="9.61" rerouteNo="0" devices="tripinfo_flow_route_3_duration_20250327_1930.4" vType="car" speedFactor="1.18" vaporized=""/>
    <tripinfo id="flow_route_2_duration_20250327_1930.14" depart="48.00" departLane="1318793173#0_0" departPos="99.28" departSpeed="0.00" departDelay="1.34" arrival="65.00" arrivalLane="189835257_0" arrivalPos="24.77" arrivalSpeed="13.18" duration="17.00" routeLength="105.43" waitingTime="0.00" waitingCount="0" stopTime="0.00" timeLoss="8.16" rerouteNo="0" devices="tripinfo_flow_route_2_duration_20250327_1930.14" vType="car" speedFactor="0.85" vaporized=""/>
    <tripinfo id="flow_route_3_duration_20250327_1930.5" depart="46.00" departLane="1318793173#0_0" departPos="18.10" departSpeed="0.00" departDelay="3.15" arrival="66.00" arrivalLane="291974733#0_1" arrivalPos="35.55" arrivalSpeed="14.76" duration="20.00" routeLength="154.41" waitingTime="0.00" waitingCount="0" stopTime="0.00" timeLoss="10.66" rerouteNo="0" devices="tripinfo_flow_route_3_duration_20250327_1930.5" vType="car" speedFactor="1.09" vaporized=""/>
    <tripinfo id="flow_route_2_duration_20250327_1930.13" depart="46.00" departLane="1318793173#0_0" departPos="86.24" departSpeed="0.00" departDelay="2.67" arrival="69.00" arrivalLane="189835257_0" arrivalPos="45.11" arrivalSpeed="13.57" duration="23.00" routeLength="138.81" waitingTime="0.00" waitingCount="0" stopTime="0.00" timeLoss="12.16" rerouteNo="0" devices="tripinfo_flow_route_2_duration_20250327_1930.13" vType="car" speedFactor="0.90" vaporized=""/>
    <tripinfo id="flow_route_2_duration_20250327_1930.10" depart="38.00" departLane="1318793173#0_0" departPos="40.16" departSpeed="0.00" departDelay="4.67" arrival="70.00" arrivalLane="189835257_0" arrivalPos="15.60" arrivalSpeed="12.70" duration="32.00" routeLength="155.38" waitingTime="0.00" waitingCount="0" stopTime="0.00" timeLoss="21.13" rerouteNo="0" devices="tripinfo_flow_route_2_duration_20250327_1930.10" vType="car" speedFactor="0.97" vaporized=""/>
    <tripinfo id="flow_route_2_duration_20250327_1930.11" depart="43.00" departLane="1318793173#0_0" departPos="64.05" departSpeed="0.00" departDelay="6.34" arrival="70.00" arrivalLane="189835257_0" arrivalPos="37.51" arrivalSpeed="13.82" duration="27.00" routeLength="153.39" waitingTime="0.00" waitingCount="0" stopTime="0.00" timeLoss="15.18" rerouteNo="0" devices="tripinfo_flow_route_2_duration_20250327_1930.11" vType="car" speedFactor="0.90" vaporized=""/>
    <tripinfo id="flow_route_2_duration_20250327_1930.9" depart="37.00" departLane="1318793173#0_0" departPos="13.43" departSpeed="0.00" departDelay="7.00" arrival="72.00" arrivalLane="189835257_0" arrivalPos="19.23" arrivalSpeed="13.95" duration="35.00" routeLength="185.74" waitingTime="0.00" waitingCount="0" stopTime="0.00" timeLoss="22.68" rerouteNo="0" devices="tripinfo_flow_route_2_duration_20250327_1930.9" vType="car" speedFactor="1.15" vaporized=""/>
    <tripinfo id="flow_route_9_duration_20250327_1930.3" depart="37.00" departLane="1318793173#0_0" departPos="77.08" departSpeed="0.00" departDelay="7.00" arrival="72.00" arrivalLane="1254771874#0_1" arrivalPos="249.70" arrivalSpeed="16.57" duration="35.00" routeLength="331.08" waitingTime="0.00" waitingCount="0" stopTime="0.00" timeLoss="13.52" rerouteNo="0" devices="tripinfo_flow_route_9_duration_20250327_1930.3" vType="car" speedFactor="1.01" vaporized=""/>
    <tripinfo id="flow_route_2_duration_20250327_1930.15" depart="50.00" departLane="1318793173#0_0" departPos="44.51" departSpeed="0.00" departDelay="0.01" arrival="72.00" arrivalLane="189835257_0" arrivalPos="0.61" arrivalSpeed="13.00" duration="22.00" routeLength="136.04" waitingTime="0.00" waitingCount="0" stopTime="0.00" timeLoss="13.02" rerouteNo="0" devices="tripinfo_flow_route_2_duration_20250327_1930.15" vType="car" speedFactor="1.17" vaporized=""/>
    <tripinfo id="flow_route_2_duration_20250327_1930.12" depart="45.00" departLane="1318793173#0_0" departPos="1.58" departSpeed="0.00" departDelay="5.00" arrival="76.00" arrivalLane="189835257_0" arrivalPos="35.56" arrivalSpeed="14.94" duration="31.00" routeLength="213.92" waitingTime="0.00" waitingCount="0" stopTime="0.00" timeLoss="16.83" rerouteNo="0" devices="tripinfo_flow_route_2_duration_20250327_1930.12" vType="car" speedFactor="0.96" vaporized=""/>
    <tripinfo id="flow_route_9_duration_20250327_1930.4" depart="46.00" departLane="1318793173#0_0" departPos="97.63" departSpeed="0.00" departDelay="6.00" arrival="76.00" arrivalLane="1254771874#0_0" arrivalPos="250.05" arrivalSpeed="16.53" duration="30.00" routeLength="310.89" waitingTime="0.00" waitingCount="0" stopTime="0.00" timeLoss="9.85" rerouteNo="0" devices="tripinfo_flow_route_9_duration_20250327_1930.4" vType="car" speedFactor="1.09" vaporized=""/>
    <tripinfo id="flow_route_13_duration_20250327_1930.1" depart="15.00" departLane="1252820503#0_0" departPos="120.17" departSpeed="0.00" departDelay="0.00" arrival="84.00" arrivalLane="291974733#0_0" arrivalPos="20.91" arrivalSpeed="7.33" duration="69.00" routeLength="57.90" waitingTime="51.00" waitingCount="1" stopTime="0.00" timeLoss="64.30" rerouteNo="0" devices="tripinfo_flow_route_13_duration_20250327_1930.1" vType="car" speedFactor="0.94" vaporized=""/>
    <tripinfo id="flow_route_13_duration_20250327_1930.2" depart="30.00" departLane="1252820503#0_0" departPos="92.57" departSpeed="0.00" departDelay="0.00" arrival="84.00" arrivalLane="291974733#0_0" arrivalPos="2.23" arrivalSpeed="5.98" duration="54.00" routeLength="66.83" waitingTime="34.00" waitingCount="1" stopTime="0.00" timeLoss="49.01" rerouteNo="0" devices="tripinfo_flow_route_13_duration_20250327_1930.2" vType="car" speedFactor="1.17" vaporized=""/>
    <tripinfo id="flow_route_13_duration_20250327_1930.0" depart="0.00" departLane="1252820503#0_0" departPos="99.64" departSpeed="0.00" departDelay="0.00" arrival="85.00" arrivalLane="291974733#0_0" arrivalPos="46.05" arrivalSpeed="10.03" duration="85.00" routeLength="103.57" waitingTime="61.00" waitingCount="1" stopTime="0.00" timeLoss="77.44" rerouteNo="0" devices="tripinfo_flow_route_13_duration_20250327_1930.0" vType="car" speedFactor="1.08" vaporized=""/>
    <tripinfo id="flow_route_15_duration_20250327_1930.0" depart="1.00" departLane="1252820503#0_0" departPos="8.92" departSpeed="0.00" departDelay="1.00" arrival="85.00" arrivalLane="133126040#0_1" arrivalPos="4.72" arrivalSpeed="7.67" duration="84.00" routeLength="174.98" waitingTime="52.00" waitingCount="1" stopTime="0.00" timeLoss="72.70" rerouteNo="0" devices="tripinfo_flow_route_15_duration_20250327_1930.0" vType="car" speedFactor="0.83" vaporized=""/>
    <tripinfo id="flow_route_2_duration_20250327_1930.17" depart="65.00" departLane="1318793173#0_0" departPos="50.34" departSpeed="0.00" departDelay="8.34" arrival="85.00" arrivalLane="189835257_0" arrivalPos="8.30" arrivalSpeed="14.53" duration="20.00" routeLength="137.90" waitingTime="0.00" waitingCount="0" stopTime="0.00" timeLoss="10.55" rerouteNo="0" devices="tripinfo_flow_route_2_duration_20250327_1930.17" vType="car" speedFactor="1.02" vaporized=""/>
    <tripinfo id="flow_route_2_duration_20250327_1930.16" depart="64.00" departLane="1318793173#0_0" departPos="27.07" departSpeed="0.00" departDelay="10.67" arrival="86.00" arrivalLane="189835257_0" arrivalPos="8.08" arrivalSpeed="13.98" duration="22.00" routeLength="160.94" waitingTime="0.00" waitingCount="0" stopTime="0.00" timeLoss="11.59" rerouteNo="0" devices="tripinfo_flow_route_2_duration_20250327_1930.16" vType="car" speedFactor="1.14" vaporized=""/>
    <tripinfo id="flow_route_14_duration_20250327_1930.1" depart="11.00" departLane="1252820503#0_0" departPos="4.42" departSpeed="0.00" departDelay="1.00" arrival="95.00" arrivalLane="1254771874#0_0" arrivalPos="60.51" arrivalSpeed="14.39" duration="84.00" routeLength="265.97" waitingTime="44.00" waitingCount="1" stopTime="0.00" timeLoss="67.53" rerouteNo="0" devices="tripinfo_flow_route_14_duration_20250327_1930.1" vType="car" speedFactor="0.93" vaporized=""/>
    <tripinfo id="flow_route_15_duration_20250327_1930.2" depart="40.00" departLane="1252820503#0_0" departPos="63.79" departSpeed="0.00" departDelay="0.00" arrival="95.00" arrivalLane="133126040#0_1" arrivalPos="16.61" arrivalSpeed="10.81" duration="55.00" routeLength="132.00" waitingTime="27.00" waitingCount="1" stopTime="0.00" timeLoss="46.72" rerouteNo="0" devices="tripinfo_flow_route_15_duration_20250327_1930.2" vType="car" speedFactor="1.04" vaporized=""/>
    <tripinfo id="flow_route_14_duration_20250327_1930.0" depart="0.00" departLane="1252820503#0_0" departPos="69.02" departSpeed="0.00" departDelay="0.00" arrival="97.00" arrivalLane="1254771874#0_0" arrivalPos="150.80" arrivalSpeed="16.16" duration="97.00" routeLength="291.67" waitingTime="57.00" waitingCount="1" stopTime="0.00" timeLoss="78.68" rerouteNo="0" devices="tripinfo_flow_route_14_duration_20250327_1930.0" vType="car" speedFactor="1.03" vaporized=""/>
    <tripinfo id="flow_route_15_duration_20250327_1930.1" depart="21.00" departLane="1252820503#0_0" departPos="83.97" departSpeed="0.00" departDelay="1.00" arrival="97.00" arrivalLane="133126040#0_1" arrivalPos="100.38" arrivalSpeed="14.52" duration="76.00" routeLength="195.60" waitingTime="43.00" waitingCount="1" stopTime="0.00" timeLoss="62.76" rerouteNo="0" devices="tripinfo_flow_route_15_duration_20250327_1930.1" vType="car" speedFactor="0.87" vaporized=""/>
    <tripinfo id="flow_route_14_duration_20250327_1930.3" depart="32.00" departLane="1252820503#0_0" departPos="84.93" departSpeed="0.00" departDelay="2.00" arrival="98.00" arrivalLane="1254771874#0_0" arrivalPos="77.39" arrivalSpeed="15.05" duration="66.00" routeLength="202.34" waitingTime="32.00" waitingCount="1" stopTime="0.00" timeLoss="53.44" rerouteNo="0" devices="tripinfo_flow_route_14_duration_20250327_1930.3" vType="car" speedFactor="0.99" vaporized=""/>
    <tripinfo id="flow_route_14_duration_20250327_1930.2" depart="21.00" departLane="1252820503#0_0" departPos="12.73" departSpeed="0.00" departDelay="1.00" arrival="103.00" arrivalLane="1254771874#0_1" arrivalPos="139.77" arrivalSpeed="16.45" duration="82.00" routeLength="336.91" waitingTime="37.00" waitingCount="1" stopTime="0.00" timeLoss="61.36" rerouteNo="0" devices="tripinfo_flow_route_14_duration_20250327_1930.2" vType="car" speedFactor="0.83" vaporized=""/>
    <tripinfo id="flow_route_13_duration_20250327_1930.3" depart="45.00" departLane="1252820503#0_0" departPos="71.46" departSpeed="0.00" departDelay="0.00" arrival="103.00" arrivalLane="291974733#0_0" arrivalPos="88.53" arrivalSpeed="12.79" duration="58.00" routeLength="174.22" waitingTime="22.00" waitingCount="1" stopTime="0.00" timeLoss="44.72" rerouteNo="0" devices="tripinfo_flow_route_13_duration_20250327_1930.3" vType="car" speedFactor="0.88" vaporized=""/>
    <tripinfo id="flow_route_14_duration_20250327_1930.4" depart="40.00" departLane="1252820503#0_0" departPos="98.20" departSpeed="0.00" departDelay="0.00" arrival="108.00" arrivalLane="1254771874#0_0" arrivalPos="216.12" arrivalSpeed="16.19" duration="68.00" routeLength="327.80" waitingTime="29.00" waitingCount="1" stopTime="0.00" timeLoss="47.89" rerouteNo="0" devices="tripinfo_flow_route_14_duration_20250327_1930.4" vType="car" speedFactor="1.04" vaporized=""/>
    <tripinfo id="flow_route_14_duration_20250327_1930.5" depart="51.00" departLane="1252820503#0_0" departPos="58.25" departSpeed="0.00" departDelay="1.00" arrival="113.00" arrivalLane="1254771874#0_1" arrivalPos="232.40" arrivalSpeed="16.46" duration="62.00" routeLength="384.02" waitingTime="17.00" waitingCount="1" stopTime="0.00" timeLoss="38.55" rerouteNo="0" devices="tripinfo_flow_route_14_duration_20250327_1930.5" vType="car" speedFactor="1.10" vaporized=""/>
    <tripinfo id="flow_route_16_duration_20250327_1930.4" depart="36.00" departLane="137406408#0_0" departPos="25.96" departSpeed="0.00" departDelay="1.72" arrival="120.00" arrivalLane="133126040#0_2" arrivalPos="10.98" arrivalSpeed="7.68" duration="84.00" routeLength="106.22" waitingTime="58.00" waitingCount="1" stopTime="0.00" timeLoss="77.54" rerouteNo="0" devices="tripinfo_flow_route_16_duration_20250327_1930.4" vType="car" speedFactor="1.10" vaporized=""/>
    <tripinfo id="flow_route_16_duration_20250327_1930.2" depart="19.00" departLane="137406408#0_0" departPos="14.01" departSpeed="0.00" departDelay="1.86" arrival="125.00" arrivalLane="133126040#0_1" arrivalPos="53.28" arrivalSpeed="11.16" duration="106.00" routeLength="160.45" waitingTime="74.00" waitingCount="1" stopTime="0.00" timeLoss="96.24" rerouteNo="0" devices="tripinfo_flow_route_16_duration_20250327_1930.2" vType="car" speedFactor="1.01" vaporized=""/>
    <tripinfo id="flow_route_16_duration_20250327_1930.3" depart="26.00" departLane="137406408#0_0" departPos="56.78" departSpeed="0.00" departDelay="0.29" arrival="127.00" arrivalLane="133126040#0_0" arrivalPos="73.41" arrivalSpeed="12.96" duration="101.00" routeLength="137.82" waitingTime="72.00" waitingCount="1" stopTime="0.00" timeLoss="91.41" rerouteNo="0" devices="tripinfo_flow_route_16_duration_20250327_1930.3" vType="car" speedFactor="0.93" vaporized=""/>
    <tripinfo id="flow_route_17_duration_20250327_1930.4" depart="30.00" departLane="137406408#0_0" departPos="45.47" departSpeed="0.00" departDelay="0.00" arrival="127.00" arrivalLane="1254771874#0_0" arrivalPos="26.77" arrivalSpeed="11.33" duration="97.00" routeLength="124.50" waitingTime="69.00" waitingCount="1" stopTime="0.00" timeLoss="88.68" rerouteNo="0" devices="tripinfo_flow_route_17_duration_20250327_1930.4" vType="car" speedFactor="1.02" vaporized=""/>
    <tripinfo id="flow_route_16_duration_20250327_1930.6" depart="53.00" departLane="137406408#0_0" departPos="30.72" departSpeed="0.00" departDelay="1.57" arrival="127.00" arrivalLane="133126040#0_2" arrivalPos="52.72" arrivalSpeed="11.08" duration="74.00" routeLength="143.19" waitingTime="44.00" waitingCount="1" stopTime="0.00" timeLoss="65.20" rerouteNo="0" devices="tripinfo_flow_route_16_duration_20250327_1930.6" vType="car" speedFactor="1.00" vaporized=""/>
    <tripinfo id="flow_route_3_duration_20250327_1930.6" depart="60.00" departLane="1318793173#0_0" departPos="24.42" departSpeed="0.00" departDelay="8.57" arrival="128.00" arrivalLane="291974733#0_1" arrivalPos="93.40" arrivalSpeed="14.56" duration="68.00" routeLength="205.93" waitingTime="33.00" waitingCount="1" stopTime="0.00" timeLoss="54.88" rerouteNo="0" devices="tripinfo_flow_route_3_duration_20250327_1930.6" vType="car" speedFactor="1.00" vaporized=""/>
    <tripinfo id="flow_route_16_duration_20250327_1930.5" depart="47.00" departLane="137406408#0_0" departPos="31.28" departSpeed="0.00" departDelay="4.15" arrival="129.00" arrivalLane="133126040#0_1" arrivalPos="73.64" arrivalSpeed="13.47" duration="82.00" routeLength="163.55" waitingTime="52.00" waitingCount="1" stopTime="0.00" timeLoss="71.68" rerouteNo="0" devices="tripinfo_flow_route_16_duration_20250327_1930.5" vType="car" speedFactor="1.00" vaporized=""/>
    <tripinfo id="flow_route_17_duration_20250327_1930.3" depart="23.00" departLane="137406408#0_0" departPos="7.38" departSpeed="0.00" departDelay="0.50" arrival="130.00" arrivalLane="1254771874#0_0" arrivalPos="46.18" arrivalSpeed="11.79" duration="107.00" routeLength="182.01" waitingTime="69.00" waitingCount="1" stopTime="0.00" timeLoss="95.00" rerouteNo="0" devices="tripinfo_flow_route_17_duration_20250327_1930.3" vType="car" speedFactor="0.92" vaporized=""/>
    <tripinfo id="flow_route_17_duration_20250327_1930.6" depart="47.00" departLane="137406408#0_0" departPos="0.08" departSpeed="0.00" departDelay="2.00" arrival="140.00" arrivalLane="1254771874#0_0" arrivalPos="140.40" arrivalSpeed="16.27" duration="93.00" routeLength="283.53" waitingTime="47.00" waitingCount="1" stopTime="0.00" timeLoss="73.92" rerouteNo="0" devices="tripinfo_flow_route_17_duration_20250327_1930.6" vType="car" speedFactor="0.85" vaporized=""/>
    <tripinfo id="flow_route_17_duration_20250327_1930.7" depart="57.00" departLane="137406408#0_0" departPos="11.95" departSpeed="0.00" departDelay="4.50" arrival="140.00" arrivalLane="1254771874#0_0" arrivalPos="118.32" arrivalSpeed="16.47" duration="83.00" routeLength="249.58" waitingTime="47.00" waitingCount="1" stopTime="0.00" timeLoss="66.62" rerouteNo="0" devices="tripinfo_flow_route_17_duration_20250327_1930.7" vType="car" speedFactor="0.90" vaporized=""/>
    <tripinfo id="flow_route_17_duration_20250327_1930.5" depart="38.00" departLane="137406408#0_0" departPos="3.93" departSpeed="0.00" departDelay="0.50" arrival="144.00" arrivalLane="1254771874#0_0" arrivalPos="225.46" arrivalSpeed="16.44" duration="106.00" routeLength="364.73" waitingTime="61.00" waitingCount="1" stopTime="0.00" timeLoss="82.92" rerouteNo="0" devices="tripinfo_flow_route_17_duration_20250327_1930.5" vType="car" speedFactor="1.03" vaporized=""/>
    <tripinfo id="flow_route_9_duration_20250327_1930.5" depart="59.00" departLane="1318793173#0_0" departPos="12.39" departSpeed="0.00" departDelay="9.00" arrival="144.00" arrivalLane="1254771874#0_1" arrivalPos="124.34" arrivalSpeed="16.28" duration="85.00" routeLength="270.41" waitingTime="42.00" waitingCount="2" stopTime="0.00" timeLoss="66.67" rerouteNo="0" devices="tripinfo_flow_route_9_duration_20250327_1930.5" vType="car" speedFactor="1.02" vaporized=""/>
</tripinfos>
