<?xml version="1.0" encoding="UTF-8"?>

<!-- generated on 2025-05-06 21:09:14 by Eclipse SUMO sumo Version 1.20.0
<configuration xmlns:xsi="http://www.w3.org/2001/XMLSchema-instance" xsi:noNamespaceSchemaLocation="http://sumo.dlr.de/xsd/sumoConfiguration.xsd">

    <input>
        <net-file value="osm.net.xml"/>
        <route-files value="xml/route_rl_cluster_2271368471_4779869278_9.rou.xml"/>
    </input>

    <output>
        <tripinfo-output value="xml/tripinfo_rl_cluster_2271368471_4779869278_9.xml"/>
    </output>

    <traci_server>
        <remote-port value="58669"/>
    </traci_server>

</configuration>
-->

<tripinfos xmlns:xsi="http://www.w3.org/2001/XMLSchema-instance" xsi:noNamespaceSchemaLocation="http://sumo.dlr.de/xsd/tripinfo_file.xsd">
    <tripinfo id="flow_route_36_duration_20250327_2130.0" depart="0.00" departLane="485211947#0_0" departPos="162.24" departSpeed="0.00" departDelay="0.00" arrival="23.00" arrivalLane="137415945#0_0" arrivalPos="6.94" arrivalSpeed="15.19" duration="23.00" routeLength="189.23" waitingTime="0.00" waitingCount="0" stopTime="0.00" timeLoss="10.24" rerouteNo="0" devices="tripinfo_flow_route_36_duration_20250327_2130.0" vType="car" speedFactor="0.94" vaporized=""/>
    <tripinfo id="flow_route_35_duration_20250327_2130.1" depart="7.00" departLane="485211947#0_0" departPos="141.65" departSpeed="0.00" departDelay="0.33" arrival="32.00" arrivalLane="1369578054_0" arrivalPos="163.10" arrivalSpeed="16.44" duration="25.00" routeLength="218.90" waitingTime="0.00" waitingCount="0" stopTime="0.00" timeLoss="10.98" rerouteNo="0" devices="tripinfo_flow_route_35_duration_20250327_2130.1" vType="car" speedFactor="1.05" vaporized=""/>
    <tripinfo id="flow_route_35_duration_20250327_2130.0" depart="0.00" departLane="485211947#0_0" departPos="11.17" departSpeed="0.00" departDelay="0.00" arrival="33.00" arrivalLane="1369578054_0" arrivalPos="74.16" arrivalSpeed="12.69" duration="33.00" routeLength="260.46" waitingTime="0.00" waitingCount="0" stopTime="0.00" timeLoss="14.36" rerouteNo="0" devices="tripinfo_flow_route_35_duration_20250327_2130.0" vType="car" speedFactor="0.89" vaporized=""/>
    <tripinfo id="flow_route_37_duration_20250327_2130.0" depart="0.00" departLane="485211947#0_0" departPos="59.66" departSpeed="0.00" departDelay="0.00" arrival="33.00" arrivalLane="-430406005#1_1" arrivalPos="133.07" arrivalSpeed="16.37" duration="33.00" routeLength="286.39" waitingTime="0.00" waitingCount="0" stopTime="0.00" timeLoss="12.79" rerouteNo="0" devices="tripinfo_flow_route_37_duration_20250327_2130.0" vType="car" speedFactor="0.86" vaporized=""/>
    <tripinfo id="flow_route_37_duration_20250327_2130.1" depart="9.00" departLane="485211947#0_0" departPos="76.22" departSpeed="0.00" departDelay="0.43" arrival="36.00" arrivalLane="-430406005#1_1" arrivalPos="59.17" arrivalSpeed="11.93" duration="27.00" routeLength="195.93" waitingTime="0.00" waitingCount="0" stopTime="0.00" timeLoss="13.52" rerouteNo="0" devices="tripinfo_flow_route_37_duration_20250327_2130.1" vType="car" speedFactor="0.93" vaporized=""/>
    <tripinfo id="flow_route_36_duration_20250327_2130.1" depart="8.00" departLane="485211947#0_0" departPos="5.53" departSpeed="0.00" departDelay="1.33" arrival="41.00" arrivalLane="137415945#0_1" arrivalPos="3.01" arrivalSpeed="16.41" duration="33.00" routeLength="342.02" waitingTime="0.00" waitingCount="0" stopTime="0.00" timeLoss="12.07" rerouteNo="0" devices="tripinfo_flow_route_36_duration_20250327_2130.1" vType="car" speedFactor="1.12" vaporized=""/>
    <tripinfo id="flow_route_35_duration_20250327_2130.2" depart="15.00" departLane="485211947#0_0" departPos="51.67" departSpeed="0.00" departDelay="1.67" arrival="41.00" arrivalLane="1369578054_0" arrivalPos="50.46" arrivalSpeed="10.88" duration="26.00" routeLength="196.25" waitingTime="0.00" waitingCount="0" stopTime="0.00" timeLoss="13.36" rerouteNo="0" devices="tripinfo_flow_route_35_duration_20250327_2130.2" vType="car" speedFactor="0.97" vaporized=""/>
    <tripinfo id="flow_route_30_duration_20250327_2130.0" depart="0.00" departLane="1235147073.116_0" departPos="7.14" departSpeed="0.00" departDelay="0.00" arrival="47.00" arrivalLane="133126030#0_0" arrivalPos="8.43" arrivalSpeed="6.83" duration="47.00" routeLength="175.81" waitingTime="16.00" waitingCount="1" stopTime="0.00" timeLoss="36.37" rerouteNo="0" devices="tripinfo_flow_route_30_duration_20250327_2130.0" vType="car" speedFactor="1.01" vaporized=""/>
    <tripinfo id="flow_route_30_duration_20250327_2130.1" depart="18.00" departLane="1235147073.116_0" departPos="1.32" departSpeed="0.00" departDelay="8.00" arrival="53.00" arrivalLane="133126030#0_1" arrivalPos="178.72" arrivalSpeed="14.64" duration="35.00" routeLength="351.92" waitingTime="0.00" waitingCount="0" stopTime="0.00" timeLoss="10.20" rerouteNo="0" devices="tripinfo_flow_route_30_duration_20250327_2130.1" vType="car" speedFactor="0.88" vaporized=""/>
    <tripinfo id="flow_route_31_duration_20250327_2130.2" depart="27.00" departLane="1235147073.116_0" departPos="4.31" departSpeed="0.00" departDelay="16.09" arrival="54.00" arrivalLane="-430406005#1_0" arrivalPos="15.90" arrivalSpeed="8.83" duration="27.00" routeLength="174.55" waitingTime="0.00" waitingCount="0" stopTime="0.00" timeLoss="15.19" rerouteNo="0" devices="tripinfo_flow_route_31_duration_20250327_2130.2" vType="car" speedFactor="1.02" vaporized=""/>
    <tripinfo id="flow_route_31_duration_20250327_2130.0" depart="2.00" departLane="1235147073.116_0" departPos="0.71" departSpeed="0.00" departDelay="2.00" arrival="56.00" arrivalLane="-430406005#1_0" arrivalPos="87.77" arrivalSpeed="12.58" duration="54.00" routeLength="250.02" waitingTime="16.00" waitingCount="1" stopTime="0.00" timeLoss="37.97" rerouteNo="0" devices="tripinfo_flow_route_31_duration_20250327_2130.0" vType="car" speedFactor="1.08" vaporized=""/>
    <tripinfo id="flow_route_32_duration_20250327_2130.2" depart="24.00" departLane="1235147073.116_0" departPos="6.98" departSpeed="0.00" departDelay="14.77" arrival="58.00" arrivalLane="1369578054_1" arrivalPos="79.13" arrivalSpeed="13.26" duration="34.00" routeLength="251.88" waitingTime="0.00" waitingCount="0" stopTime="0.00" timeLoss="16.49" rerouteNo="0" devices="tripinfo_flow_route_32_duration_20250327_2130.2" vType="car" speedFactor="0.94" vaporized=""/>
    <tripinfo id="flow_route_32_duration_20250327_2130.0" depart="7.00" departLane="1235147073.116_0" departPos="0.50" departSpeed="0.00" departDelay="7.00" arrival="60.00" arrivalLane="1369578054_1" arrivalPos="176.77" arrivalSpeed="16.23" duration="53.00" routeLength="356.01" waitingTime="8.00" waitingCount="1" stopTime="0.00" timeLoss="30.77" rerouteNo="0" devices="tripinfo_flow_route_32_duration_20250327_2130.0" vType="car" speedFactor="1.03" vaporized=""/>
    <tripinfo id="flow_route_31_duration_20250327_2130.3" depart="35.00" departLane="1235147073.116_0" departPos="8.41" departSpeed="0.00" departDelay="18.64" arrival="62.00" arrivalLane="-430406005#1_0" arrivalPos="31.96" arrivalSpeed="9.86" duration="27.00" routeLength="186.51" waitingTime="0.00" waitingCount="0" stopTime="0.00" timeLoss="12.39" rerouteNo="0" devices="tripinfo_flow_route_31_duration_20250327_2130.3" vType="car" speedFactor="0.83" vaporized=""/>
    <tripinfo id="flow_route_32_duration_20250327_2130.4" depart="35.00" departLane="1235147073.116_0" departPos="0.22" departSpeed="0.00" departDelay="16.54" arrival="62.00" arrivalLane="1369578054_1" arrivalPos="14.04" arrivalSpeed="9.90" duration="27.00" routeLength="193.54" waitingTime="0.00" waitingCount="0" stopTime="0.00" timeLoss="13.76" rerouteNo="0" devices="tripinfo_flow_route_32_duration_20250327_2130.4" vType="car" speedFactor="0.95" vaporized=""/>
    <tripinfo id="flow_route_31_duration_20250327_2130.1" depart="14.00" departLane="1235147073.116_0" departPos="2.81" departSpeed="0.00" departDelay="8.55" arrival="63.00" arrivalLane="-430406005#1_0" arrivalPos="158.52" arrivalSpeed="16.51" duration="49.00" routeLength="318.67" waitingTime="4.00" waitingCount="1" stopTime="0.00" timeLoss="28.90" rerouteNo="0" devices="tripinfo_flow_route_31_duration_20250327_2130.1" vType="car" speedFactor="1.03" vaporized=""/>
    <tripinfo id="flow_route_30_duration_20250327_2130.2" depart="39.00" departLane="1235147073.116_0" departPos="7.45" departSpeed="0.00" departDelay="19.00" arrival="64.00" arrivalLane="133126030#0_1" arrivalPos="65.19" arrivalSpeed="15.20" duration="25.00" routeLength="232.27" waitingTime="0.00" waitingCount="0" stopTime="0.00" timeLoss="9.91" rerouteNo="0" devices="tripinfo_flow_route_30_duration_20250327_2130.2" vType="car" speedFactor="0.93" vaporized=""/>
    <tripinfo id="flow_route_32_duration_20250327_2130.3" depart="28.00" departLane="1235147073.116_0" departPos="13.50" departSpeed="0.00" departDelay="14.16" arrival="66.00" arrivalLane="1369578054_1" arrivalPos="173.81" arrivalSpeed="16.32" duration="38.00" routeLength="340.04" waitingTime="0.00" waitingCount="0" stopTime="0.00" timeLoss="16.17" rerouteNo="0" devices="tripinfo_flow_route_32_duration_20250327_2130.3" vType="car" speedFactor="1.01" vaporized=""/>
    <tripinfo id="flow_route_31_duration_20250327_2130.4" depart="43.00" departLane="1235147073.116_0" departPos="5.61" departSpeed="0.00" departDelay="21.18" arrival="67.00" arrivalLane="-430406005#1_0" arrivalPos="18.70" arrivalSpeed="9.67" duration="24.00" routeLength="176.05" waitingTime="0.00" waitingCount="0" stopTime="0.00" timeLoss="12.36" rerouteNo="0" devices="tripinfo_flow_route_31_duration_20250327_2130.4" vType="car" speedFactor="0.99" vaporized=""/>
    <tripinfo id="flow_route_32_duration_20250327_2130.1" depart="11.00" departLane="1235147073.116_0" departPos="10.23" departSpeed="0.00" departDelay="6.39" arrival="69.00" arrivalLane="1369578054_1" arrivalPos="281.37" arrivalSpeed="16.36" duration="58.00" routeLength="450.87" waitingTime="7.00" waitingCount="1" stopTime="0.00" timeLoss="29.68" rerouteNo="0" devices="tripinfo_flow_route_32_duration_20250327_2130.1" vType="car" speedFactor="1.09" vaporized=""/>
    <tripinfo id="flow_route_31_duration_20250327_2130.5" depart="50.00" departLane="1235147073.116_0" departPos="11.48" departSpeed="0.00" departDelay="22.73" arrival="82.00" arrivalLane="-430406005#1_0" arrivalPos="127.38" arrivalSpeed="16.12" duration="32.00" routeLength="278.87" waitingTime="0.00" waitingCount="0" stopTime="0.00" timeLoss="14.21" rerouteNo="0" devices="tripinfo_flow_route_31_duration_20250327_2130.5" vType="car" speedFactor="1.03" vaporized=""/>
    <tripinfo id="flow_route_33_duration_20250327_2130.0" depart="0.00" departLane="133126008#0_0" departPos="101.07" departSpeed="0.00" departDelay="0.00" arrival="84.00" arrivalLane="1369578054_0" arrivalPos="13.07" arrivalSpeed="8.30" duration="84.00" routeLength="125.36" waitingTime="57.00" waitingCount="1" stopTime="0.00" timeLoss="76.09" rerouteNo="0" devices="tripinfo_flow_route_33_duration_20250327_2130.0" vType="car" speedFactor="0.83" vaporized=""/>
    <tripinfo id="flow_route_32_duration_20250327_2130.5" depart="46.00" departLane="1235147073.116_0" departPos="2.99" departSpeed="0.00" departDelay="22.93" arrival="86.00" arrivalLane="1369578054_1" arrivalPos="212.97" arrivalSpeed="16.15" duration="40.00" routeLength="389.71" waitingTime="1.00" waitingCount="1" stopTime="0.00" timeLoss="15.50" rerouteNo="0" devices="tripinfo_flow_route_32_duration_20250327_2130.5" vType="car" speedFactor="1.02" vaporized=""/>
    <tripinfo id="flow_route_34_duration_20250327_2130.1" depart="13.00" departLane="133126008#0_0" departPos="87.91" departSpeed="0.00" departDelay="3.00" arrival="87.00" arrivalLane="133126030#0_0" arrivalPos="31.12" arrivalSpeed="8.97" duration="74.00" routeLength="130.73" waitingTime="46.00" waitingCount="1" stopTime="0.00" timeLoss="65.65" rerouteNo="0" devices="tripinfo_flow_route_34_duration_20250327_2130.1" vType="car" speedFactor="1.16" vaporized=""/>
    <tripinfo id="flow_route_33_duration_20250327_2130.1" depart="13.00" departLane="133126008#0_0" departPos="54.93" departSpeed="0.00" departDelay="3.00" arrival="90.00" arrivalLane="1369578054_0" arrivalPos="66.86" arrivalSpeed="13.26" duration="77.00" routeLength="225.29" waitingTime="41.00" waitingCount="1" stopTime="0.00" timeLoss="62.38" rerouteNo="0" devices="tripinfo_flow_route_33_duration_20250327_2130.1" vType="car" speedFactor="0.94" vaporized=""/>
    <tripinfo id="flow_route_34_duration_20250327_2130.3" depart="30.00" departLane="133126008#0_0" departPos="76.90" departSpeed="0.00" departDelay="0.00" arrival="92.00" arrivalLane="133126030#0_0" arrivalPos="28.45" arrivalSpeed="9.41" duration="62.00" routeLength="139.07" waitingTime="29.00" waitingCount="1" stopTime="0.00" timeLoss="52.58" rerouteNo="0" devices="tripinfo_flow_route_34_duration_20250327_2130.3" vType="car" speedFactor="1.04" vaporized=""/>
    <tripinfo id="flow_route_29_duration_20250327_2130.0" depart="0.00" departLane="-422986370#2_0" departPos="201.60" departSpeed="0.00" departDelay="0.00" arrival="93.00" arrivalLane="137415945#0_0" arrivalPos="9.07" arrivalSpeed="15.64" duration="93.00" routeLength="253.29" waitingTime="54.00" waitingCount="1" stopTime="0.00" timeLoss="75.60" rerouteNo="0" devices="tripinfo_flow_route_29_duration_20250327_2130.0" vType="car" speedFactor="0.94" vaporized=""/>
    <tripinfo id="flow_route_33_duration_20250327_2130.2" depart="21.00" departLane="133126008#0_0" departPos="65.18" departSpeed="0.00" departDelay="1.00" arrival="93.00" arrivalLane="1369578054_1" arrivalPos="86.91" arrivalSpeed="13.35" duration="72.00" routeLength="235.09" waitingTime="35.00" waitingCount="1" stopTime="0.00" timeLoss="57.78" rerouteNo="0" devices="tripinfo_flow_route_33_duration_20250327_2130.2" vType="car" speedFactor="1.18" vaporized=""/>
    <tripinfo id="flow_route_28_duration_20250327_2130.2" depart="41.00" departLane="-422986370#2_0" departPos="45.93" departSpeed="0.00" departDelay="1.00" arrival="93.00" arrivalLane="-430406005#1_1" arrivalPos="73.55" arrivalSpeed="13.19" duration="52.00" routeLength="362.05" waitingTime="5.00" waitingCount="1" stopTime="0.00" timeLoss="29.47" rerouteNo="0" devices="tripinfo_flow_route_28_duration_20250327_2130.2" vType="car" speedFactor="1.10" vaporized=""/>
    <tripinfo id="flow_route_34_duration_20250327_2130.0" depart="0.00" departLane="133126008#0_0" departPos="47.21" departSpeed="0.00" departDelay="0.00" arrival="94.00" arrivalLane="133126030#0_0" arrivalPos="137.72" arrivalSpeed="14.49" duration="94.00" routeLength="278.03" waitingTime="53.00" waitingCount="1" stopTime="0.00" timeLoss="76.30" rerouteNo="0" devices="tripinfo_flow_route_34_duration_20250327_2130.0" vType="car" speedFactor="1.05" vaporized=""/>
    <tripinfo id="flow_route_34_duration_20250327_2130.2" depart="25.00" departLane="133126008#0_0" departPos="52.89" departSpeed="0.00" departDelay="5.00" arrival="95.00" arrivalLane="133126030#0_0" arrivalPos="39.35" arrivalSpeed="11.42" duration="70.00" routeLength="173.98" waitingTime="27.00" waitingCount="1" stopTime="0.00" timeLoss="58.34" rerouteNo="0" devices="tripinfo_flow_route_34_duration_20250327_2130.2" vType="car" speedFactor="1.15" vaporized=""/>
    <tripinfo id="flow_route_28_duration_20250327_2130.0" depart="0.00" departLane="-422986370#2_0" departPos="1.81" departSpeed="0.00" departDelay="0.00" arrival="96.00" arrivalLane="-430406005#1_1" arrivalPos="159.13" arrivalSpeed="16.41" duration="96.00" routeLength="491.75" waitingTime="41.00" waitingCount="1" stopTime="0.00" timeLoss="65.80" rerouteNo="0" devices="tripinfo_flow_route_28_duration_20250327_2130.0" vType="car" speedFactor="1.06" vaporized=""/>
    <tripinfo id="flow_route_28_duration_20250327_2130.1" depart="22.00" departLane="-422986370#2_0" departPos="187.29" departSpeed="0.00" departDelay="2.00" arrival="96.00" arrivalLane="-430406005#1_0" arrivalPos="128.92" arrivalSpeed="16.51" duration="74.00" routeLength="276.06" waitingTime="34.00" waitingCount="1" stopTime="0.00" timeLoss="56.86" rerouteNo="0" devices="tripinfo_flow_route_28_duration_20250327_2130.1" vType="car" speedFactor="1.13" vaporized=""/>
    <tripinfo id="flow_route_29_duration_20250327_2130.1" depart="10.00" departLane="-422986370#2_0" departPos="72.31" departSpeed="0.00" departDelay="1.43" arrival="97.00" arrivalLane="137415945#0_0" arrivalPos="8.72" arrivalSpeed="15.33" duration="87.00" routeLength="382.23" waitingTime="33.00" waitingCount="1" stopTime="0.00" timeLoss="62.81" rerouteNo="0" devices="tripinfo_flow_route_29_duration_20250327_2130.1" vType="car" speedFactor="0.99" vaporized=""/>
    <tripinfo id="flow_route_34_duration_20250327_2130.5" depart="51.00" departLane="133126008#0_0" departPos="105.03" departSpeed="0.00" departDelay="1.00" arrival="97.00" arrivalLane="133126030#0_0" arrivalPos="6.42" arrivalSpeed="7.10" duration="46.00" routeLength="88.91" waitingTime="21.00" waitingCount="1" stopTime="0.00" timeLoss="40.00" rerouteNo="0" devices="tripinfo_flow_route_34_duration_20250327_2130.5" vType="car" speedFactor="1.02" vaporized=""/>
    <tripinfo id="flow_route_29_duration_20250327_2130.4" depart="36.00" departLane="-422986370#2_0" departPos="239.03" departSpeed="0.00" departDelay="1.72" arrival="102.00" arrivalLane="137415945#0_0" arrivalPos="10.45" arrivalSpeed="14.01" duration="66.00" routeLength="217.24" waitingTime="28.00" waitingCount="1" stopTime="0.00" timeLoss="48.58" rerouteNo="0" devices="tripinfo_flow_route_29_duration_20250327_2130.4" vType="car" speedFactor="0.85" vaporized=""/>
    <tripinfo id="flow_route_33_duration_20250327_2130.5" depart="51.00" departLane="133126008#0_0" departPos="1.31" departSpeed="0.00" departDelay="1.00" arrival="102.00" arrivalLane="1369578054_1" arrivalPos="170.67" arrivalSpeed="16.47" duration="51.00" routeLength="382.72" waitingTime="3.00" waitingCount="1" stopTime="0.00" timeLoss="27.89" rerouteNo="0" devices="tripinfo_flow_route_33_duration_20250327_2130.5" vType="car" speedFactor="1.04" vaporized=""/>
    <tripinfo id="flow_route_29_duration_20250327_2130.2" depart="18.00" departLane="-422986370#2_0" departPos="62.06" departSpeed="0.00" departDelay="0.86" arrival="103.00" arrivalLane="137415945#0_0" arrivalPos="4.00" arrivalSpeed="14.32" duration="85.00" routeLength="387.76" waitingTime="28.00" waitingCount="1" stopTime="0.00" timeLoss="56.66" rerouteNo="0" devices="tripinfo_flow_route_29_duration_20250327_2130.2" vType="car" speedFactor="0.87" vaporized=""/>
    <tripinfo id="flow_route_29_duration_20250327_2130.3" depart="26.00" departLane="-422986370#2_0" departPos="30.41" departSpeed="0.00" departDelay="0.29" arrival="105.00" arrivalLane="137415945#0_0" arrivalPos="5.23" arrivalSpeed="15.15" duration="79.00" routeLength="420.64" waitingTime="24.00" waitingCount="1" stopTime="0.00" timeLoss="51.74" rerouteNo="0" devices="tripinfo_flow_route_29_duration_20250327_2130.3" vType="car" speedFactor="0.97" vaporized=""/>
    <tripinfo id="flow_route_33_duration_20250327_2130.3" depart="30.00" departLane="133126008#0_0" departPos="118.39" departSpeed="0.00" departDelay="0.00" arrival="106.00" arrivalLane="1369578054_1" arrivalPos="253.34" arrivalSpeed="16.44" duration="76.00" routeLength="348.32" waitingTime="33.00" waitingCount="1" stopTime="0.00" timeLoss="54.42" rerouteNo="0" devices="tripinfo_flow_route_33_duration_20250327_2130.3" vType="car" speedFactor="1.04" vaporized=""/>
    <tripinfo id="flow_route_33_duration_20250327_2130.4" depart="40.00" departLane="133126008#0_0" departPos="139.93" departSpeed="0.00" departDelay="0.00" arrival="106.00" arrivalLane="1369578054_0" arrivalPos="255.08" arrivalSpeed="16.27" duration="66.00" routeLength="328.51" waitingTime="29.00" waitingCount="1" stopTime="0.00" timeLoss="45.70" rerouteNo="0" devices="tripinfo_flow_route_33_duration_20250327_2130.4" vType="car" speedFactor="1.00" vaporized=""/>
    <tripinfo id="flow_route_29_duration_20250327_2130.6" depart="52.00" departLane="-422986370#2_0" departPos="221.38" departSpeed="0.00" departDelay="0.57" arrival="107.00" arrivalLane="137415945#0_0" arrivalPos="1.08" arrivalSpeed="16.15" duration="55.00" routeLength="225.53" waitingTime="18.00" waitingCount="1" stopTime="0.00" timeLoss="39.02" rerouteNo="0" devices="tripinfo_flow_route_29_duration_20250327_2130.6" vType="car" speedFactor="0.97" vaporized=""/>
    <tripinfo id="flow_route_34_duration_20250327_2130.4" depart="40.00" departLane="133126008#0_0" departPos="82.62" departSpeed="0.00" departDelay="0.00" arrival="108.00" arrivalLane="133126030#0_0" arrivalPos="151.82" arrivalSpeed="14.85" duration="68.00" routeLength="256.72" waitingTime="26.00" waitingCount="1" stopTime="0.00" timeLoss="49.93" rerouteNo="0" devices="tripinfo_flow_route_34_duration_20250327_2130.4" vType="car" speedFactor="0.90" vaporized=""/>
    <tripinfo id="flow_route_29_duration_20250327_2130.5" depart="44.00" departLane="-422986370#2_0" departPos="34.35" departSpeed="0.00" departDelay="1.15" arrival="109.00" arrivalLane="137415945#0_0" arrivalPos="9.21" arrivalSpeed="16.36" duration="65.00" routeLength="420.68" waitingTime="11.00" waitingCount="1" stopTime="0.00" timeLoss="38.54" rerouteNo="0" devices="tripinfo_flow_route_29_duration_20250327_2130.5" vType="car" speedFactor="1.08" vaporized=""/>
    <tripinfo id="flow_route_37_duration_20250327_2130.2" depart="18.00" departLane="485211947#0_0" departPos="33.48" departSpeed="0.00" departDelay="0.86" arrival="125.00" arrivalLane="-430406005#1_1" arrivalPos="60.54" arrivalSpeed="11.27" duration="107.00" routeLength="240.05" waitingTime="71.00" waitingCount="1" stopTime="0.00" timeLoss="90.46" rerouteNo="0" devices="tripinfo_flow_route_37_duration_20250327_2130.2" vType="car" speedFactor="0.92" vaporized=""/>
    <tripinfo id="flow_route_37_duration_20250327_2130.3" depart="26.00" departLane="485211947#0_0" departPos="86.41" departSpeed="0.00" departDelay="0.29" arrival="127.00" arrivalLane="-430406005#1_1" arrivalPos="61.23" arrivalSpeed="11.78" duration="101.00" routeLength="187.81" waitingTime="68.00" waitingCount="1" stopTime="0.00" timeLoss="88.99" rerouteNo="0" devices="tripinfo_flow_route_37_duration_20250327_2130.3" vType="car" speedFactor="1.18" vaporized=""/>
    <tripinfo id="flow_route_36_duration_20250327_2130.3" depart="21.00" departLane="485211947#0_0" departPos="56.09" departSpeed="0.00" departDelay="1.00" arrival="131.00" arrivalLane="137415945#0_0" arrivalPos="5.39" arrivalSpeed="15.49" duration="110.00" routeLength="293.82" waitingTime="68.00" waitingCount="1" stopTime="0.00" timeLoss="92.02" rerouteNo="0" devices="tripinfo_flow_route_36_duration_20250327_2130.3" vType="car" speedFactor="1.17" vaporized=""/>
    <tripinfo id="flow_route_35_duration_20250327_2130.6" depart="40.00" departLane="485211947#0_0" departPos="156.32" departSpeed="0.00" departDelay="0.00" arrival="131.00" arrivalLane="1369578054_0" arrivalPos="117.90" arrivalSpeed="14.62" duration="91.00" routeLength="159.04" waitingTime="63.00" waitingCount="1" stopTime="0.00" timeLoss="80.19" rerouteNo="0" devices="tripinfo_flow_route_35_duration_20250327_2130.6" vType="car" speedFactor="1.14" vaporized=""/>
    <tripinfo id="flow_route_35_duration_20250327_2130.5" depart="35.00" departLane="485211947#0_0" departPos="164.39" departSpeed="0.00" departDelay="1.67" arrival="132.00" arrivalLane="1369578054_0" arrivalPos="171.79" arrivalSpeed="14.80" duration="97.00" routeLength="204.86" waitingTime="66.00" waitingCount="1" stopTime="0.00" timeLoss="82.16" rerouteNo="0" devices="tripinfo_flow_route_35_duration_20250327_2130.5" vType="car" speedFactor="0.90" vaporized=""/>
    <tripinfo id="flow_route_36_duration_20250327_2130.2" depart="16.00" departLane="485211947#0_0" departPos="12.41" departSpeed="0.00" departDelay="2.67" arrival="133.00" arrivalLane="137415945#0_1" arrivalPos="12.16" arrivalSpeed="14.66" duration="117.00" routeLength="344.28" waitingTime="67.00" waitingCount="1" stopTime="0.00" timeLoss="93.74" rerouteNo="0" devices="tripinfo_flow_route_36_duration_20250327_2130.2" vType="car" speedFactor="0.89" vaporized=""/>
    <tripinfo id="flow_route_37_duration_20250327_2130.6" depart="52.00" departLane="485211947#0_0" departPos="112.02" departSpeed="0.00" departDelay="0.57" arrival="133.00" arrivalLane="-430406005#1_1" arrivalPos="76.84" arrivalSpeed="13.69" duration="81.00" routeLength="177.81" waitingTime="47.00" waitingCount="1" stopTime="0.00" timeLoss="68.17" rerouteNo="0" devices="tripinfo_flow_route_37_duration_20250327_2130.6" vType="car" speedFactor="0.94" vaporized=""/>
    <tripinfo id="flow_route_36_duration_20250327_2130.4" depart="30.00" departLane="485211947#0_0" departPos="63.84" departSpeed="0.00" departDelay="3.34" arrival="135.00" arrivalLane="137415945#0_1" arrivalPos="9.94" arrivalSpeed="14.79" duration="105.00" routeLength="290.63" waitingTime="63.00" waitingCount="1" stopTime="0.00" timeLoss="85.07" rerouteNo="0" devices="tripinfo_flow_route_36_duration_20250327_2130.4" vType="car" speedFactor="0.90" vaporized=""/>
    <tripinfo id="flow_route_37_duration_20250327_2130.5" depart="46.00" departLane="485211947#0_0" departPos="59.45" departSpeed="0.00" departDelay="3.15" arrival="135.00" arrivalLane="-430406005#1_1" arrivalPos="79.40" arrivalSpeed="13.72" duration="89.00" routeLength="232.93" waitingTime="47.00" waitingCount="1" stopTime="0.00" timeLoss="73.75" rerouteNo="0" devices="tripinfo_flow_route_37_duration_20250327_2130.5" vType="car" speedFactor="1.12" vaporized=""/>
    <tripinfo id="flow_route_37_duration_20250327_2130.4" depart="37.00" departLane="485211947#0_0" departPos="122.04" departSpeed="0.00" departDelay="2.72" arrival="136.00" arrivalLane="-430406005#1_1" arrivalPos="168.73" arrivalSpeed="16.27" duration="99.00" routeLength="259.67" waitingTime="63.00" waitingCount="1" stopTime="0.00" timeLoss="81.03" rerouteNo="0" devices="tripinfo_flow_route_37_duration_20250327_2130.4" vType="car" speedFactor="0.85" vaporized=""/>
    <tripinfo id="flow_route_36_duration_20250327_2130.7" depart="49.00" departLane="485211947#0_0" departPos="146.94" departSpeed="0.00" departDelay="2.34" arrival="137.00" arrivalLane="137415945#0_1" arrivalPos="5.93" arrivalSpeed="14.41" duration="88.00" routeLength="203.52" waitingTime="57.00" waitingCount="1" stopTime="0.00" timeLoss="73.32" rerouteNo="0" devices="tripinfo_flow_route_36_duration_20250327_2130.7" vType="car" speedFactor="0.88" vaporized=""/>
    <tripinfo id="flow_route_35_duration_20250327_2130.4" depart="29.00" departLane="485211947#0_0" departPos="72.39" departSpeed="0.00" departDelay="2.34" arrival="138.00" arrivalLane="1369578054_0" arrivalPos="198.31" arrivalSpeed="16.11" duration="109.00" routeLength="323.38" waitingTime="62.00" waitingCount="1" stopTime="0.00" timeLoss="88.14" rerouteNo="0" devices="tripinfo_flow_route_35_duration_20250327_2130.4" vType="car" speedFactor="1.10" vaporized=""/>
    <tripinfo id="flow_route_36_duration_20250327_2130.5" depart="37.00" departLane="485211947#0_0" departPos="0.16" departSpeed="0.00" departDelay="3.67" arrival="138.00" arrivalLane="137415945#0_1" arrivalPos="1.31" arrivalSpeed="14.42" duration="101.00" routeLength="345.68" waitingTime="54.00" waitingCount="1" stopTime="0.00" timeLoss="77.34" rerouteNo="0" devices="tripinfo_flow_route_36_duration_20250327_2130.5" vType="car" speedFactor="0.88" vaporized=""/>
    <tripinfo id="flow_route_35_duration_20250327_2130.3" depart="21.00" departLane="485211947#0_0" departPos="4.42" departSpeed="0.00" departDelay="1.00" arrival="139.00" arrivalLane="1369578054_0" arrivalPos="203.36" arrivalSpeed="16.43" duration="118.00" routeLength="396.40" waitingTime="63.00" waitingCount="1" stopTime="0.00" timeLoss="93.68" rerouteNo="0" devices="tripinfo_flow_route_35_duration_20250327_2130.3" vType="car" speedFactor="1.01" vaporized=""/>
    <tripinfo id="flow_route_36_duration_20250327_2130.6" depart="40.00" departLane="485211947#0_0" departPos="61.67" departSpeed="0.00" departDelay="0.00" arrival="139.00" arrivalLane="137415945#0_0" arrivalPos="12.69" arrivalSpeed="16.53" duration="99.00" routeLength="295.55" waitingTime="56.00" waitingCount="1" stopTime="0.00" timeLoss="80.59" rerouteNo="0" devices="tripinfo_flow_route_36_duration_20250327_2130.6" vType="car" speedFactor="1.02" vaporized=""/>
    <tripinfo id="flow_route_36_duration_20250327_2130.8" depart="56.00" departLane="485211947#0_0" departPos="34.83" departSpeed="0.00" departDelay="2.67" arrival="140.00" arrivalLane="137415945#0_1" arrivalPos="1.40" arrivalSpeed="15.72" duration="84.00" routeLength="311.09" waitingTime="41.00" waitingCount="1" stopTime="0.00" timeLoss="63.99" rerouteNo="0" devices="tripinfo_flow_route_36_duration_20250327_2130.8" vType="car" speedFactor="0.96" vaporized=""/>
    <tripinfo id="flow_route_35_duration_20250327_2130.8" depart="54.00" departLane="485211947#0_0" departPos="2.16" departSpeed="0.00" departDelay="0.67" arrival="141.00" arrivalLane="1369578054_0" arrivalPos="118.19" arrivalSpeed="15.52" duration="87.00" routeLength="313.49" waitingTime="39.00" waitingCount="1" stopTime="0.00" timeLoss="66.54" rerouteNo="0" devices="tripinfo_flow_route_35_duration_20250327_2130.8" vType="car" speedFactor="1.06" vaporized=""/>
    <tripinfo id="flow_route_35_duration_20250327_2130.7" depart="47.00" departLane="485211947#0_0" departPos="44.18" departSpeed="0.00" departDelay="0.34" arrival="147.00" arrivalLane="1369578054_0" arrivalPos="254.92" arrivalSpeed="15.22" duration="100.00" routeLength="408.21" waitingTime="51.00" waitingCount="1" stopTime="0.00" timeLoss="72.82" rerouteNo="0" devices="tripinfo_flow_route_35_duration_20250327_2130.7" vType="car" speedFactor="0.94" vaporized=""/>