<?xml version="1.0" encoding="UTF-8"?>

<!-- generated on 2025-05-06 21:08:15 by Eclipse SUMO sumo Version 1.20.0
<configuration xmlns:xsi="http://www.w3.org/2001/XMLSchema-instance" xsi:noNamespaceSchemaLocation="http://sumo.dlr.de/xsd/sumoConfiguration.xsd">

    <input>
        <net-file value="osm.net.xml"/>
        <route-files value="xml/route_static_cluster_356722183_3828703848_3.rou.xml"/>
    </input>

    <output>
        <tripinfo-output value="xml/tripinfo_static_cluster_356722183_3828703848_3.xml"/>
    </output>

    <traci_server>
        <remote-port value="44227"/>
    </traci_server>

</configuration>
-->

<tripinfos xmlns:xsi="http://www.w3.org/2001/XMLSchema-instance" xsi:noNamespaceSchemaLocation="http://sumo.dlr.de/xsd/tripinfo_file.xsd">
    <tripinfo id="flow_route_18_duration_20250327_2050.0" depart="0.00" departLane="133126040#0_0" departPos="80.59" departSpeed="0.00" departDelay="0.00" arrival="13.00" arrivalLane="1318893695#0_0" arrivalPos="9.11" arrivalSpeed="10.19" duration="13.00" routeLength="59.37" waitingTime="0.00" waitingCount="0" stopTime="0.00" timeLoss="8.89" rerouteNo="0" devices="tripinfo_flow_route_18_duration_20250327_2050.0" vType="car" speedFactor="1.01" vaporized=""/>
    <tripinfo id="flow_route_19_duration_20250327_2050.1" depart="9.00" departLane="133126040#0_0" departPos="103.46" departSpeed="0.00" departDelay="0.43" arrival="18.00" arrivalLane="133126031#0_1" arrivalPos="10.78" arrivalSpeed="7.61" duration="9.00" routeLength="36.19" waitingTime="0.00" waitingCount="0" stopTime="0.00" timeLoss="4.98" rerouteNo="0" devices="tripinfo_flow_route_19_duration_20250327_2050.1" vType="car" speedFactor="0.86" vaporized=""/>
    <tripinfo id="flow_route_19_duration_20250327_2050.0" depart="0.00" departLane="133126040#0_0" departPos="0.65" departSpeed="0.00" departDelay="0.00" arrival="32.00" arrivalLane="133126031#0_1" arrivalPos="163.43" arrivalSpeed="16.48" duration="32.00" routeLength="291.65" waitingTime="0.00" waitingCount="0" stopTime="0.00" timeLoss="12.97" rerouteNo="0" devices="tripinfo_flow_route_19_duration_20250327_2050.0" vType="car" speedFactor="1.08" vaporized=""/>
    <tripinfo id="flow_route_0_duration_20250327_2050.0" depart="0.00" departLane="1318793176#1_0" departPos="2.64" departSpeed="0.00" departDelay="0.00" arrival="36.00" arrivalLane="133126031#0_0" arrivalPos="296.30" arrivalSpeed="16.57" duration="36.00" routeLength="414.08" waitingTime="0.00" waitingCount="0" stopTime="0.00" timeLoss="10.35" rerouteNo="0" devices="tripinfo_flow_route_0_duration_20250327_2050.0" vType="car" speedFactor="1.06" vaporized=""/>
    <tripinfo id="flow_route_0_duration_20250327_2050.2" depart="15.00" departLane="1318793176#1_0" departPos="2.58" departSpeed="0.00" departDelay="0.00" arrival="38.00" arrivalLane="133126031#0_0" arrivalPos="74.20" arrivalSpeed="16.18" duration="23.00" routeLength="192.04" waitingTime="0.00" waitingCount="0" stopTime="0.00" timeLoss="11.00" rerouteNo="0" devices="tripinfo_flow_route_0_duration_20250327_2050.2" vType="car" speedFactor="1.12" vaporized=""/>
    <tripinfo id="flow_route_0_duration_20250327_2050.1" depart="9.00" departLane="1318793176#1_0" departPos="1.70" departSpeed="0.00" departDelay="1.50" arrival="46.00" arrivalLane="133126031#0_0" arrivalPos="295.18" arrivalSpeed="16.39" duration="37.00" routeLength="413.90" waitingTime="0.00" waitingCount="0" stopTime="0.00" timeLoss="11.00" rerouteNo="0" devices="tripinfo_flow_route_0_duration_20250327_2050.1" vType="car" speedFactor="0.94" vaporized=""/>
    <tripinfo id="flow_route_19_duration_20250327_2050.2" depart="18.00" departLane="133126040#0_0" departPos="74.80" departSpeed="0.00" departDelay="0.86" arrival="47.00" arrivalLane="133126031#0_1" arrivalPos="222.19" arrivalSpeed="16.31" duration="29.00" routeLength="276.25" waitingTime="0.00" waitingCount="0" stopTime="0.00" timeLoss="10.29" rerouteNo="0" devices="tripinfo_flow_route_19_duration_20250327_2050.2" vType="car" speedFactor="0.99" vaporized=""/>
    <tripinfo id="flow_route_48_duration_20250327_2050.0" depart="2.00" departLane="380351865#0_0" departPos="1.03" departSpeed="0.00" departDelay="2.00" arrival="52.00" arrivalLane="133126031#0_0" arrivalPos="14.50" arrivalSpeed="8.26" duration="50.00" routeLength="180.64" waitingTime="17.00" waitingCount="1" stopTime="0.00" timeLoss="32.25" rerouteNo="0" devices="tripinfo_flow_route_48_duration_20250327_2050.0" vType="car" speedFactor="0.83" vaporized=""/>
    <tripinfo id="flow_route_47_duration_20250327_2050.0" depart="0.00" departLane="380351865#0_0" departPos="11.49" departSpeed="0.00" departDelay="0.00" arrival="57.00" arrivalLane="1318793173#0_1" arrivalPos="63.76" arrivalSpeed="11.29" duration="57.00" routeLength="213.71" waitingTime="20.00" waitingCount="1" stopTime="0.00" timeLoss="40.26" rerouteNo="0" devices="tripinfo_flow_route_47_duration_20250327_2050.0" vType="car" speedFactor="1.03" vaporized=""/>
    <tripinfo id="flow_route_47_duration_20250327_2050.1" depart="21.00" departLane="380351865#0_0" departPos="5.25" departSpeed="0.00" departDelay="9.00" arrival="57.00" arrivalLane="1318793173#0_1" arrivalPos="13.98" arrivalSpeed="8.85" duration="36.00" routeLength="170.17" waitingTime="1.00" waitingCount="1" stopTime="0.00" timeLoss="21.66" rerouteNo="0" devices="tripinfo_flow_route_47_duration_20250327_2050.1" vType="car" speedFactor="1.03" vaporized=""/>
    <tripinfo id="flow_route_19_duration_20250327_2050.3" depart="26.00" departLane="133126040#0_0" departPos="107.32" departSpeed="0.00" departDelay="0.29" arrival="58.00" arrivalLane="133126031#0_0" arrivalPos="308.64" arrivalSpeed="16.54" duration="32.00" routeLength="330.19" waitingTime="0.00" waitingCount="0" stopTime="0.00" timeLoss="10.47" rerouteNo="0" devices="tripinfo_flow_route_19_duration_20250327_2050.3" vType="car" speedFactor="1.16" vaporized=""/>
    <tripinfo id="flow_route_0_duration_20250327_2050.3" depart="23.00" departLane="1318793176#1_0" departPos="6.85" departSpeed="0.00" departDelay="0.50" arrival="61.00" arrivalLane="133126031#0_0" arrivalPos="317.55" arrivalSpeed="16.25" duration="38.00" routeLength="431.12" waitingTime="0.00" waitingCount="0" stopTime="0.00" timeLoss="10.27" rerouteNo="0" devices="tripinfo_flow_route_0_duration_20250327_2050.3" vType="car" speedFactor="0.94" vaporized=""/>
    <tripinfo id="flow_route_47_duration_20250327_2050.2" depart="37.00" departLane="380351865#0_0" departPos="7.12" departSpeed="0.00" departDelay="13.00" arrival="61.00" arrivalLane="1318793173#0_1" arrivalPos="16.41" arrivalSpeed="12.63" duration="24.00" routeLength="170.73" waitingTime="1.00" waitingCount="1" stopTime="0.00" timeLoss="8.59" rerouteNo="0" devices="tripinfo_flow_route_47_duration_20250327_2050.2" vType="car" speedFactor="0.94" vaporized=""/>
    <tripinfo id="flow_route_48_duration_20250327_2050.1" depart="10.00" departLane="380351865#0_0" departPos="0.51" departSpeed="0.00" departDelay="5.72" arrival="62.00" arrivalLane="133126031#0_1" arrivalPos="102.11" arrivalSpeed="14.60" duration="52.00" routeLength="268.77" waitingTime="11.00" waitingCount="1" stopTime="0.00" timeLoss="29.92" rerouteNo="0" devices="tripinfo_flow_route_48_duration_20250327_2050.1" vType="car" speedFactor="0.89" vaporized=""/>
    <tripinfo id="flow_route_49_duration_20250327_2050.0" depart="8.00" departLane="380351865#0_0" departPos="6.77" departSpeed="0.00" departDelay="8.00" arrival="63.00" arrivalLane="1318893695#0_0" arrivalPos="148.83" arrivalSpeed="15.22" duration="55.00" routeLength="285.94" waitingTime="15.00" waitingCount="1" stopTime="0.00" timeLoss="33.45" rerouteNo="0" devices="tripinfo_flow_route_49_duration_20250327_2050.0" vType="car" speedFactor="1.05" vaporized=""/>
    <tripinfo id="flow_route_0_duration_20250327_2050.4" depart="30.00" departLane="1318793176#1_0" departPos="0.85" departSpeed="0.00" departDelay="0.00" arrival="63.00" arrivalLane="133126031#0_0" arrivalPos="68.89" arrivalSpeed="11.91" duration="33.00" routeLength="188.46" waitingTime="0.00" waitingCount="0" stopTime="0.00" timeLoss="20.54" rerouteNo="0" devices="tripinfo_flow_route_0_duration_20250327_2050.4" vType="car" speedFactor="1.01" vaporized=""/>
    <tripinfo id="flow_route_48_duration_20250327_2050.2" depart="15.00" departLane="380351865#0_0" departPos="2.87" departSpeed="0.00" departDelay="6.43" arrival="67.00" arrivalLane="133126031#0_0" arrivalPos="100.35" arrivalSpeed="14.32" duration="52.00" routeLength="264.65" waitingTime="9.00" waitingCount="1" stopTime="0.00" timeLoss="32.61" rerouteNo="0" devices="tripinfo_flow_route_48_duration_20250327_2050.2" vType="car" speedFactor="1.09" vaporized=""/>
    <tripinfo id="flow_route_48_duration_20250327_2050.3" depart="24.00" departLane="380351865#0_0" departPos="0.48" departSpeed="0.00" departDelay="11.15" arrival="71.00" arrivalLane="133126031#0_0" arrivalPos="136.79" arrivalSpeed="16.14" duration="47.00" routeLength="303.49" waitingTime="1.00" waitingCount="1" stopTime="0.00" timeLoss="24.89" rerouteNo="0" devices="tripinfo_flow_route_48_duration_20250327_2050.3" vType="car" speedFactor="1.05" vaporized=""/>
    <tripinfo id="flow_route_48_duration_20250327_2050.5" depart="31.00" departLane="380351865#0_0" departPos="12.32" departSpeed="0.00" departDelay="9.58" arrival="72.00" arrivalLane="133126031#0_1" arrivalPos="192.90" arrivalSpeed="16.22" duration="41.00" routeLength="347.75" waitingTime="0.00" waitingCount="0" stopTime="0.00" timeLoss="14.34" rerouteNo="0" devices="tripinfo_flow_route_48_duration_20250327_2050.5" vType="car" speedFactor="0.88" vaporized=""/>
    <tripinfo id="flow_route_0_duration_20250327_2050.7" depart="53.00" departLane="1318793176#1_0" departPos="10.45" departSpeed="0.00" departDelay="0.50" arrival="75.00" arrivalLane="133126031#0_0" arrivalPos="14.16" arrivalSpeed="8.69" duration="22.00" routeLength="124.14" waitingTime="0.00" waitingCount="0" stopTime="0.00" timeLoss="13.51" rerouteNo="0" devices="tripinfo_flow_route_0_duration_20250327_2050.7" vType="car" speedFactor="1.02" vaporized=""/>
    <tripinfo id="flow_route_1_duration_20250327_2050.0" depart="4.00" departLane="1318793176#1_0" departPos="0.49" departSpeed="0.00" departDelay="4.00" arrival="79.00" arrivalLane="1318793173#0_1" arrivalPos="77.00" arrivalSpeed="12.64" duration="75.00" routeLength="200.41" waitingTime="40.00" waitingCount="1" stopTime="0.00" timeLoss="61.41" rerouteNo="0" devices="tripinfo_flow_route_1_duration_20250327_2050.0" vType="car" speedFactor="0.94" vaporized=""/>
    <tripinfo id="flow_route_48_duration_20250327_2050.4" depart="29.00" departLane="380351865#0_0" departPos="1.47" departSpeed="0.00" departDelay="11.86" arrival="80.00" arrivalLane="133126031#0_0" arrivalPos="237.96" arrivalSpeed="16.22" duration="51.00" routeLength="403.66" waitingTime="0.00" waitingCount="0" stopTime="0.00" timeLoss="20.75" rerouteNo="0" devices="tripinfo_flow_route_48_duration_20250327_2050.4" vType="car" speedFactor="0.93" vaporized=""/>
    <tripinfo id="flow_route_0_duration_20250327_2050.6" depart="45.00" departLane="1318793176#1_0" departPos="3.66" departSpeed="0.00" departDelay="0.00" arrival="81.00" arrivalLane="133126031#0_0" arrivalPos="98.54" arrivalSpeed="14.00" duration="36.00" routeLength="215.30" waitingTime="0.00" waitingCount="0" stopTime="0.00" timeLoss="22.06" rerouteNo="0" devices="tripinfo_flow_route_0_duration_20250327_2050.6" vType="car" speedFactor="1.18" vaporized=""/>
    <tripinfo id="flow_route_19_duration_20250327_2050.6" depart="52.00" departLane="133126040#0_0" departPos="51.92" departSpeed="0.00" departDelay="0.57" arrival="89.00" arrivalLane="133126031#0_1" arrivalPos="46.94" arrivalSpeed="11.23" duration="37.00" routeLength="123.89" waitingTime="2.00" waitingCount="1" stopTime="0.00" timeLoss="28.10" rerouteNo="0" devices="tripinfo_flow_route_19_duration_20250327_2050.6" vType="car" speedFactor="1.17" vaporized=""/>
    <tripinfo id="flow_route_19_duration_20250327_2050.4" depart="35.00" departLane="133126040#0_0" departPos="55.47" departSpeed="0.00" departDelay="0.72" arrival="91.00" arrivalLane="133126031#0_1" arrivalPos="140.74" arrivalSpeed="15.18" duration="56.00" routeLength="214.15" waitingTime="17.00" waitingCount="2" stopTime="0.00" timeLoss="40.86" rerouteNo="0" devices="tripinfo_flow_route_19_duration_20250327_2050.4" vType="car" speedFactor="0.89" vaporized=""/>
    <tripinfo id="flow_route_0_duration_20250327_2050.5" depart="38.00" departLane="1318793176#1_0" departPos="3.23" departSpeed="0.00" departDelay="0.50" arrival="93.00" arrivalLane="133126031#0_0" arrivalPos="324.84" arrivalSpeed="16.54" duration="55.00" routeLength="442.03" waitingTime="4.00" waitingCount="1" stopTime="0.00" timeLoss="26.42" rerouteNo="0" devices="tripinfo_flow_route_0_duration_20250327_2050.5" vType="car" speedFactor="0.92" vaporized=""/>
    <tripinfo id="flow_route_19_duration_20250327_2050.5" depart="43.00" departLane="133126040#0_0" departPos="62.05" departSpeed="0.00" departDelay="0.15" arrival="93.00" arrivalLane="133126031#0_1" arrivalPos="141.37" arrivalSpeed="16.23" duration="50.00" routeLength="208.19" waitingTime="12.00" waitingCount="2" stopTime="0.00" timeLoss="36.03" rerouteNo="0" devices="tripinfo_flow_route_19_duration_20250327_2050.5" vType="car" speedFactor="1.13" vaporized=""/>
    <tripinfo id="flow_route_48_duration_20250327_2050.6" depart="43.00" departLane="380351865#0_0" departPos="7.78" departSpeed="0.00" departDelay="17.29" arrival="116.00" arrivalLane="133126031#0_0" arrivalPos="22.27" arrivalSpeed="8.61" duration="73.00" routeLength="181.66" waitingTime="42.00" waitingCount="1" stopTime="0.00" timeLoss="58.44" rerouteNo="0" devices="tripinfo_flow_route_48_duration_20250327_2050.6" vType="car" speedFactor="1.02" vaporized=""/>
    <tripinfo id="flow_route_48_duration_20250327_2050.7" depart="47.00" departLane="380351865#0_0" departPos="1.73" departSpeed="0.00" departDelay="17.01" arrival="120.00" arrivalLane="133126031#0_1" arrivalPos="60.08" arrivalSpeed="11.58" duration="73.00" routeLength="225.52" waitingTime="37.00" waitingCount="1" stopTime="0.00" timeLoss="54.74" rerouteNo="0" devices="tripinfo_flow_route_48_duration_20250327_2050.7" vType="car" speedFactor="0.97" vaporized=""/>
    <tripinfo id="flow_route_48_duration_20250327_2050.9" depart="63.00" departLane="380351865#0_0" departPos="9.79" departSpeed="0.00" departDelay="24.44" arrival="121.00" arrivalLane="133126031#0_0" arrivalPos="34.82" arrivalSpeed="10.98" duration="58.00" routeLength="192.21" waitingTime="25.00" waitingCount="1" stopTime="0.00" timeLoss="42.09" rerouteNo="0" devices="tripinfo_flow_route_48_duration_20250327_2050.9" vType="car" speedFactor="0.95" vaporized=""/>
    <tripinfo id="flow_route_47_duration_20250327_2050.3" depart="58.00" departLane="380351865#0_0" departPos="7.35" departSpeed="0.00" departDelay="22.00" arrival="124.00" arrivalLane="1318793173#0_1" arrivalPos="89.22" arrivalSpeed="13.54" duration="66.00" routeLength="243.30" waitingTime="27.00" waitingCount="1" stopTime="0.00" timeLoss="44.01" rerouteNo="0" devices="tripinfo_flow_route_47_duration_20250327_2050.3" vType="car" speedFactor="0.87" vaporized=""/>
    <tripinfo id="flow_route_47_duration_20250327_2050.4" depart="68.00" departLane="380351865#0_0" departPos="0.25" departSpeed="0.00" departDelay="20.00" arrival="126.00" arrivalLane="1318793173#0_1" arrivalPos="71.52" arrivalSpeed="13.78" duration="58.00" routeLength="232.71" waitingTime="21.00" waitingCount="1" stopTime="0.00" timeLoss="40.93" rerouteNo="0" devices="tripinfo_flow_route_47_duration_20250327_2050.4" vType="car" speedFactor="1.15" vaporized=""/>
    <tripinfo id="flow_route_48_duration_20250327_2050.8" depart="53.00" departLane="380351865#0_0" departPos="6.67" departSpeed="0.00" departDelay="18.72" arrival="131.00" arrivalLane="133126031#0_0" arrivalPos="204.56" arrivalSpeed="16.20" duration="78.00" routeLength="365.06" waitingTime="31.00" waitingCount="1" stopTime="0.00" timeLoss="49.34" rerouteNo="0" devices="tripinfo_flow_route_48_duration_20250327_2050.8" vType="car" speedFactor="0.83" vaporized=""/>
    <tripinfo id="flow_route_48_duration_20250327_2050.10" depart="63.00" departLane="380351865#0_0" departPos="1.76" departSpeed="0.00" departDelay="20.15" arrival="135.00" arrivalLane="133126031#0_1" arrivalPos="236.36" arrivalSpeed="16.26" duration="72.00" routeLength="401.77" waitingTime="22.00" waitingCount="1" stopTime="0.00" timeLoss="42.18" rerouteNo="0" devices="tripinfo_flow_route_48_duration_20250327_2050.10" vType="car" speedFactor="0.93" vaporized=""/>
    <tripinfo id="flow_route_48_duration_20250327_2050.11" depart="74.00" departLane="380351865#0_0" departPos="13.62" departSpeed="0.00" departDelay="26.87" arrival="139.00" arrivalLane="133126031#0_0" arrivalPos="259.72" arrivalSpeed="16.34" duration="65.00" routeLength="413.27" waitingTime="13.00" waitingCount="1" stopTime="0.00" timeLoss="36.11" rerouteNo="0" devices="tripinfo_flow_route_48_duration_20250327_2050.11" vType="car" speedFactor="1.01" vaporized=""/>
    <tripinfo id="flow_route_48_duration_20250327_2050.12" depart="75.00" departLane="380351865#0_0" departPos="5.78" departSpeed="0.00" departDelay="23.58" arrival="143.00" arrivalLane="133126031#0_0" arrivalPos="293.31" arrivalSpeed="16.25" duration="68.00" routeLength="454.69" waitingTime="13.00" waitingCount="1" stopTime="0.00" timeLoss="36.22" rerouteNo="0" devices="tripinfo_flow_route_48_duration_20250327_2050.12" vType="car" speedFactor="0.99" vaporized=""/>
    <tripinfo id="flow_route_48_duration_20250327_2050.13" depart="78.00" departLane="380351865#0_0" departPos="0.20" departSpeed="0.00" departDelay="22.30" arrival="143.00" arrivalLane="133126031#0_1" arrivalPos="300.77" arrivalSpeed="16.23" duration="65.00" routeLength="467.74" waitingTime="11.00" waitingCount="1" stopTime="0.00" timeLoss="31.84" rerouteNo="0" devices="tripinfo_flow_route_48_duration_20250327_2050.13" vType="car" speedFactor="0.97" vaporized=""/>
</tripinfos>
