<?xml version="1.0" encoding="UTF-8"?>

<!-- generated on 2025-05-06 21:07:55 by Eclipse SUMO sumo Version 1.20.0
<configuration xmlns:xsi="http://www.w3.org/2001/XMLSchema-instance" xsi:noNamespaceSchemaLocation="http://sumo.dlr.de/xsd/sumoConfiguration.xsd">

    <input>
        <net-file value="osm.net.xml"/>
        <route-files value="xml/route_static_cluster7571105647_7571105653_cluster_1141265322_11869698130_256036890_4227138136_#4more_1.rou.xml"/>
    </input>

    <output>
        <tripinfo-output value="xml/tripinfo_static_cluster7571105647_7571105653_cluster_1141265322_11869698130_256036890_4227138136_#4more_1.xml"/>
    </output>

    <traci_server>
        <remote-port value="55503"/>
    </traci_server>

</configuration>
-->

<tripinfos xmlns:xsi="http://www.w3.org/2001/XMLSchema-instance" xsi:noNamespaceSchemaLocation="http://sumo.dlr.de/xsd/tripinfo_file.xsd">
    <tripinfo id="flow_route_143_duration_20250327_2240.0" depart="0.00" departLane="1253222187#0_0" departPos="157.10" departSpeed="0.00" departDelay="0.00" arrival="28.00" arrivalLane="1310781056_0" arrivalPos="55.73" arrivalSpeed="16.37" duration="28.00" routeLength="267.13" waitingTime="0.00" waitingCount="0" stopTime="0.00" timeLoss="11.65" rerouteNo="0" devices="tripinfo_flow_route_143_duration_20250327_2240.0" vType="car" speedFactor="1.08" vaporized=""/>
    <tripinfo id="flow_route_142_duration_20250327_2240.0" depart="0.00" departLane="1253222187#0_0" departPos="114.97" departSpeed="0.00" departDelay="0.00" arrival="53.00" arrivalLane="683079388#0_0" arrivalPos="1.17" arrivalSpeed="16.33" duration="53.00" routeLength="684.52" waitingTime="0.00" waitingCount="0" stopTime="0.00" timeLoss="11.35" rerouteNo="0" devices="tripinfo_flow_route_142_duration_20250327_2240.0" vType="car" speedFactor="1.01" vaporized=""/>
    <tripinfo id="flow_route_140_duration_20250327_2240.0" depart="0.00" departLane="809719540#0_0" departPos="199.64" departSpeed="0.00" departDelay="0.00" arrival="54.00" arrivalLane="-809772643#1_0" arrivalPos="184.22" arrivalSpeed="16.37" duration="54.00" routeLength="292.04" waitingTime="15.00" waitingCount="1" stopTime="0.00" timeLoss="36.03" rerouteNo="0" devices="tripinfo_flow_route_140_duration_20250327_2240.0" vType="car" speedFactor="1.06" vaporized=""/>
    <tripinfo id="flow_route_147_duration_20250327_2240.0" depart="5.00" departLane="683079387#1_0" departPos="0.62" departSpeed="0.00" departDelay="5.00" arrival="76.00" arrivalLane="1310781056_0" arrivalPos="4.95" arrivalSpeed="13.77" duration="71.00" routeLength="684.16" waitingTime="2.00" waitingCount="1" stopTime="0.00" timeLoss="21.64" rerouteNo="0" devices="tripinfo_flow_route_147_duration_20250327_2240.0" vType="car" speedFactor="0.83" vaporized=""/>
    <tripinfo id="flow_route_146_duration_20250327_2240.0" depart="0.00" departLane="683079387#1_0" departPos="0.06" departSpeed="0.00" departDelay="0.00" arrival="77.00" arrivalLane="-809772643#1_0" arrivalPos="121.98" arrivalSpeed="16.23" duration="77.00" routeLength="734.89" waitingTime="11.00" waitingCount="1" stopTime="0.00" timeLoss="32.52" rerouteNo="0" devices="tripinfo_flow_route_146_duration_20250327_2240.0" vType="car" speedFactor="1.03" vaporized=""/>
    <tripinfo id="flow_route_141_duration_20250327_2240.1" depart="15.00" departLane="809719540#0_0" departPos="86.48" departSpeed="0.00" departDelay="0.00" arrival="81.00" arrivalLane="683079387#1_1" arrivalPos="8.94" arrivalSpeed="8.04" duration="66.00" routeLength="818.02" waitingTime="0.00" waitingCount="0" stopTime="0.00" timeLoss="14.29" rerouteNo="0" devices="tripinfo_flow_route_141_duration_20250327_2240.1" vType="car" speedFactor="1.05" vaporized=""/>
    <tripinfo id="flow_route_146_duration_20250327_2240.1" depart="20.00" departLane="683079387#1_0" departPos="0.47" departSpeed="0.00" departDelay="0.00" arrival="82.00" arrivalLane="-809772643#1_0" arrivalPos="141.34" arrivalSpeed="14.33" duration="62.00" routeLength="753.84" waitingTime="0.00" waitingCount="0" stopTime="0.00" timeLoss="10.26" rerouteNo="0" devices="tripinfo_flow_route_146_duration_20250327_2240.1" vType="car" speedFactor="0.89" vaporized=""/>
    <tripinfo id="flow_route_141_duration_20250327_2240.0" depart="0.00" departLane="809719540#0_0" departPos="66.48" departSpeed="0.00" departDelay="0.00" arrival="84.00" arrivalLane="683079387#1_1" arrivalPos="7.27" arrivalSpeed="6.39" duration="84.00" routeLength="843.38" waitingTime="5.00" waitingCount="1" stopTime="0.00" timeLoss="27.14" rerouteNo="0" devices="tripinfo_flow_route_141_duration_20250327_2240.0" vType="car" speedFactor="0.94" vaporized=""/>
    <tripinfo id="flow_route_141_duration_20250327_2240.2" depart="30.00" departLane="809719540#0_0" departPos="170.15" departSpeed="0.00" departDelay="0.00" arrival="93.00" arrivalLane="683079387#1_1" arrivalPos="5.24" arrivalSpeed="6.35" duration="63.00" routeLength="737.67" waitingTime="0.00" waitingCount="0" stopTime="0.00" timeLoss="12.59" rerouteNo="0" devices="tripinfo_flow_route_141_duration_20250327_2240.2" vType="car" speedFactor="0.94" vaporized=""/>
    <tripinfo id="flow_route_142_duration_20250327_2240.1" depart="30.00" departLane="1253222187#0_0" departPos="197.99" departSpeed="0.00" departDelay="0.00" arrival="108.00" arrivalLane="683079388#0_0" arrivalPos="7.93" arrivalSpeed="13.82" duration="78.00" routeLength="608.25" waitingTime="19.00" waitingCount="1" stopTime="0.00" timeLoss="34.94" rerouteNo="0" devices="tripinfo_flow_route_142_duration_20250327_2240.1" vType="car" speedFactor="0.86" vaporized=""/>
    <tripinfo id="flow_route_146_duration_20250327_2240.2" depart="40.00" departLane="683079387#1_0" departPos="9.06" departSpeed="0.00" departDelay="0.00" arrival="138.00" arrivalLane="-809772643#1_0" arrivalPos="170.43" arrivalSpeed="16.34" duration="98.00" routeLength="774.34" waitingTime="25.00" waitingCount="1" stopTime="0.00" timeLoss="50.78" rerouteNo="0" devices="tripinfo_flow_route_146_duration_20250327_2240.2" vType="car" speedFactor="1.09" vaporized=""/>
    <tripinfo id="flow_route_141_duration_20250327_2240.3" depart="45.00" departLane="809719540#0_0" departPos="146.20" departSpeed="0.00" departDelay="0.00" arrival="139.00" arrivalLane="683079387#1_1" arrivalPos="4.05" arrivalSpeed="7.18" duration="94.00" routeLength="760.43" waitingTime="22.00" waitingCount="1" stopTime="0.00" timeLoss="45.94" rerouteNo="0" devices="tripinfo_flow_route_141_duration_20250327_2240.3" vType="car" speedFactor="1.03" vaporized=""/>
</tripinfos>
