<?xml version="1.0" encoding="UTF-8"?>

<!-- generated on 2025-05-06 21:07:44 by Eclipse SUMO sumo Version 1.20.0
<configuration xmlns:xsi="http://www.w3.org/2001/XMLSchema-instance" xsi:noNamespaceSchemaLocation="http://sumo.dlr.de/xsd/sumoConfiguration.xsd">

    <input>
        <net-file value="osm.net.xml"/>
        <route-files value="xml/route_static_cluster_356722183_3828703848_0.rou.xml"/>
    </input>

    <output>
        <tripinfo-output value="xml/tripinfo_static_cluster_356722183_3828703848_0.xml"/>
    </output>

    <traci_server>
        <remote-port value="44695"/>
    </traci_server>

</configuration>
-->

<tripinfos xmlns:xsi="http://www.w3.org/2001/XMLSchema-instance" xsi:noNamespaceSchemaLocation="http://sumo.dlr.de/xsd/tripinfo_file.xsd">
    <tripinfo id="flow_route_18_duration_20250327_2230.0" depart="0.00" departLane="133126040#0_0" departPos="80.59" departSpeed="0.00" departDelay="0.00" arrival="13.00" arrivalLane="1318893695#0_0" arrivalPos="9.11" arrivalSpeed="10.23" duration="13.00" routeLength="59.37" waitingTime="0.00" waitingCount="0" stopTime="0.00" timeLoss="8.87" rerouteNo="0" devices="tripinfo_flow_route_18_duration_20250327_2230.0" vType="car" speedFactor="1.01" vaporized=""/>
    <tripinfo id="flow_route_0_duration_20250327_2230.0" depart="0.00" departLane="1318793176#1_0" departPos="2.64" departSpeed="0.00" departDelay="0.00" arrival="36.00" arrivalLane="133126031#0_0" arrivalPos="296.30" arrivalSpeed="16.57" duration="36.00" routeLength="414.08" waitingTime="0.00" waitingCount="0" stopTime="0.00" timeLoss="10.57" rerouteNo="0" devices="tripinfo_flow_route_0_duration_20250327_2230.0" vType="car" speedFactor="1.06" vaporized=""/>
    <tripinfo id="flow_route_19_duration_20250327_2230.2" depart="12.00" departLane="133126040#0_0" departPos="28.56" departSpeed="0.00" departDelay="0.00" arrival="36.00" arrivalLane="133126031#0_1" arrivalPos="43.02" arrivalSpeed="9.46" duration="24.00" routeLength="143.33" waitingTime="0.00" waitingCount="0" stopTime="0.00" timeLoss="14.37" rerouteNo="0" devices="tripinfo_flow_route_19_duration_20250327_2230.2" vType="car" speedFactor="1.03" vaporized=""/>
    <tripinfo id="flow_route_19_duration_20250327_2230.0" depart="0.00" departLane="133126040#0_0" departPos="0.65" departSpeed="0.00" departDelay="0.00" arrival="37.00" arrivalLane="133126031#0_1" arrivalPos="163.43" arrivalSpeed="16.12" duration="37.00" routeLength="291.65" waitingTime="0.00" waitingCount="0" stopTime="0.00" timeLoss="18.13" rerouteNo="0" devices="tripinfo_flow_route_19_duration_20250327_2230.0" vType="car" speedFactor="1.08" vaporized=""/>
    <tripinfo id="flow_route_0_duration_20250327_2230.2" depart="13.00" departLane="1318793176#1_0" departPos="1.79" departSpeed="0.00" departDelay="1.00" arrival="38.00" arrivalLane="133126031#0_0" arrivalPos="110.18" arrivalSpeed="16.48" duration="25.00" routeLength="228.80" waitingTime="0.00" waitingCount="0" stopTime="0.00" timeLoss="10.19" rerouteNo="0" devices="tripinfo_flow_route_0_duration_20250327_2230.2" vType="car" speedFactor="1.09" vaporized=""/>
    <tripinfo id="flow_route_0_duration_20250327_2230.1" depart="10.00" departLane="1318793176#1_0" departPos="10.22" departSpeed="0.00" departDelay="4.00" arrival="42.00" arrivalLane="133126031#0_0" arrivalPos="210.66" arrivalSpeed="16.28" duration="32.00" routeLength="320.87" waitingTime="0.00" waitingCount="0" stopTime="0.00" timeLoss="11.02" rerouteNo="0" devices="tripinfo_flow_route_0_duration_20250327_2230.1" vType="car" speedFactor="0.89" vaporized=""/>
    <tripinfo id="flow_route_19_duration_20250327_2230.1" depart="6.00" departLane="133126040#0_0" departPos="42.89" departSpeed="0.00" departDelay="0.00" arrival="44.00" arrivalLane="133126031#0_0" arrivalPos="312.28" arrivalSpeed="16.40" duration="38.00" routeLength="398.25" waitingTime="0.00" waitingCount="0" stopTime="0.00" timeLoss="12.19" rerouteNo="0" devices="tripinfo_flow_route_19_duration_20250327_2230.1" vType="car" speedFactor="0.94" vaporized=""/>
    <tripinfo id="flow_route_19_duration_20250327_2230.3" depart="18.00" departLane="133126040#0_0" departPos="103.83" departSpeed="0.00" departDelay="0.00" arrival="46.00" arrivalLane="133126031#0_1" arrivalPos="198.28" arrivalSpeed="16.18" duration="28.00" routeLength="223.32" waitingTime="1.00" waitingCount="1" stopTime="0.00" timeLoss="13.08" rerouteNo="0" devices="tripinfo_flow_route_19_duration_20250327_2230.3" vType="car" speedFactor="0.99" vaporized=""/>
    <tripinfo id="flow_route_0_duration_20250327_2230.4" depart="24.00" departLane="1318793176#1_0" departPos="0.30" departSpeed="0.00" departDelay="0.00" arrival="47.00" arrivalLane="133126031#0_0" arrivalPos="60.98" arrivalSpeed="13.90" duration="23.00" routeLength="181.10" waitingTime="0.00" waitingCount="0" stopTime="0.00" timeLoss="10.17" rerouteNo="0" devices="tripinfo_flow_route_0_duration_20250327_2230.4" vType="car" speedFactor="0.88" vaporized=""/>
    <tripinfo id="flow_route_48_duration_20250327_2230.0" depart="2.00" departLane="380351865#0_0" departPos="1.03" departSpeed="0.00" departDelay="2.00" arrival="52.00" arrivalLane="133126031#0_0" arrivalPos="14.50" arrivalSpeed="7.71" duration="50.00" routeLength="180.64" waitingTime="17.00" waitingCount="1" stopTime="0.00" timeLoss="32.37" rerouteNo="0" devices="tripinfo_flow_route_48_duration_20250327_2230.0" vType="car" speedFactor="0.83" vaporized=""/>
    <tripinfo id="flow_route_0_duration_20250327_2230.3" depart="19.00" departLane="1318793176#1_0" departPos="5.26" departSpeed="0.00" departDelay="1.00" arrival="52.00" arrivalLane="133126031#0_0" arrivalPos="237.96" arrivalSpeed="16.54" duration="33.00" routeLength="353.12" waitingTime="0.00" waitingCount="0" stopTime="0.00" timeLoss="10.63" rerouteNo="0" devices="tripinfo_flow_route_0_duration_20250327_2230.3" vType="car" speedFactor="1.12" vaporized=""/>
    <tripinfo id="flow_route_47_duration_20250327_2230.1" depart="19.00" departLane="380351865#0_0" departPos="5.25" departSpeed="0.00" departDelay="7.00" arrival="56.00" arrivalLane="1318793173#0_1" arrivalPos="13.55" arrivalSpeed="8.92" duration="37.00" routeLength="169.74" waitingTime="4.00" waitingCount="1" stopTime="0.00" timeLoss="23.14" rerouteNo="0" devices="tripinfo_flow_route_47_duration_20250327_2230.1" vType="car" speedFactor="1.05" vaporized=""/>
    <tripinfo id="flow_route_47_duration_20250327_2230.0" depart="0.00" departLane="380351865#0_0" departPos="11.49" departSpeed="0.00" departDelay="0.00" arrival="57.00" arrivalLane="1318793173#0_1" arrivalPos="63.76" arrivalSpeed="11.25" duration="57.00" routeLength="213.71" waitingTime="22.00" waitingCount="1" stopTime="0.00" timeLoss="40.32" rerouteNo="0" devices="tripinfo_flow_route_47_duration_20250327_2230.0" vType="car" speedFactor="1.03" vaporized=""/>
    <tripinfo id="flow_route_19_duration_20250327_2230.4" depart="24.00" departLane="133126040#0_0" departPos="30.16" departSpeed="0.00" departDelay="0.00" arrival="57.00" arrivalLane="133126031#0_1" arrivalPos="213.38" arrivalSpeed="16.17" duration="33.00" routeLength="312.09" waitingTime="0.00" waitingCount="0" stopTime="0.00" timeLoss="12.33" rerouteNo="0" devices="tripinfo_flow_route_19_duration_20250327_2230.4" vType="car" speedFactor="0.94" vaporized=""/>
    <tripinfo id="flow_route_48_duration_20250327_2230.1" depart="13.00" departLane="380351865#0_0" departPos="3.81" departSpeed="0.00" departDelay="3.00" arrival="59.00" arrivalLane="133126031#0_1" arrivalPos="52.91" arrivalSpeed="11.65" duration="46.00" routeLength="216.27" waitingTime="8.00" waitingCount="1" stopTime="0.00" timeLoss="26.35" rerouteNo="0" devices="tripinfo_flow_route_48_duration_20250327_2230.1" vType="car" speedFactor="0.86" vaporized=""/>
    <tripinfo id="flow_route_47_duration_20250327_2230.2" depart="24.00" departLane="380351865#0_0" departPos="9.33" departSpeed="0.00" departDelay="0.00" arrival="59.00" arrivalLane="1318793173#0_1" arrivalPos="16.41" arrivalSpeed="10.31" duration="35.00" routeLength="168.52" waitingTime="2.00" waitingCount="1" stopTime="0.00" timeLoss="19.50" rerouteNo="0" devices="tripinfo_flow_route_47_duration_20250327_2230.2" vType="car" speedFactor="0.94" vaporized=""/>
    <tripinfo id="flow_route_47_duration_20250327_2230.3" depart="36.00" departLane="380351865#0_0" departPos="7.22" departSpeed="0.00" departDelay="0.00" arrival="62.00" arrivalLane="1318793173#0_1" arrivalPos="31.34" arrivalSpeed="11.41" duration="26.00" routeLength="185.56" waitingTime="0.00" waitingCount="0" stopTime="0.00" timeLoss="8.30" rerouteNo="0" devices="tripinfo_flow_route_47_duration_20250327_2230.3" vType="car" speedFactor="0.87" vaporized=""/>
    <tripinfo id="flow_route_49_duration_20250327_2230.0" depart="8.00" departLane="380351865#0_0" departPos="0.55" departSpeed="0.00" departDelay="8.00" arrival="63.00" arrivalLane="1318893695#0_0" arrivalPos="148.83" arrivalSpeed="15.17" duration="55.00" routeLength="292.16" waitingTime="15.00" waitingCount="1" stopTime="0.00" timeLoss="32.99" rerouteNo="0" devices="tripinfo_flow_route_49_duration_20250327_2230.0" vType="car" speedFactor="1.05" vaporized=""/>
    <tripinfo id="flow_route_1_duration_20250327_2230.1" depart="34.00" departLane="1318793176#1_0" departPos="0.85" departSpeed="0.00" departDelay="4.00" arrival="71.00" arrivalLane="1318793173#0_2" arrivalPos="7.24" arrivalSpeed="6.83" duration="37.00" routeLength="130.28" waitingTime="10.00" waitingCount="1" stopTime="0.00" timeLoss="29.02" rerouteNo="0" devices="tripinfo_flow_route_1_duration_20250327_2230.1" vType="car" speedFactor="1.02" vaporized=""/>
    <tripinfo id="flow_route_48_duration_20250327_2230.2" depart="21.00" departLane="380351865#0_0" departPos="16.30" departSpeed="0.00" departDelay="1.00" arrival="74.00" arrivalLane="133126031#0_0" arrivalPos="192.90" arrivalSpeed="16.34" duration="53.00" routeLength="343.77" waitingTime="3.00" waitingCount="1" stopTime="0.00" timeLoss="27.48" rerouteNo="0" devices="tripinfo_flow_route_48_duration_20250327_2230.2" vType="car" speedFactor="0.93" vaporized=""/>
    <tripinfo id="flow_route_0_duration_20250327_2230.8" depart="48.00" departLane="1318793176#1_0" departPos="9.88" departSpeed="0.00" departDelay="0.00" arrival="75.00" arrivalLane="133126031#0_0" arrivalPos="34.82" arrivalSpeed="9.95" duration="27.00" routeLength="145.37" waitingTime="0.00" waitingCount="0" stopTime="0.00" timeLoss="16.79" rerouteNo="0" devices="tripinfo_flow_route_0_duration_20250327_2230.8" vType="car" speedFactor="0.93" vaporized=""/>
    <tripinfo id="flow_route_1_duration_20250327_2230.0" depart="4.00" departLane="1318793176#1_0" departPos="0.49" departSpeed="0.00" departDelay="4.00" arrival="79.00" arrivalLane="1318793173#0_1" arrivalPos="77.00" arrivalSpeed="12.34" duration="75.00" routeLength="200.41" waitingTime="40.00" waitingCount="1" stopTime="0.00" timeLoss="61.61" rerouteNo="0" devices="tripinfo_flow_route_1_duration_20250327_2230.0" vType="car" speedFactor="0.94" vaporized=""/>
    <tripinfo id="flow_route_0_duration_20250327_2230.5" depart="30.00" departLane="1318793176#1_0" departPos="3.35" departSpeed="0.00" departDelay="0.00" arrival="79.00" arrivalLane="133126031#0_0" arrivalPos="308.64" arrivalSpeed="16.36" duration="49.00" routeLength="425.71" waitingTime="1.00" waitingCount="1" stopTime="0.00" timeLoss="22.83" rerouteNo="0" devices="tripinfo_flow_route_0_duration_20250327_2230.5" vType="car" speedFactor="1.16" vaporized=""/>
    <tripinfo id="flow_route_0_duration_20250327_2230.7" depart="42.00" departLane="1318793176#1_0" departPos="0.25" departSpeed="0.00" departDelay="0.00" arrival="79.00" arrivalLane="133126031#0_0" arrivalPos="121.44" arrivalSpeed="14.97" duration="37.00" routeLength="241.60" waitingTime="1.00" waitingCount="1" stopTime="0.00" timeLoss="21.57" rerouteNo="0" devices="tripinfo_flow_route_0_duration_20250327_2230.7" vType="car" speedFactor="0.95" vaporized=""/>
    <tripinfo id="flow_route_0_duration_20250327_2230.9" depart="54.00" departLane="1318793176#1_0" departPos="7.47" departSpeed="0.00" departDelay="0.00" arrival="82.00" arrivalLane="133126031#0_0" arrivalPos="98.54" arrivalSpeed="14.40" duration="28.00" routeLength="211.49" waitingTime="0.00" waitingCount="0" stopTime="0.00" timeLoss="14.37" rerouteNo="0" devices="tripinfo_flow_route_0_duration_20250327_2230.9" vType="car" speedFactor="1.17" vaporized=""/>
    <tripinfo id="flow_route_48_duration_20250327_2230.3" depart="30.00" departLane="380351865#0_0" departPos="9.68" departSpeed="0.00" departDelay="0.00" arrival="84.00" arrivalLane="133126031#0_0" arrivalPos="329.98" arrivalSpeed="16.32" duration="54.00" routeLength="487.47" waitingTime="0.00" waitingCount="0" stopTime="0.00" timeLoss="20.20" rerouteNo="0" devices="tripinfo_flow_route_48_duration_20250327_2230.3" vType="car" speedFactor="0.97" vaporized=""/>
    <tripinfo id="flow_route_0_duration_20250327_2230.6" depart="39.00" departLane="1318793176#1_0" departPos="5.48" departSpeed="0.00" departDelay="3.00" arrival="85.00" arrivalLane="133126031#0_0" arrivalPos="240.06" arrivalSpeed="16.40" duration="46.00" routeLength="355.00" waitingTime="2.00" waitingCount="1" stopTime="0.00" timeLoss="23.04" rerouteNo="0" devices="tripinfo_flow_route_0_duration_20250327_2230.6" vType="car" speedFactor="0.89" vaporized=""/>
    <tripinfo id="flow_route_19_duration_20250327_2230.5" depart="30.00" departLane="133126040#0_0" departPos="9.30" departSpeed="0.00" departDelay="0.00" arrival="86.00" arrivalLane="133126031#0_1" arrivalPos="59.52" arrivalSpeed="11.19" duration="56.00" routeLength="179.09" waitingTime="19.00" waitingCount="2" stopTime="0.00" timeLoss="43.75" rerouteNo="0" devices="tripinfo_flow_route_19_duration_20250327_2230.5" vType="car" speedFactor="1.01" vaporized=""/>
    <tripinfo id="flow_route_19_duration_20250327_2230.6" depart="36.00" departLane="133126040#0_0" departPos="73.41" departSpeed="0.00" departDelay="0.00" arrival="89.00" arrivalLane="133126031#0_1" arrivalPos="117.01" arrivalSpeed="14.47" duration="53.00" routeLength="172.47" waitingTime="19.00" waitingCount="2" stopTime="0.00" timeLoss="39.88" rerouteNo="0" devices="tripinfo_flow_route_19_duration_20250327_2230.6" vType="car" speedFactor="0.83" vaporized=""/>
    <tripinfo id="flow_route_19_duration_20250327_2230.9" depart="54.00" departLane="133126040#0_0" departPos="10.98" departSpeed="0.00" departDelay="0.00" arrival="97.00" arrivalLane="133126031#0_1" arrivalPos="136.70" arrivalSpeed="15.76" duration="43.00" routeLength="254.59" waitingTime="2.00" waitingCount="1" stopTime="0.00" timeLoss="26.39" rerouteNo="0" devices="tripinfo_flow_route_19_duration_20250327_2230.9" vType="car" speedFactor="0.99" vaporized=""/>
    <tripinfo id="flow_route_19_duration_20250327_2230.7" depart="42.00" departLane="133126040#0_0" departPos="32.74" departSpeed="0.00" departDelay="0.00" arrival="105.00" arrivalLane="133126031#0_0" arrivalPos="324.84" arrivalSpeed="16.57" duration="63.00" routeLength="420.97" waitingTime="10.00" waitingCount="2" stopTime="0.00" timeLoss="36.13" rerouteNo="0" devices="tripinfo_flow_route_19_duration_20250327_2230.7" vType="car" speedFactor="1.13" vaporized=""/>
    <tripinfo id="flow_route_19_duration_20250327_2230.8" depart="48.00" departLane="133126040#0_0" departPos="53.29" departSpeed="0.00" departDelay="0.00" arrival="105.00" arrivalLane="133126031#0_0" arrivalPos="291.16" arrivalSpeed="16.25" duration="57.00" routeLength="366.74" waitingTime="7.00" waitingCount="3" stopTime="0.00" timeLoss="33.98" rerouteNo="0" devices="tripinfo_flow_route_19_duration_20250327_2230.8" vType="car" speedFactor="1.18" vaporized=""/>
    <tripinfo id="flow_route_47_duration_20250327_2230.4" depart="48.00" departLane="380351865#0_0" departPos="7.26" departSpeed="0.00" departDelay="0.00" arrival="120.00" arrivalLane="1318793173#0_1" arrivalPos="67.57" arrivalSpeed="12.27" duration="72.00" routeLength="221.75" waitingTime="36.00" waitingCount="1" stopTime="0.00" timeLoss="55.96" rerouteNo="0" devices="tripinfo_flow_route_47_duration_20250327_2230.4" vType="car" speedFactor="1.15" vaporized=""/>
    <tripinfo id="flow_route_48_duration_20250327_2230.5" depart="54.00" departLane="380351865#0_0" departPos="5.85" departSpeed="0.00" departDelay="4.00" arrival="133.00" arrivalLane="133126031#0_0" arrivalPos="236.36" arrivalSpeed="16.39" duration="79.00" routeLength="397.68" waitingTime="32.00" waitingCount="1" stopTime="0.00" timeLoss="51.14" rerouteNo="0" devices="tripinfo_flow_route_48_duration_20250327_2230.5" vType="car" speedFactor="1.01" vaporized=""/>
    <tripinfo id="flow_route_48_duration_20250327_2230.4" depart="41.00" departLane="380351865#0_0" departPos="7.12" departSpeed="0.00" departDelay="1.00" arrival="134.00" arrivalLane="133126031#0_0" arrivalPos="274.53" arrivalSpeed="16.31" duration="93.00" routeLength="434.58" waitingTime="43.00" waitingCount="1" stopTime="0.00" timeLoss="61.42" rerouteNo="0" devices="tripinfo_flow_route_48_duration_20250327_2230.4" vType="car" speedFactor="0.92" vaporized=""/>
</tripinfos>
