<?xml version="1.0" encoding="UTF-8"?>

<!-- generated on 2025-05-06 21:08:16 by Eclipse SUMO sumo Version 1.20.0
<configuration xmlns:xsi="http://www.w3.org/2001/XMLSchema-instance" xsi:noNamespaceSchemaLocation="http://sumo.dlr.de/xsd/sumoConfiguration.xsd">

    <input>
        <net-file value="osm.net.xml"/>
        <route-files value="xml/route_static_GS_cluster_1342409365_3839031467_3.rou.xml"/>
    </input>

    <output>
        <tripinfo-output value="xml/tripinfo_static_GS_cluster_1342409365_3839031467_3.xml"/>
    </output>

    <traci_server>
        <remote-port value="59929"/>
    </traci_server>

</configuration>
-->

<tripinfos xmlns:xsi="http://www.w3.org/2001/XMLSchema-instance" xsi:noNamespaceSchemaLocation="http://sumo.dlr.de/xsd/tripinfo_file.xsd">
    <tripinfo id="flow_route_128_duration_20250327_2030.0" depart="0.00" departLane="134133272_0" departPos="226.49" departSpeed="0.00" departDelay="0.00" arrival="31.00" arrivalLane="380585338#0_0" arrivalPos="7.57" arrivalSpeed="5.61" duration="31.00" routeLength="279.28" waitingTime="0.00" waitingCount="0" stopTime="0.00" timeLoss="10.69" rerouteNo="0" devices="tripinfo_flow_route_128_duration_20250327_2030.0" vType="car" speedFactor="0.83" vaporized=""/>
    <tripinfo id="flow_route_92_duration_20250327_2030.1" depart="3.00" departLane="133000063_0" departPos="109.11" departSpeed="0.00" departDelay="0.69" arrival="36.00" arrivalLane="186409193_0" arrivalPos="29.97" arrivalSpeed="15.60" duration="33.00" routeLength="312.72" waitingTime="0.00" waitingCount="0" stopTime="0.00" timeLoss="13.37" rerouteNo="0" devices="tripinfo_flow_route_92_duration_20250327_2030.1" vType="car" speedFactor="1.09" vaporized=""/>
    <tripinfo id="flow_route_92_duration_20250327_2030.2" depart="5.00" departLane="133000063_0" departPos="93.75" departSpeed="0.00" departDelay="0.39" arrival="41.00" arrivalLane="186409193_0" arrivalPos="51.86" arrivalSpeed="16.28" duration="36.00" routeLength="349.96" waitingTime="0.00" waitingCount="0" stopTime="0.00" timeLoss="13.83" rerouteNo="0" devices="tripinfo_flow_route_92_duration_20250327_2030.2" vType="car" speedFactor="1.05" vaporized=""/>
    <tripinfo id="flow_route_91_duration_20250327_2030.0" depart="0.00" departLane="133000063_0" departPos="128.34" departSpeed="0.00" departDelay="0.00" arrival="48.00" arrivalLane="683079387#1_0" arrivalPos="9.10" arrivalSpeed="16.56" duration="48.00" routeLength="599.49" waitingTime="0.00" waitingCount="0" stopTime="0.00" timeLoss="11.30" rerouteNo="0" devices="tripinfo_flow_route_91_duration_20250327_2030.0" vType="car" speedFactor="1.06" vaporized=""/>
    <tripinfo id="flow_route_103_duration_20250327_2030.0" depart="1.00" departLane="1342963997_0" departPos="57.81" departSpeed="0.00" departDelay="1.00" arrival="61.00" arrivalLane="683079387#1_0" arrivalPos="6.02" arrivalSpeed="16.42" duration="60.00" routeLength="524.42" waitingTime="4.00" waitingCount="1" stopTime="0.00" timeLoss="27.70" rerouteNo="0" devices="tripinfo_flow_route_103_duration_20250327_2030.0" vType="car" speedFactor="1.03" vaporized=""/>
    <tripinfo id="flow_route_93_duration_20250327_2030.0" depart="0.00" departLane="133000063_0" departPos="115.92" departSpeed="0.00" departDelay="0.00" arrival="66.00" arrivalLane="380585336_1" arrivalPos="19.16" arrivalSpeed="16.56" duration="66.00" routeLength="758.54" waitingTime="0.00" waitingCount="0" stopTime="0.00" timeLoss="19.95" rerouteNo="0" devices="tripinfo_flow_route_93_duration_20250327_2030.0" vType="car" speedFactor="1.01" vaporized=""/>
    <tripinfo id="flow_route_103_duration_20250327_2030.1" depart="20.00" departLane="1342963997_0" departPos="101.84" departSpeed="0.00" departDelay="0.00" arrival="67.00" arrivalLane="683079387#1_0" arrivalPos="10.13" arrivalSpeed="16.40" duration="47.00" routeLength="484.50" waitingTime="0.00" waitingCount="0" stopTime="0.00" timeLoss="17.41" rerouteNo="0" devices="tripinfo_flow_route_103_duration_20250327_2030.1" vType="car" speedFactor="1.17" vaporized=""/>
    <tripinfo id="flow_route_102_duration_20250327_2030.0" depart="0.00" departLane="1342963997_0" departPos="83.70" departSpeed="0.00" departDelay="0.00" arrival="68.00" arrivalLane="380585336_1" arrivalPos="207.08" arrivalSpeed="16.40" duration="68.00" routeLength="834.32" waitingTime="0.00" waitingCount="0" stopTime="0.00" timeLoss="17.34" rerouteNo="0" devices="tripinfo_flow_route_102_duration_20250327_2030.0" vType="car" speedFactor="1.08" vaporized=""/>
    <tripinfo id="flow_route_145_duration_20250327_2030.0" depart="0.00" departLane="683079388#0_0" departPos="22.61" departSpeed="0.00" departDelay="0.00" arrival="68.00" arrivalLane="380585336_0" arrivalPos="229.76" arrivalSpeed="15.56" duration="68.00" routeLength="831.39" waitingTime="0.00" waitingCount="0" stopTime="0.00" timeLoss="15.40" rerouteNo="0" devices="tripinfo_flow_route_145_duration_20250327_2030.0" vType="car" speedFactor="0.94" vaporized=""/>
    <tripinfo id="flow_route_129_duration_20250327_2030.0" depart="0.00" departLane="134133272_0" departPos="105.80" departSpeed="0.00" departDelay="0.00" arrival="70.00" arrivalLane="683079387#1_0" arrivalPos="7.59" arrivalSpeed="16.10" duration="70.00" routeLength="945.90" waitingTime="0.00" waitingCount="0" stopTime="0.00" timeLoss="12.30" rerouteNo="0" devices="tripinfo_flow_route_129_duration_20250327_2030.0" vType="car" speedFactor="1.05" vaporized=""/>
    <tripinfo id="flow_route_144_duration_20250327_2030.0" depart="0.00" departLane="683079388#0_0" departPos="1.56" departSpeed="0.00" departDelay="0.00" arrival="72.00" arrivalLane="380585338#0_0" arrivalPos="42.98" arrivalSpeed="9.60" duration="72.00" routeLength="621.16" waitingTime="9.00" waitingCount="1" stopTime="0.00" timeLoss="29.52" rerouteNo="0" devices="tripinfo_flow_route_144_duration_20250327_2030.0" vType="car" speedFactor="0.89" vaporized=""/>
    <tripinfo id="flow_route_144_duration_20250327_2030.1" depart="9.00" departLane="683079388#0_0" departPos="10.62" departSpeed="0.00" departDelay="0.43" arrival="77.00" arrivalLane="380585338#0_0" arrivalPos="118.96" arrivalSpeed="14.61" duration="68.00" routeLength="688.08" waitingTime="0.00" waitingCount="0" stopTime="0.00" timeLoss="23.93" rerouteNo="0" devices="tripinfo_flow_route_144_duration_20250327_2030.1" vType="car" speedFactor="0.94" vaporized=""/>
    <tripinfo id="flow_route_144_duration_20250327_2030.2" depart="18.00" departLane="683079388#0_0" departPos="0.72" departSpeed="0.00" departDelay="0.86" arrival="78.00" arrivalLane="380585338#0_1" arrivalPos="111.42" arrivalSpeed="13.85" duration="60.00" routeLength="690.44" waitingTime="0.00" waitingCount="0" stopTime="0.00" timeLoss="18.35" rerouteNo="0" devices="tripinfo_flow_route_144_duration_20250327_2030.2" vType="car" speedFactor="1.13" vaporized=""/>
    <tripinfo id="flow_route_144_duration_20250327_2030.3" depart="26.00" departLane="683079388#0_0" departPos="9.43" departSpeed="0.00" departDelay="0.29" arrival="79.00" arrivalLane="380585338#0_0" arrivalPos="101.59" arrivalSpeed="15.84" duration="53.00" routeLength="671.90" waitingTime="0.00" waitingCount="0" stopTime="0.00" timeLoss="10.16" rerouteNo="0" devices="tripinfo_flow_route_144_duration_20250327_2030.3" vType="car" speedFactor="0.96" vaporized=""/>
    <tripinfo id="flow_route_102_duration_20250327_2030.1" depart="10.00" departLane="1342963997_0" departPos="30.16" departSpeed="0.00" departDelay="0.00" arrival="83.00" arrivalLane="380585336_1" arrivalPos="111.27" arrivalSpeed="16.57" duration="73.00" routeLength="792.06" waitingTime="0.00" waitingCount="0" stopTime="0.00" timeLoss="24.39" rerouteNo="0" devices="tripinfo_flow_route_102_duration_20250327_2030.1" vType="car" speedFactor="1.16" vaporized=""/>
    <tripinfo id="flow_route_103_duration_20250327_2030.2" depart="41.00" departLane="1342963997_0" departPos="115.12" departSpeed="0.00" departDelay="1.00" arrival="83.00" arrivalLane="683079387#1_0" arrivalPos="3.87" arrivalSpeed="16.53" duration="42.00" routeLength="464.96" waitingTime="0.00" waitingCount="0" stopTime="0.00" timeLoss="13.12" rerouteNo="0" devices="tripinfo_flow_route_103_duration_20250327_2030.2" vType="car" speedFactor="1.02" vaporized=""/>
    <tripinfo id="flow_route_144_duration_20250327_2030.4" depart="35.00" departLane="683079388#0_0" departPos="1.10" departSpeed="0.00" departDelay="0.72" arrival="85.00" arrivalLane="380585338#0_0" arrivalPos="64.53" arrivalSpeed="16.44" duration="50.00" routeLength="643.17" waitingTime="0.00" waitingCount="0" stopTime="0.00" timeLoss="10.86" rerouteNo="0" devices="tripinfo_flow_route_144_duration_20250327_2030.4" vType="car" speedFactor="1.00" vaporized=""/>
    <tripinfo id="flow_route_102_duration_20250327_2030.2" depart="20.00" departLane="1342963997_0" departPos="15.45" departSpeed="0.00" departDelay="0.00" arrival="89.00" arrivalLane="380585336_1" arrivalPos="75.41" arrivalSpeed="16.37" duration="69.00" routeLength="770.92" waitingTime="0.00" waitingCount="0" stopTime="0.00" timeLoss="21.49" rerouteNo="0" devices="tripinfo_flow_route_102_duration_20250327_2030.2" vType="car" speedFactor="1.01" vaporized=""/>
    <tripinfo id="flow_route_92_duration_20250327_2030.3" depart="9.00" departLane="133000063_0" departPos="57.06" departSpeed="0.00" departDelay="2.08" arrival="94.00" arrivalLane="186409193_0" arrivalPos="17.63" arrivalSpeed="14.81" duration="85.00" routeLength="352.42" waitingTime="31.00" waitingCount="1" stopTime="0.00" timeLoss="62.09" rerouteNo="0" devices="tripinfo_flow_route_92_duration_20250327_2030.3" vType="car" speedFactor="0.99" vaporized=""/>
    <tripinfo id="flow_route_102_duration_20250327_2030.3" depart="30.00" departLane="1342963997_0" departPos="174.44" departSpeed="0.00" departDelay="0.00" arrival="96.00" arrivalLane="380585336_1" arrivalPos="299.48" arrivalSpeed="16.16" duration="66.00" routeLength="835.99" waitingTime="0.00" waitingCount="0" stopTime="0.00" timeLoss="15.03" rerouteNo="0" devices="tripinfo_flow_route_102_duration_20250327_2030.3" vType="car" speedFactor="1.00" vaporized=""/>
    <tripinfo id="flow_route_128_duration_20250327_2030.1" depart="30.00" departLane="134133272_0" departPos="118.52" departSpeed="0.00" departDelay="0.00" arrival="97.00" arrivalLane="380585338#0_0" arrivalPos="79.15" arrivalSpeed="10.85" duration="67.00" routeLength="458.83" waitingTime="16.00" waitingCount="1" stopTime="0.00" timeLoss="35.89" rerouteNo="0" devices="tripinfo_flow_route_128_duration_20250327_2030.1" vType="car" speedFactor="0.90" vaporized=""/>
    <tripinfo id="flow_route_92_duration_20250327_2030.0" depart="0.00" departLane="133000063_0" departPos="1.04" departSpeed="0.00" departDelay="0.00" arrival="102.00" arrivalLane="186409193_0" arrivalPos="41.62" arrivalSpeed="13.64" duration="102.00" routeLength="432.44" waitingTime="31.00" waitingCount="1" stopTime="0.00" timeLoss="73.77" rerouteNo="0" devices="tripinfo_flow_route_92_duration_20250327_2030.0" vType="car" speedFactor="0.94" vaporized=""/>
    <tripinfo id="flow_route_92_duration_20250327_2030.5" depart="24.00" departLane="133000063_0" departPos="72.90" departSpeed="0.00" departDelay="12.47" arrival="109.00" arrivalLane="186409193_0" arrivalPos="47.42" arrivalSpeed="15.98" duration="85.00" routeLength="366.38" waitingTime="5.00" waitingCount="2" stopTime="0.00" timeLoss="61.72" rerouteNo="0" devices="tripinfo_flow_route_92_duration_20250327_2030.5" vType="car" speedFactor="1.01" vaporized=""/>
    <tripinfo id="flow_route_92_duration_20250327_2030.6" depart="29.00" departLane="133000063_0" departPos="107.69" departSpeed="0.00" departDelay="15.16" arrival="110.00" arrivalLane="186409193_0" arrivalPos="34.83" arrivalSpeed="14.51" duration="81.00" routeLength="319.00" waitingTime="15.00" waitingCount="3" stopTime="0.00" timeLoss="58.73" rerouteNo="0" devices="tripinfo_flow_route_92_duration_20250327_2030.6" vType="car" speedFactor="0.89" vaporized=""/>
    <tripinfo id="flow_route_91_duration_20250327_2030.1" depart="45.00" departLane="133000063_0" departPos="58.36" departSpeed="0.00" departDelay="25.00" arrival="110.00" arrivalLane="683079387#1_1" arrivalPos="0.68" arrivalSpeed="16.34" duration="65.00" routeLength="661.05" waitingTime="0.00" waitingCount="0" stopTime="0.00" timeLoss="24.85" rerouteNo="0" devices="tripinfo_flow_route_91_duration_20250327_2030.1" vType="car" speedFactor="1.15" vaporized=""/>
    <tripinfo id="flow_route_92_duration_20250327_2030.4" depart="20.00" departLane="133000063_0" departPos="54.06" departSpeed="0.00" departDelay="10.77" arrival="113.00" arrivalLane="186409193_0" arrivalPos="56.35" arrivalSpeed="15.27" duration="93.00" routeLength="394.15" waitingTime="4.00" waitingCount="2" stopTime="0.00" timeLoss="67.01" rerouteNo="0" devices="tripinfo_flow_route_92_duration_20250327_2030.4" vType="car" speedFactor="0.94" vaporized=""/>
    <tripinfo id="flow_route_92_duration_20250327_2030.8" depart="42.00" departLane="133000063_0" departPos="94.60" departSpeed="0.00" departDelay="23.54" arrival="113.00" arrivalLane="186409193_0" arrivalPos="16.29" arrivalSpeed="13.95" duration="71.00" routeLength="313.55" waitingTime="2.00" waitingCount="1" stopTime="0.00" timeLoss="49.30" rerouteNo="0" devices="tripinfo_flow_route_92_duration_20250327_2030.8" vType="car" speedFactor="0.93" vaporized=""/>
    <tripinfo id="flow_route_102_duration_20250327_2030.4" depart="40.00" departLane="1342963997_0" departPos="106.42" departSpeed="0.00" departDelay="0.00" arrival="115.00" arrivalLane="380585336_2" arrivalPos="116.84" arrivalSpeed="16.13" duration="75.00" routeLength="721.36" waitingTime="0.00" waitingCount="0" stopTime="0.00" timeLoss="30.89" rerouteNo="0" devices="tripinfo_flow_route_102_duration_20250327_2030.4" vType="car" speedFactor="1.12" vaporized=""/>
    <tripinfo id="flow_route_93_duration_20250327_2030.3" depart="6.00" departLane="133000063_0" departPos="5.58" departSpeed="0.00" departDelay="0.86" arrival="121.00" arrivalLane="380585336_1" arrivalPos="99.74" arrivalSpeed="16.44" duration="115.00" routeLength="949.45" waitingTime="22.00" waitingCount="2" stopTime="0.00" timeLoss="57.80" rerouteNo="0" devices="tripinfo_flow_route_93_duration_20250327_2030.3" vType="car" speedFactor="1.12" vaporized=""/>
    <tripinfo id="flow_route_93_duration_20250327_2030.7" depart="28.00" departLane="133000063_0" departPos="18.04" departSpeed="0.00" departDelay="16.00" arrival="125.00" arrivalLane="380585336_2" arrivalPos="37.51" arrivalSpeed="16.20" duration="97.00" routeLength="874.76" waitingTime="4.00" waitingCount="2" stopTime="0.00" timeLoss="42.99" rerouteNo="0" devices="tripinfo_flow_route_93_duration_20250327_2030.7" vType="car" speedFactor="0.97" vaporized=""/>
    <tripinfo id="flow_route_129_duration_20250327_2030.1" depart="30.00" departLane="134133272_0" departPos="164.42" departSpeed="0.00" departDelay="0.00" arrival="129.00" arrivalLane="683079387#1_0" arrivalPos="8.92" arrivalSpeed="14.53" duration="99.00" routeLength="888.61" waitingTime="18.00" waitingCount="1" stopTime="0.00" timeLoss="38.26" rerouteNo="0" devices="tripinfo_flow_route_129_duration_20250327_2030.1" vType="car" speedFactor="0.88" vaporized=""/>
    <tripinfo id="flow_route_144_duration_20250327_2030.6" depart="52.00" departLane="683079388#0_0" departPos="11.53" departSpeed="0.00" departDelay="0.57" arrival="130.00" arrivalLane="380585338#0_1" arrivalPos="36.03" arrivalSpeed="9.73" duration="78.00" routeLength="604.24" waitingTime="17.00" waitingCount="1" stopTime="0.00" timeLoss="40.53" rerouteNo="0" devices="tripinfo_flow_route_144_duration_20250327_2030.6" vType="car" speedFactor="0.98" vaporized=""/>
    <tripinfo id="flow_route_144_duration_20250327_2030.5" depart="43.00" departLane="683079388#0_0" departPos="4.33" departSpeed="0.00" departDelay="0.15" arrival="134.00" arrivalLane="380585338#0_0" arrivalPos="83.82" arrivalSpeed="12.81" duration="91.00" routeLength="659.23" waitingTime="24.00" waitingCount="1" stopTime="0.00" timeLoss="46.76" rerouteNo="0" devices="tripinfo_flow_route_144_duration_20250327_2030.5" vType="car" speedFactor="0.91" vaporized=""/>
    <tripinfo id="flow_route_102_duration_20250327_2030.5" depart="50.00" departLane="1342963997_0" departPos="140.78" departSpeed="0.00" departDelay="0.00" arrival="134.00" arrivalLane="380585336_0" arrivalPos="419.99" arrivalSpeed="15.44" duration="84.00" routeLength="990.16" waitingTime="0.00" waitingCount="0" stopTime="0.00" timeLoss="20.82" rerouteNo="0" devices="tripinfo_flow_route_102_duration_20250327_2030.5" vType="car" speedFactor="0.96" vaporized=""/>
    <tripinfo id="flow_route_93_duration_20250327_2030.5" depart="17.00" departLane="133000063_0" departPos="29.01" departSpeed="0.00" departDelay="8.43" arrival="136.00" arrivalLane="380585336_1" arrivalPos="12.57" arrivalSpeed="14.41" duration="119.00" routeLength="838.85" waitingTime="20.00" waitingCount="1" stopTime="0.00" timeLoss="61.65" rerouteNo="0" devices="tripinfo_flow_route_93_duration_20250327_2030.5" vType="car" speedFactor="0.88" vaporized=""/>
    <tripinfo id="flow_route_93_duration_20250327_2030.6" depart="21.00" departLane="133000063_0" departPos="8.07" departSpeed="0.00" departDelay="10.72" arrival="141.00" arrivalLane="380585336_1" arrivalPos="240.85" arrivalSpeed="16.24" duration="120.00" routeLength="1088.07" waitingTime="1.00" waitingCount="1" stopTime="0.00" timeLoss="53.99" rerouteNo="0" devices="tripinfo_flow_route_93_duration_20250327_2030.6" vType="car" speedFactor="1.02" vaporized=""/>
    <tripinfo id="flow_route_93_duration_20250327_2030.2" depart="5.00" departLane="133000063_0" departPos="68.31" departSpeed="0.00" departDelay="1.57" arrival="144.00" arrivalLane="380585336_0" arrivalPos="395.67" arrivalSpeed="16.23" duration="139.00" routeLength="1182.66" waitingTime="35.00" waitingCount="1" stopTime="0.00" timeLoss="66.87" rerouteNo="0" devices="tripinfo_flow_route_93_duration_20250327_2030.2" vType="car" speedFactor="1.03" vaporized=""/>
    <tripinfo id="flow_route_93_duration_20250327_2030.8" depart="31.00" departLane="133000063_0" departPos="120.48" departSpeed="0.00" departDelay="17.29" arrival="145.00" arrivalLane="380585336_0" arrivalPos="291.42" arrivalSpeed="13.56" duration="114.00" routeLength="1026.23" waitingTime="12.00" waitingCount="2" stopTime="0.00" timeLoss="40.07" rerouteNo="0" devices="tripinfo_flow_route_93_duration_20250327_2030.8" vType="car" speedFactor="0.83" vaporized=""/>
    <tripinfo id="flow_route_93_duration_20250327_2030.9" depart="33.00" departLane="133000063_0" departPos="48.44" departSpeed="0.00" departDelay="17.57" arrival="146.00" arrivalLane="380585336_0" arrivalPos="129.69" arrivalSpeed="14.45" duration="113.00" routeLength="936.54" waitingTime="0.00" waitingCount="0" stopTime="0.00" timeLoss="48.61" rerouteNo="0" devices="tripinfo_flow_route_93_duration_20250327_2030.9" vType="car" speedFactor="0.87" vaporized=""/>
    <tripinfo id="flow_route_92_duration_20250327_2030.7" depart="34.00" departLane="133000063_0" departPos="21.41" departSpeed="0.00" departDelay="17.85" arrival="146.00" arrivalLane="186409193_0" arrivalPos="33.89" arrivalSpeed="14.46" duration="112.00" routeLength="404.34" waitingTime="39.00" waitingCount="1" stopTime="0.00" timeLoss="84.99" rerouteNo="0" devices="tripinfo_flow_route_92_duration_20250327_2030.7" vType="car" speedFactor="0.92" vaporized=""/>
    <tripinfo id="flow_route_93_duration_20250327_2030.13" depart="56.00" departLane="133000063_0" departPos="22.30" departSpeed="0.00" departDelay="33.72" arrival="147.00" arrivalLane="380585336_2" arrivalPos="148.25" arrivalSpeed="15.96" duration="91.00" routeLength="981.24" waitingTime="0.00" waitingCount="0" stopTime="0.00" timeLoss="30.39" rerouteNo="0" devices="tripinfo_flow_route_93_duration_20250327_2030.13" vType="car" speedFactor="0.97" vaporized=""/>
    <tripinfo id="flow_route_93_duration_20250327_2030.12" depart="50.00" departLane="133000063_0" departPos="83.96" departSpeed="0.00" departDelay="29.43" arrival="148.00" arrivalLane="380585336_1" arrivalPos="76.12" arrivalSpeed="16.23" duration="98.00" routeLength="847.46" waitingTime="0.00" waitingCount="0" stopTime="0.00" timeLoss="46.02" rerouteNo="0" devices="tripinfo_flow_route_93_duration_20250327_2030.12" vType="car" speedFactor="1.02" vaporized=""/>
    <tripinfo id="flow_route_93_duration_20250327_2030.1" depart="3.00" departLane="133000063_0" departPos="52.89" departSpeed="0.00" departDelay="1.29" arrival="151.00" arrivalLane="380585336_0" arrivalPos="288.04" arrivalSpeed="13.85" duration="148.00" routeLength="1090.45" waitingTime="34.00" waitingCount="1" stopTime="0.00" timeLoss="71.76" rerouteNo="0" devices="tripinfo_flow_route_93_duration_20250327_2030.1" vType="car" speedFactor="0.86" vaporized=""/>
    <tripinfo id="flow_route_92_duration_20250327_2030.9" depart="45.00" departLane="133000063_0" departPos="0.15" departSpeed="0.00" departDelay="24.24" arrival="152.00" arrivalLane="186409193_0" arrivalPos="12.10" arrivalSpeed="13.71" duration="107.00" routeLength="403.82" waitingTime="32.00" waitingCount="3" stopTime="0.00" timeLoss="82.07" rerouteNo="0" devices="tripinfo_flow_route_92_duration_20250327_2030.9" vType="car" speedFactor="0.99" vaporized=""/>
    <tripinfo id="flow_route_92_duration_20250327_2030.10" depart="58.00" departLane="133000063_0" departPos="39.23" departSpeed="0.00" departDelay="34.93" arrival="156.00" arrivalLane="186409193_0" arrivalPos="12.41" arrivalSpeed="15.02" duration="98.00" routeLength="365.04" waitingTime="18.00" waitingCount="3" stopTime="0.00" timeLoss="74.95" rerouteNo="0" devices="tripinfo_flow_route_92_duration_20250327_2030.10" vType="car" speedFactor="1.18" vaporized=""/>
    <tripinfo id="flow_route_93_duration_20250327_2030.4" depart="9.00" departLane="133000063_0" departPos="22.28" departSpeed="0.00" departDelay="2.14" arrival="161.00" arrivalLane="380585336_0" arrivalPos="322.13" arrivalSpeed="15.08" duration="152.00" routeLength="1155.14" waitingTime="24.00" waitingCount="2" stopTime="0.00" timeLoss="77.18" rerouteNo="0" devices="tripinfo_flow_route_93_duration_20250327_2030.4" vType="car" speedFactor="0.93" vaporized=""/>
    <tripinfo id="flow_route_92_duration_20250327_2030.11" depart="62.00" departLane="133000063_0" departPos="32.82" departSpeed="0.00" departDelay="36.62" arrival="168.00" arrivalLane="186409193_0" arrivalPos="29.96" arrivalSpeed="13.19" duration="106.00" routeLength="389.00" waitingTime="20.00" waitingCount="3" stopTime="0.00" timeLoss="79.51" rerouteNo="0" devices="tripinfo_flow_route_92_duration_20250327_2030.11" vType="car" speedFactor="0.90" vaporized=""/>
    <tripinfo id="flow_route_92_duration_20250327_2030.12" depart="70.00" departLane="133000063_0" departPos="5.96" departSpeed="0.00" departDelay="42.32" arrival="170.00" arrivalLane="186409193_0" arrivalPos="1.39" arrivalSpeed="12.33" duration="100.00" routeLength="387.29" waitingTime="10.00" waitingCount="1" stopTime="0.00" timeLoss="75.45" rerouteNo="0" devices="tripinfo_flow_route_92_duration_20250327_2030.12" vType="car" speedFactor="1.09" vaporized=""/>
    <tripinfo id="flow_route_92_duration_20250327_2030.13" depart="77.00" departLane="133000063_0" departPos="74.11" departSpeed="0.00" departDelay="47.01" arrival="170.00" arrivalLane="186409193_0" arrivalPos="28.78" arrivalSpeed="13.60" duration="93.00" routeLength="346.53" waitingTime="17.00" waitingCount="2" stopTime="0.00" timeLoss="71.19" rerouteNo="0" devices="tripinfo_flow_route_92_duration_20250327_2030.13" vType="car" speedFactor="1.04" vaporized=""/>
    <tripinfo id="flow_route_91_duration_20250327_2030.2" depart="104.00" departLane="133000063_0" departPos="49.05" departSpeed="0.00" departDelay="64.00" arrival="171.00" arrivalLane="683079387#1_1" arrivalPos="6.77" arrivalSpeed="16.15" duration="67.00" routeLength="676.46" waitingTime="0.00" waitingCount="0" stopTime="0.00" timeLoss="25.50" rerouteNo="0" devices="tripinfo_flow_route_91_duration_20250327_2030.2" vType="car" speedFactor="1.02" vaporized=""/>
    <tripinfo id="flow_route_92_duration_20250327_2030.15" depart="93.00" departLane="133000063_0" departPos="76.98" departSpeed="0.00" departDelay="58.40" arrival="172.00" arrivalLane="186409193_0" arrivalPos="8.25" arrivalSpeed="12.88" duration="79.00" routeLength="323.12" waitingTime="10.00" waitingCount="2" stopTime="0.00" timeLoss="58.65" rerouteNo="0" devices="tripinfo_flow_route_92_duration_20250327_2030.15" vType="car" speedFactor="1.02" vaporized=""/>
    <tripinfo id="flow_route_92_duration_20250327_2030.14" depart="89.00" departLane="133000063_0" departPos="38.22" departSpeed="0.00" departDelay="56.70" arrival="176.00" arrivalLane="186409193_0" arrivalPos="38.66" arrivalSpeed="14.13" duration="87.00" routeLength="392.30" waitingTime="3.00" waitingCount="2" stopTime="0.00" timeLoss="58.79" rerouteNo="0" devices="tripinfo_flow_route_92_duration_20250327_2030.14" vType="car" speedFactor="0.85" vaporized=""/>
    <tripinfo id="flow_route_93_duration_20250327_2030.10" depart="41.00" departLane="133000063_0" departPos="17.72" departSpeed="0.00" departDelay="23.86" arrival="184.00" arrivalLane="380585336_1" arrivalPos="77.26" arrivalSpeed="15.37" duration="143.00" routeLength="914.83" waitingTime="32.00" waitingCount="2" stopTime="0.00" timeLoss="85.28" rerouteNo="0" devices="tripinfo_flow_route_93_duration_20250327_2030.10" vType="car" speedFactor="0.95" vaporized=""/>
    <tripinfo id="flow_route_93_duration_20250327_2030.11" depart="42.00" departLane="133000063_0" departPos="2.52" departSpeed="0.00" departDelay="23.15" arrival="195.00" arrivalLane="380585336_1" arrivalPos="230.39" arrivalSpeed="16.46" duration="153.00" routeLength="1083.16" waitingTime="32.00" waitingCount="2" stopTime="0.00" timeLoss="87.41" rerouteNo="0" devices="tripinfo_flow_route_93_duration_20250327_2030.11" vType="car" speedFactor="1.18" vaporized=""/>
    <tripinfo id="flow_route_93_duration_20250327_2030.16" depart="75.00" departLane="133000063_0" departPos="1.26" departSpeed="0.00" departDelay="47.58" arrival="195.00" arrivalLane="380585336_1" arrivalPos="127.56" arrivalSpeed="16.40" duration="120.00" routeLength="981.59" waitingTime="1.00" waitingCount="1" stopTime="0.00" timeLoss="60.33" rerouteNo="0" devices="tripinfo_flow_route_93_duration_20250327_2030.16" vType="car" speedFactor="1.04" vaporized=""/>
    <tripinfo id="flow_route_93_duration_20250327_2030.17" depart="80.00" departLane="133000063_0" departPos="32.83" departSpeed="0.00" departDelay="50.86" arrival="201.00" arrivalLane="380585336_1" arrivalPos="179.12" arrivalSpeed="16.29" duration="121.00" routeLength="1001.58" waitingTime="20.00" waitingCount="2" stopTime="0.00" timeLoss="60.09" rerouteNo="0" devices="tripinfo_flow_route_93_duration_20250327_2030.17" vType="car" speedFactor="1.09" vaporized=""/>
    <tripinfo id="flow_route_93_duration_20250327_2030.14" depart="59.00" departLane="133000063_0" departPos="55.26" departSpeed="0.00" departDelay="35.00" arrival="202.00" arrivalLane="380585336_1" arrivalPos="285.97" arrivalSpeed="16.58" duration="143.00" routeLength="1086.00" waitingTime="19.00" waitingCount="2" stopTime="0.00" timeLoss="77.54" rerouteNo="0" devices="tripinfo_flow_route_93_duration_20250327_2030.14" vType="car" speedFactor="1.10" vaporized=""/>
    <tripinfo id="flow_route_93_duration_20250327_2030.22" depart="104.00" departLane="133000063_0" departPos="59.06" departSpeed="0.00" departDelay="66.29" arrival="203.00" arrivalLane="380585336_1" arrivalPos="64.70" arrivalSpeed="16.35" duration="99.00" routeLength="860.93" waitingTime="0.00" waitingCount="0" stopTime="0.00" timeLoss="46.66" rerouteNo="0" devices="tripinfo_flow_route_93_duration_20250327_2030.22" vType="car" speedFactor="1.14" vaporized=""/>
    <tripinfo id="flow_route_93_duration_20250327_2030.21" depart="99.00" departLane="133000063_0" departPos="36.46" departSpeed="0.00" departDelay="63.01" arrival="206.00" arrivalLane="380585336_1" arrivalPos="164.61" arrivalSpeed="16.18" duration="107.00" routeLength="983.44" waitingTime="0.00" waitingCount="0" stopTime="0.00" timeLoss="47.52" rerouteNo="0" devices="tripinfo_flow_route_93_duration_20250327_2030.21" vType="car" speedFactor="1.00" vaporized=""/>
    <tripinfo id="flow_route_92_duration_20250327_2030.16" depart="104.00" departLane="133000063_0" departPos="34.78" departSpeed="0.00" departDelay="67.09" arrival="209.00" arrivalLane="186409193_0" arrivalPos="57.15" arrivalSpeed="14.56" duration="105.00" routeLength="414.22" waitingTime="36.00" waitingCount="1" stopTime="0.00" timeLoss="75.95" rerouteNo="0" devices="tripinfo_flow_route_92_duration_20250327_2030.16" vType="car" speedFactor="0.90" vaporized=""/>
    <tripinfo id="flow_route_92_duration_20250327_2030.17" depart="116.00" departLane="133000063_0" departPos="50.55" departSpeed="0.00" departDelay="76.78" arrival="210.00" arrivalLane="186409193_0" arrivalPos="25.17" arrivalSpeed="14.56" duration="94.00" routeLength="366.49" waitingTime="35.00" waitingCount="1" stopTime="0.00" timeLoss="70.00" rerouteNo="0" devices="tripinfo_flow_route_92_duration_20250327_2030.17" vType="car" speedFactor="0.97" vaporized=""/>
    <tripinfo id="flow_route_92_duration_20250327_2030.18" depart="116.00" departLane="133000063_0" departPos="37.20" departSpeed="0.00" departDelay="74.47" arrival="213.00" arrivalLane="186409193_0" arrivalPos="47.97" arrivalSpeed="15.21" duration="97.00" routeLength="402.63" waitingTime="35.00" waitingCount="1" stopTime="0.00" timeLoss="71.65" rerouteNo="0" devices="tripinfo_flow_route_92_duration_20250327_2030.18" vType="car" speedFactor="0.99" vaporized=""/>