<?xml version="1.0" encoding="UTF-8"?>

<!-- generated on 2025-05-06 21:07:45 by Eclipse SUMO sumo Version 1.20.0
<configuration xmlns:xsi="http://www.w3.org/2001/XMLSchema-instance" xsi:noNamespaceSchemaLocation="http://sumo.dlr.de/xsd/sumoConfiguration.xsd">

    <input>
        <net-file value="osm.net.xml"/>
        <route-files value="xml/route_static_GS_cluster_1342409365_3839031467_0.rou.xml"/>
    </input>

    <output>
        <tripinfo-output value="xml/tripinfo_static_GS_cluster_1342409365_3839031467_0.xml"/>
    </output>

    <traci_server>
        <remote-port value="58857"/>
    </traci_server>

</configuration>
-->

<tripinfos xmlns:xsi="http://www.w3.org/2001/XMLSchema-instance" xsi:noNamespaceSchemaLocation="http://sumo.dlr.de/xsd/tripinfo_file.xsd">
    <tripinfo id="flow_route_128_duration_20250327_2000.0" depart="0.00" departLane="134133272_0" departPos="226.49" departSpeed="0.00" departDelay="0.00" arrival="31.00" arrivalLane="380585338#0_0" arrivalPos="7.57" arrivalSpeed="5.61" duration="31.00" routeLength="279.28" waitingTime="0.00" waitingCount="0" stopTime="0.00" timeLoss="10.64" rerouteNo="0" devices="tripinfo_flow_route_128_duration_20250327_2000.0" vType="car" speedFactor="0.83" vaporized=""/>
    <tripinfo id="flow_route_103_duration_20250327_2000.0" depart="1.00" departLane="1342963997_0" departPos="122.75" departSpeed="0.00" departDelay="1.00" arrival="42.00" arrivalLane="683079387#1_0" arrivalPos="6.02" arrivalSpeed="16.56" duration="41.00" routeLength="459.49" waitingTime="0.00" waitingCount="0" stopTime="0.00" timeLoss="11.83" rerouteNo="0" devices="tripinfo_flow_route_103_duration_20250327_2000.0" vType="car" speedFactor="1.03" vaporized=""/>
    <tripinfo id="flow_route_91_duration_20250327_2000.0" depart="0.00" departLane="133000063_0" departPos="128.34" departSpeed="0.00" departDelay="0.00" arrival="49.00" arrivalLane="683079387#1_0" arrivalPos="9.10" arrivalSpeed="16.11" duration="49.00" routeLength="599.49" waitingTime="0.00" waitingCount="0" stopTime="0.00" timeLoss="12.53" rerouteNo="0" devices="tripinfo_flow_route_91_duration_20250327_2000.0" vType="car" speedFactor="1.06" vaporized=""/>
    <tripinfo id="flow_route_102_duration_20250327_2000.1" depart="2.00" departLane="1342963997_0" departPos="148.01" departSpeed="0.00" departDelay="0.87" arrival="62.00" arrivalLane="380585336_1" arrivalPos="129.38" arrivalSpeed="16.42" duration="60.00" routeLength="692.32" waitingTime="0.00" waitingCount="0" stopTime="0.00" timeLoss="17.79" rerouteNo="0" devices="tripinfo_flow_route_102_duration_20250327_2000.1" vType="car" speedFactor="1.03" vaporized=""/>
    <tripinfo id="flow_route_93_duration_20250327_2000.0" depart="0.00" departLane="133000063_0" departPos="115.92" departSpeed="0.00" departDelay="0.00" arrival="65.00" arrivalLane="380585336_1" arrivalPos="19.16" arrivalSpeed="15.58" duration="65.00" routeLength="758.54" waitingTime="0.00" waitingCount="0" stopTime="0.00" timeLoss="18.68" rerouteNo="0" devices="tripinfo_flow_route_93_duration_20250327_2000.0" vType="car" speedFactor="1.01" vaporized=""/>
    <tripinfo id="flow_route_129_duration_20250327_2000.0" depart="0.00" departLane="134133272_0" departPos="105.80" departSpeed="0.00" departDelay="0.00" arrival="70.00" arrivalLane="683079387#1_0" arrivalPos="7.59" arrivalSpeed="16.58" duration="70.00" routeLength="945.90" waitingTime="0.00" waitingCount="0" stopTime="0.00" timeLoss="12.28" rerouteNo="0" devices="tripinfo_flow_route_129_duration_20250327_2000.0" vType="car" speedFactor="1.05" vaporized=""/>
    <tripinfo id="flow_route_144_duration_20250327_2000.0" depart="0.00" departLane="683079388#0_0" departPos="1.56" departSpeed="0.00" departDelay="0.00" arrival="71.00" arrivalLane="380585338#0_0" arrivalPos="42.98" arrivalSpeed="9.25" duration="71.00" routeLength="621.16" waitingTime="8.00" waitingCount="1" stopTime="0.00" timeLoss="28.91" rerouteNo="0" devices="tripinfo_flow_route_144_duration_20250327_2000.0" vType="car" speedFactor="0.89" vaporized=""/>
    <tripinfo id="flow_route_93_duration_20250327_2000.2" depart="2.00" departLane="133000063_0" departPos="161.74" departSpeed="0.00" departDelay="0.26" arrival="75.00" arrivalLane="380585336_2" arrivalPos="216.14" arrivalSpeed="16.37" duration="73.00" routeLength="909.69" waitingTime="0.00" waitingCount="0" stopTime="0.00" timeLoss="18.01" rerouteNo="0" devices="tripinfo_flow_route_93_duration_20250327_2000.2" vType="car" speedFactor="1.09" vaporized=""/>
    <tripinfo id="flow_route_93_duration_20250327_2000.1" depart="2.00" departLane="133000063_0" departPos="109.11" departSpeed="0.00" departDelay="1.13" arrival="80.00" arrivalLane="380585336_0" arrivalPos="135.66" arrivalSpeed="13.97" duration="78.00" routeLength="881.84" waitingTime="0.00" waitingCount="0" stopTime="0.00" timeLoss="16.12" rerouteNo="0" devices="tripinfo_flow_route_93_duration_20250327_2000.1" vType="car" speedFactor="0.86" vaporized=""/>
    <tripinfo id="flow_route_144_duration_20250327_2000.1" depart="30.00" departLane="683079388#0_0" departPos="8.35" departSpeed="0.00" departDelay="0.00" arrival="81.00" arrivalLane="380585338#0_0" arrivalPos="57.80" arrivalSpeed="16.24" duration="51.00" routeLength="629.18" waitingTime="0.00" waitingCount="0" stopTime="0.00" timeLoss="12.17" rerouteNo="0" devices="tripinfo_flow_route_144_duration_20250327_2000.1" vType="car" speedFactor="1.00" vaporized=""/>
    <tripinfo id="flow_route_102_duration_20250327_2000.6" depart="7.00" departLane="1342963997_0" departPos="128.49" departSpeed="0.00" departDelay="0.21" arrival="85.00" arrivalLane="380585336_0" arrivalPos="342.02" arrivalSpeed="14.53" duration="78.00" routeLength="924.48" waitingTime="0.00" waitingCount="0" stopTime="0.00" timeLoss="15.81" rerouteNo="0" devices="tripinfo_flow_route_102_duration_20250327_2000.6" vType="car" speedFactor="0.89" vaporized=""/>
    <tripinfo id="flow_route_102_duration_20250327_2000.12" depart="14.00" departLane="1342963997_0" departPos="148.23" departSpeed="0.00" departDelay="0.42" arrival="90.00" arrivalLane="380585336_1" arrivalPos="89.48" arrivalSpeed="16.38" duration="76.00" routeLength="652.20" waitingTime="4.00" waitingCount="2" stopTime="0.00" timeLoss="35.51" rerouteNo="0" devices="tripinfo_flow_route_102_duration_20250327_2000.12" vType="car" speedFactor="1.03" vaporized=""/>
    <tripinfo id="flow_route_102_duration_20250327_2000.20" depart="24.00" departLane="1342963997_0" departPos="169.65" departSpeed="0.00" departDelay="1.36" arrival="90.00" arrivalLane="380585336_1" arrivalPos="116.84" arrivalSpeed="16.25" duration="66.00" routeLength="658.14" waitingTime="1.00" waitingCount="1" stopTime="0.00" timeLoss="25.18" rerouteNo="0" devices="tripinfo_flow_route_102_duration_20250327_2000.20" vType="car" speedFactor="1.02" vaporized=""/>
    <tripinfo id="flow_route_128_duration_20250327_2000.2" depart="40.00" departLane="134133272_0" departPos="120.93" departSpeed="0.00" departDelay="0.00" arrival="91.00" arrivalLane="380585338#0_0" arrivalPos="40.11" arrivalSpeed="9.03" duration="51.00" routeLength="417.38" waitingTime="2.00" waitingCount="1" stopTime="0.00" timeLoss="24.79" rerouteNo="0" devices="tripinfo_flow_route_128_duration_20250327_2000.2" vType="car" speedFactor="1.06" vaporized=""/>
    <tripinfo id="flow_route_102_duration_20250327_2000.23" depart="27.00" departLane="1342963997_0" departPos="164.95" departSpeed="0.00" departDelay="0.96" arrival="92.00" arrivalLane="380585336_1" arrivalPos="0.36" arrivalSpeed="15.47" duration="65.00" routeLength="546.36" waitingTime="5.00" waitingCount="2" stopTime="0.00" timeLoss="30.01" rerouteNo="0" devices="tripinfo_flow_route_102_duration_20250327_2000.23" vType="car" speedFactor="0.94" vaporized=""/>
    <tripinfo id="flow_route_93_duration_20250327_2000.3" depart="3.00" departLane="133000063_0" departPos="93.75" departSpeed="0.00" departDelay="0.39" arrival="93.00" arrivalLane="380585336_1" arrivalPos="374.01" arrivalSpeed="16.46" duration="90.00" routeLength="1135.55" waitingTime="0.00" waitingCount="0" stopTime="0.00" timeLoss="20.64" rerouteNo="0" devices="tripinfo_flow_route_93_duration_20250327_2000.3" vType="car" speedFactor="1.05" vaporized=""/>
    <tripinfo id="flow_route_102_duration_20250327_2000.14" depart="17.00" departLane="1342963997_0" departPos="156.91" departSpeed="0.00" departDelay="1.15" arrival="94.00" arrivalLane="380585336_1" arrivalPos="263.45" arrivalSpeed="16.38" duration="77.00" routeLength="817.49" waitingTime="3.00" waitingCount="1" stopTime="0.00" timeLoss="27.02" rerouteNo="0" devices="tripinfo_flow_route_102_duration_20250327_2000.14" vType="car" speedFactor="1.00" vaporized=""/>
    <tripinfo id="flow_route_92_duration_20250327_2000.1" depart="4.00" departLane="133000063_0" departPos="27.40" departSpeed="0.00" departDelay="0.00" arrival="98.00" arrivalLane="186409193_0" arrivalPos="1.89" arrivalSpeed="13.51" duration="94.00" routeLength="366.35" waitingTime="33.00" waitingCount="1" stopTime="0.00" timeLoss="70.84" rerouteNo="0" devices="tripinfo_flow_route_92_duration_20250327_2000.1" vType="car" speedFactor="0.99" vaporized=""/>
    <tripinfo id="flow_route_92_duration_20250327_2000.0" depart="0.00" departLane="133000063_0" departPos="1.04" departSpeed="0.00" departDelay="0.00" arrival="99.00" arrivalLane="186409193_0" arrivalPos="41.62" arrivalSpeed="14.93" duration="99.00" routeLength="432.44" waitingTime="26.00" waitingCount="2" stopTime="0.00" timeLoss="69.67" rerouteNo="0" devices="tripinfo_flow_route_92_duration_20250327_2000.0" vType="car" speedFactor="0.94" vaporized=""/>
    <tripinfo id="flow_route_128_duration_20250327_2000.1" depart="20.00" departLane="134133272_0" departPos="17.04" departSpeed="0.00" departDelay="0.00" arrival="99.00" arrivalLane="380585338#0_0" arrivalPos="153.16" arrivalSpeed="14.98" duration="79.00" routeLength="634.32" waitingTime="14.00" waitingCount="1" stopTime="0.00" timeLoss="35.50" rerouteNo="0" devices="tripinfo_flow_route_128_duration_20250327_2000.1" vType="car" speedFactor="0.90" vaporized=""/>
    <tripinfo id="flow_route_102_duration_20250327_2000.28" depart="38.00" departLane="1342963997_0" departPos="176.38" departSpeed="0.00" departDelay="6.30" arrival="100.00" arrivalLane="380585336_1" arrivalPos="48.32" arrivalSpeed="16.43" duration="62.00" routeLength="582.88" waitingTime="3.00" waitingCount="2" stopTime="0.00" timeLoss="26.01" rerouteNo="0" devices="tripinfo_flow_route_102_duration_20250327_2000.28" vType="car" speedFactor="1.04" vaporized=""/>
    <tripinfo id="flow_route_102_duration_20250327_2000.29" depart="41.00" departLane="1342963997_0" departPos="168.34" departSpeed="0.00" departDelay="8.17" arrival="107.00" arrivalLane="380585336_1" arrivalPos="105.55" arrivalSpeed="16.44" duration="66.00" routeLength="648.17" waitingTime="3.00" waitingCount="1" stopTime="0.00" timeLoss="26.15" rerouteNo="0" devices="tripinfo_flow_route_102_duration_20250327_2000.29" vType="car" speedFactor="1.02" vaporized=""/>
    <tripinfo id="flow_route_92_duration_20250327_2000.2" depart="19.00" departLane="133000063_0" departPos="80.32" departSpeed="0.00" departDelay="11.00" arrival="110.00" arrivalLane="186409193_0" arrivalPos="34.83" arrivalSpeed="13.38" duration="91.00" routeLength="346.37" waitingTime="24.00" waitingCount="3" stopTime="0.00" timeLoss="64.80" rerouteNo="0" devices="tripinfo_flow_route_92_duration_20250327_2000.2" vType="car" speedFactor="0.83" vaporized=""/>
    <tripinfo id="flow_route_92_duration_20250327_2000.3" depart="32.00" departLane="133000063_0" departPos="38.92" departSpeed="0.00" departDelay="20.00" arrival="111.00" arrivalLane="186409193_0" arrivalPos="10.46" arrivalSpeed="15.05" duration="79.00" routeLength="363.39" waitingTime="10.00" waitingCount="2" stopTime="0.00" timeLoss="55.96" rerouteNo="0" devices="tripinfo_flow_route_92_duration_20250327_2000.3" vType="car" speedFactor="1.17" vaporized=""/>
    <tripinfo id="flow_route_102_duration_20250327_2000.0" depart="0.00" departLane="1342963997_0" departPos="83.70" departSpeed="0.00" departDelay="0.00" arrival="119.00" arrivalLane="380585336_2" arrivalPos="207.08" arrivalSpeed="16.14" duration="119.00" routeLength="834.32" waitingTime="12.00" waitingCount="5" stopTime="0.00" timeLoss="67.85" rerouteNo="0" devices="tripinfo_flow_route_102_duration_20250327_2000.0" vType="car" speedFactor="1.08" vaporized=""/>
    <tripinfo id="flow_route_102_duration_20250327_2000.40" depart="61.00" departLane="1342963997_0" departPos="175.00" departSpeed="0.00" departDelay="15.72" arrival="119.00" arrivalLane="380585336_1" arrivalPos="134.45" arrivalSpeed="16.36" duration="58.00" routeLength="670.40" waitingTime="0.00" waitingCount="0" stopTime="0.00" timeLoss="17.02" rerouteNo="0" devices="tripinfo_flow_route_102_duration_20250327_2000.40" vType="car" speedFactor="1.10" vaporized=""/>
    <tripinfo id="flow_route_93_duration_20250327_2000.4" depart="6.00" departLane="133000063_0" departPos="45.48" departSpeed="0.00" departDelay="2.52" arrival="124.00" arrivalLane="380585336_1" arrivalPos="127.15" arrivalSpeed="15.31" duration="118.00" routeLength="936.96" waitingTime="24.00" waitingCount="2" stopTime="0.00" timeLoss="57.77" rerouteNo="0" devices="tripinfo_flow_route_93_duration_20250327_2000.4" vType="car" speedFactor="0.93" vaporized=""/>
    <tripinfo id="flow_route_102_duration_20250327_2000.5" depart="7.00" departLane="1342963997_0" departPos="119.97" departSpeed="0.00" departDelay="1.34" arrival="124.00" arrivalLane="380585336_0" arrivalPos="406.42" arrivalSpeed="16.12" duration="117.00" routeLength="997.40" waitingTime="4.00" waitingCount="4" stopTime="0.00" timeLoss="55.63" rerouteNo="0" devices="tripinfo_flow_route_102_duration_20250327_2000.5" vType="car" speedFactor="1.02" vaporized=""/>
    <tripinfo id="flow_route_102_duration_20250327_2000.15" depart="19.00" departLane="1342963997_0" departPos="140.24" departSpeed="0.00" departDelay="2.02" arrival="127.00" arrivalLane="380585336_0" arrivalPos="299.48" arrivalSpeed="14.28" duration="108.00" routeLength="870.19" waitingTime="13.00" waitingCount="4" stopTime="0.00" timeLoss="48.59" rerouteNo="0" devices="tripinfo_flow_route_102_duration_20250327_2000.15" vType="car" speedFactor="0.88" vaporized=""/>
    <tripinfo id="flow_route_102_duration_20250327_2000.41" depart="66.00" departLane="1342963997_0" departPos="174.32" departSpeed="0.00" departDelay="19.59" arrival="130.00" arrivalLane="380585336_1" arrivalPos="276.20" arrivalSpeed="16.11" duration="64.00" routeLength="812.83" waitingTime="0.00" waitingCount="0" stopTime="0.00" timeLoss="14.31" rerouteNo="0" devices="tripinfo_flow_route_102_duration_20250327_2000.41" vType="car" speedFactor="1.06" vaporized=""/>
    <tripinfo id="flow_route_93_duration_20250327_2000.7" depart="14.00" departLane="133000063_0" departPos="116.90" departSpeed="0.00" departDelay="7.92" arrival="136.00" arrivalLane="380585336_2" arrivalPos="240.85" arrivalSpeed="16.32" duration="122.00" routeLength="979.25" waitingTime="32.00" waitingCount="1" stopTime="0.00" timeLoss="62.74" rerouteNo="0" devices="tripinfo_flow_route_93_duration_20250327_2000.7" vType="car" speedFactor="1.01" vaporized=""/>
    <tripinfo id="flow_route_93_duration_20250327_2000.16" depart="40.00" departLane="133000063_0" departPos="59.72" departSpeed="0.00" departDelay="26.10" arrival="137.00" arrivalLane="380585336_1" arrivalPos="122.21" arrivalSpeed="14.60" duration="97.00" routeLength="917.78" waitingTime="3.00" waitingCount="1" stopTime="0.00" timeLoss="36.08" rerouteNo="0" devices="tripinfo_flow_route_93_duration_20250327_2000.16" vType="car" speedFactor="0.90" vaporized=""/>
    <tripinfo id="flow_route_145_duration_20250327_2000.0" depart="0.00" departLane="683079388#0_0" departPos="22.61" departSpeed="0.00" departDelay="0.00" arrival="141.00" arrivalLane="380585336_0" arrivalPos="229.76" arrivalSpeed="15.58" duration="141.00" routeLength="831.39" waitingTime="65.00" waitingCount="1" stopTime="0.00" timeLoss="88.43" rerouteNo="0" devices="tripinfo_flow_route_145_duration_20250327_2000.0" vType="car" speedFactor="0.94" vaporized=""/>
    <tripinfo id="flow_route_93_duration_20250327_2000.14" depart="39.00" departLane="133000063_0" departPos="99.76" departSpeed="0.00" departDelay="26.83" arrival="141.00" arrivalLane="380585336_1" arrivalPos="238.97" arrivalSpeed="15.85" duration="102.00" routeLength="994.51" waitingTime="6.00" waitingCount="1" stopTime="0.00" timeLoss="40.60" rerouteNo="0" devices="tripinfo_flow_route_93_duration_20250327_2000.14" vType="car" speedFactor="0.97" vaporized=""/>
    <tripinfo id="flow_route_93_duration_20250327_2000.8" depart="19.00" departLane="133000063_0" departPos="17.49" departSpeed="0.00" departDelay="12.05" arrival="142.00" arrivalLane="380585336_1" arrivalPos="101.71" arrivalSpeed="15.94" duration="123.00" routeLength="939.51" waitingTime="17.00" waitingCount="1" stopTime="0.00" timeLoss="64.51" rerouteNo="0" devices="tripinfo_flow_route_93_duration_20250327_2000.8" vType="car" speedFactor="0.97" vaporized=""/>
    <tripinfo id="flow_route_93_duration_20250327_2000.9" depart="21.00" departLane="133000063_0" departPos="168.49" departSpeed="0.00" departDelay="13.18" arrival="142.00" arrivalLane="380585336_0" arrivalPos="291.42" arrivalSpeed="14.25" duration="121.00" routeLength="978.22" waitingTime="33.00" waitingCount="1" stopTime="0.00" timeLoss="53.90" rerouteNo="0" devices="tripinfo_flow_route_93_duration_20250327_2000.9" vType="car" speedFactor="0.87" vaporized=""/>
    <tripinfo id="flow_route_93_duration_20250327_2000.6" depart="13.00" departLane="133000063_0" departPos="8.07" departSpeed="0.00" departDelay="7.79" arrival="143.00" arrivalLane="380585336_1" arrivalPos="173.32" arrivalSpeed="15.74" duration="130.00" routeLength="1020.55" waitingTime="8.00" waitingCount="2" stopTime="0.00" timeLoss="68.52" rerouteNo="0" devices="tripinfo_flow_route_93_duration_20250327_2000.6" vType="car" speedFactor="1.16" vaporized=""/>
    <tripinfo id="flow_route_93_duration_20250327_2000.11" depart="28.00" departLane="133000063_0" departPos="19.69" departSpeed="0.00" departDelay="18.44" arrival="143.00" arrivalLane="380585336_1" arrivalPos="77.26" arrivalSpeed="15.23" duration="115.00" routeLength="912.86" waitingTime="6.00" waitingCount="1" stopTime="0.00" timeLoss="55.91" rerouteNo="0" devices="tripinfo_flow_route_93_duration_20250327_2000.11" vType="car" speedFactor="0.93" vaporized=""/>
    <tripinfo id="flow_route_93_duration_20250327_2000.5" depart="13.00" departLane="133000063_0" departPos="31.12" departSpeed="0.00" departDelay="8.66" arrival="149.00" arrivalLane="380585336_0" arrivalPos="288.66" arrivalSpeed="15.25" duration="136.00" routeLength="1112.83" waitingTime="8.00" waitingCount="2" stopTime="0.00" timeLoss="65.30" rerouteNo="0" devices="tripinfo_flow_route_93_duration_20250327_2000.5" vType="car" speedFactor="0.94" vaporized=""/>
    <tripinfo id="flow_route_93_duration_20250327_2000.10" depart="28.00" departLane="133000063_0" departPos="70.94" departSpeed="0.00" departDelay="19.31" arrival="149.00" arrivalLane="380585336_1" arrivalPos="70.96" arrivalSpeed="16.46" duration="121.00" routeLength="855.31" waitingTime="12.00" waitingCount="3" stopTime="0.00" timeLoss="68.56" rerouteNo="0" devices="tripinfo_flow_route_93_duration_20250327_2000.10" vType="car" speedFactor="1.13" vaporized=""/>
    <tripinfo id="flow_route_93_duration_20250327_2000.15" depart="40.00" departLane="133000063_0" departPos="32.38" departSpeed="0.00" departDelay="26.97" arrival="150.00" arrivalLane="380585336_1" arrivalPos="148.25" arrivalSpeed="16.21" duration="110.00" routeLength="971.16" waitingTime="2.00" waitingCount="1" stopTime="0.00" timeLoss="50.65" rerouteNo="0" devices="tripinfo_flow_route_93_duration_20250327_2000.15" vType="car" speedFactor="1.10" vaporized=""/>
    <tripinfo id="flow_route_92_duration_20250327_2000.5" depart="59.00" departLane="133000063_0" departPos="88.28" departSpeed="0.00" departDelay="39.00" arrival="152.00" arrivalLane="186409193_0" arrivalPos="41.61" arrivalSpeed="15.34" duration="93.00" routeLength="345.18" waitingTime="37.00" waitingCount="1" stopTime="0.00" timeLoss="70.98" rerouteNo="0" devices="tripinfo_flow_route_92_duration_20250327_2000.5" vType="car" speedFactor="1.02" vaporized=""/>
    <tripinfo id="flow_route_92_duration_20250327_2000.4" depart="47.00" departLane="133000063_0" departPos="8.36" departSpeed="0.00" departDelay="31.00" arrival="154.00" arrivalLane="186409193_0" arrivalPos="6.12" arrivalSpeed="13.47" duration="107.00" routeLength="389.62" waitingTime="28.00" waitingCount="2" stopTime="0.00" timeLoss="82.56" rerouteNo="0" devices="tripinfo_flow_route_92_duration_20250327_2000.4" vType="car" speedFactor="1.04" vaporized=""/>
    <tripinfo id="flow_route_93_duration_20250327_2000.12" depart="32.00" departLane="133000063_0" departPos="16.83" departSpeed="0.00" departDelay="21.57" arrival="156.00" arrivalLane="380585336_1" arrivalPos="117.49" arrivalSpeed="15.53" duration="124.00" routeLength="955.95" waitingTime="5.00" waitingCount="2" stopTime="0.00" timeLoss="65.50" rerouteNo="0" devices="tripinfo_flow_route_93_duration_20250327_2000.12" vType="car" speedFactor="1.15" vaporized=""/>
    <tripinfo id="flow_route_92_duration_20250327_2000.6" depart="80.00" departLane="133000063_0" departPos="95.68" departSpeed="0.00" departDelay="56.00" arrival="158.00" arrivalLane="186409193_0" arrivalPos="6.01" arrivalSpeed="13.13" duration="78.00" routeLength="302.19" waitingTime="13.00" waitingCount="2" stopTime="0.00" timeLoss="57.50" rerouteNo="0" devices="tripinfo_flow_route_92_duration_20250327_2000.6" vType="car" speedFactor="0.94" vaporized=""/>
    <tripinfo id="flow_route_93_duration_20250327_2000.17" depart="44.00" departLane="133000063_0" departPos="82.03" departSpeed="0.00" departDelay="29.23" arrival="162.00" arrivalLane="380585336_0" arrivalPos="246.50" arrivalSpeed="15.74" duration="118.00" routeLength="1019.76" waitingTime="10.00" waitingCount="1" stopTime="0.00" timeLoss="53.99" rerouteNo="0" devices="tripinfo_flow_route_93_duration_20250327_2000.17" vType="car" speedFactor="0.96" vaporized=""/>
    <tripinfo id="flow_route_102_duration_20250327_2000.45" depart="72.00" departLane="1342963997_0" departPos="145.80" departSpeed="0.00" departDelay="21.06" arrival="176.00" arrivalLane="380585336_1" arrivalPos="101.38" arrivalSpeed="15.11" duration="104.00" routeLength="666.53" waitingTime="35.00" waitingCount="1" stopTime="0.00" timeLoss="62.95" rerouteNo="0" devices="tripinfo_flow_route_102_duration_20250327_2000.45" vType="car" speedFactor="1.04" vaporized=""/>
    <tripinfo id="flow_route_102_duration_20250327_2000.35" depart="50.00" departLane="1342963997_0" departPos="151.41" departSpeed="0.00" departDelay="10.38" arrival="179.00" arrivalLane="380585336_0" arrivalPos="385.81" arrivalSpeed="16.11" duration="129.00" routeLength="945.35" waitingTime="38.00" waitingCount="4" stopTime="0.00" timeLoss="71.02" rerouteNo="0" devices="tripinfo_flow_route_102_duration_20250327_2000.35" vType="car" speedFactor="1.03" vaporized=""/>
    <tripinfo id="flow_route_93_duration_20250327_2000.22" depart="63.00" departLane="133000063_0" departPos="20.59" departSpeed="0.00" departDelay="43.88" arrival="182.00" arrivalLane="380585336_2" arrivalPos="52.37" arrivalSpeed="16.47" duration="119.00" routeLength="887.07" waitingTime="27.00" waitingCount="2" stopTime="0.00" timeLoss="65.01" rerouteNo="0" devices="tripinfo_flow_route_93_duration_20250327_2000.22" vType="car" speedFactor="1.10" vaporized=""/>
    <tripinfo id="flow_route_102_duration_20250327_2000.22" depart="26.00" departLane="1342963997_0" departPos="143.28" departSpeed="0.00" departDelay="1.10" arrival="182.00" arrivalLane="380585336_0" arrivalPos="413.34" arrivalSpeed="16.19" duration="156.00" routeLength="981.00" waitingTime="46.00" waitingCount="5" stopTime="0.00" timeLoss="96.44" rerouteNo="0" devices="tripinfo_flow_route_102_duration_20250327_2000.22" vType="car" speedFactor="1.04" vaporized=""/>
    <tripinfo id="flow_route_102_duration_20250327_2000.47" depart="73.00" departLane="1342963997_0" departPos="174.39" departSpeed="0.00" departDelay="19.80" arrival="190.00" arrivalLane="380585336_0" arrivalPos="403.52" arrivalSpeed="16.50" duration="117.00" routeLength="940.07" waitingTime="33.00" waitingCount="3" stopTime="0.00" timeLoss="59.04" rerouteNo="0" devices="tripinfo_flow_route_102_duration_20250327_2000.47" vType="car" speedFactor="1.16" vaporized=""/>
    <tripinfo id="flow_route_102_duration_20250327_2000.51" depart="87.00" departLane="1342963997_0" departPos="167.60" departSpeed="0.00" departDelay="29.27" arrival="193.00" arrivalLane="380585336_0" arrivalPos="251.14" arrivalSpeed="15.92" duration="106.00" routeLength="794.49" waitingTime="37.00" waitingCount="1" stopTime="0.00" timeLoss="55.88" rerouteNo="0" devices="tripinfo_flow_route_102_duration_20250327_2000.51" vType="car" speedFactor="0.96" vaporized=""/>
    <tripinfo id="flow_route_102_duration_20250327_2000.7" depart="8.00" departLane="1342963997_0" departPos="88.45" departSpeed="0.00" departDelay="0.08" arrival="194.00" arrivalLane="380585336_0" arrivalPos="393.99" arrivalSpeed="15.21" duration="186.00" routeLength="1016.50" waitingTime="40.00" waitingCount="6" stopTime="0.00" timeLoss="119.29" rerouteNo="0" devices="tripinfo_flow_route_102_duration_20250327_2000.7" vType="car" speedFactor="0.92" vaporized=""/>
    <tripinfo id="flow_route_93_duration_20250327_2000.21" depart="59.00" departLane="133000063_0" departPos="47.24" departSpeed="0.00" departDelay="40.75" arrival="194.00" arrivalLane="380585336_0" arrivalPos="144.47" arrivalSpeed="13.98" duration="135.00" routeLength="952.52" waitingTime="21.00" waitingCount="2" stopTime="0.00" timeLoss="68.29" rerouteNo="0" devices="tripinfo_flow_route_93_duration_20250327_2000.21" vType="car" speedFactor="0.85" vaporized=""/>
    <tripinfo id="flow_route_102_duration_20250327_2000.26" depart="36.00" departLane="1342963997_0" departPos="133.07" departSpeed="0.00" departDelay="6.57" arrival="195.00" arrivalLane="380585336_0" arrivalPos="355.49" arrivalSpeed="16.44" duration="159.00" routeLength="933.37" waitingTime="50.00" waitingCount="4" stopTime="0.00" timeLoss="102.16" rerouteNo="0" devices="tripinfo_flow_route_102_duration_20250327_2000.26" vType="car" speedFactor="1.03" vaporized=""/>
    <tripinfo id="flow_route_93_duration_20250327_2000.26" depart="77.00" departLane="133000063_0" departPos="73.07" departSpeed="0.00" departDelay="54.41" arrival="198.00" arrivalLane="380585336_2" arrivalPos="248.22" arrivalSpeed="16.17" duration="121.00" routeLength="1030.44" waitingTime="5.00" waitingCount="3" stopTime="0.00" timeLoss="58.75" rerouteNo="0" devices="tripinfo_flow_route_93_duration_20250327_2000.26" vType="car" speedFactor="1.12" vaporized=""/>
    <tripinfo id="flow_route_92_duration_20250327_2000.7" depart="107.00" departLane="133000063_0" departPos="34.20" departSpeed="0.00" departDelay="79.00" arrival="203.00" arrivalLane="186409193_0" arrivalPos="0.68" arrivalSpeed="13.54" duration="96.00" routeLength="358.35" waitingTime="35.00" waitingCount="1" stopTime="0.00" timeLoss="73.68" rerouteNo="0" devices="tripinfo_flow_route_92_duration_20250327_2000.7" vType="car" speedFactor="1.06" vaporized=""/>
    <tripinfo id="flow_route_93_duration_20250327_2000.19" depart="55.00" departLane="133000063_0" departPos="1.35" departSpeed="0.00" departDelay="38.49" arrival="209.00" arrivalLane="380585336_1" arrivalPos="179.12" arrivalSpeed="14.68" duration="154.00" routeLength="1033.06" waitingTime="19.00" waitingCount="3" stopTime="0.00" timeLoss="85.41" rerouteNo="0" devices="tripinfo_flow_route_93_duration_20250327_2000.19" vType="car" speedFactor="0.90" vaporized=""/>
    <tripinfo id="flow_route_93_duration_20250327_2000.23" depart="66.00" departLane="133000063_0" departPos="39.22" departSpeed="0.00" departDelay="46.01" arrival="209.00" arrivalLane="380585336_1" arrivalPos="300.55" arrivalSpeed="16.24" duration="143.00" routeLength="1116.61" waitingTime="15.00" waitingCount="3" stopTime="0.00" timeLoss="75.53" rerouteNo="0" devices="tripinfo_flow_route_93_duration_20250327_2000.23" vType="car" speedFactor="1.00" vaporized=""/>
    <tripinfo id="flow_route_93_duration_20250327_2000.31" depart="105.00" departLane="133000063_0" departPos="58.36" departSpeed="0.00" departDelay="78.06" arrival="210.00" arrivalLane="380585336_1" arrivalPos="142.78" arrivalSpeed="15.83" duration="105.00" routeLength="939.71" waitingTime="0.00" waitingCount="0" stopTime="0.00" timeLoss="46.32" rerouteNo="0" devices="tripinfo_flow_route_93_duration_20250327_2000.31" vType="car" speedFactor="0.97" vaporized=""/>
    <tripinfo id="flow_route_93_duration_20250327_2000.27" depart="83.00" departLane="133000063_0" departPos="22.07" departSpeed="0.00" departDelay="59.54" arrival="212.00" arrivalLane="380585336_0" arrivalPos="360.92" arrivalSpeed="14.62" duration="129.00" routeLength="1194.14" waitingTime="1.00" waitingCount="1" stopTime="0.00" timeLoss="48.50" rerouteNo="0" devices="tripinfo_flow_route_93_duration_20250327_2000.27" vType="car" speedFactor="0.88" vaporized=""/>
    <tripinfo id="flow_route_93_duration_20250327_2000.13" depart="37.00" departLane="133000063_0" departPos="1.26" departSpeed="0.00" departDelay="25.70" arrival="213.00" arrivalLane="380585336_2" arrivalPos="418.10" arrivalSpeed="16.33" duration="176.00" routeLength="1272.13" waitingTime="40.00" waitingCount="2" stopTime="0.00" timeLoss="99.16" rerouteNo="0" devices="tripinfo_flow_route_93_duration_20250327_2000.13" vType="car" speedFactor="0.99" vaporized=""/>