<?xml version="1.0" encoding="UTF-8"?>

<!-- generated on 2025-05-06 21:08:15 by Eclipse SUMO sumo Version 1.20.0
<configuration xmlns:xsi="http://www.w3.org/2001/XMLSchema-instance" xsi:noNamespaceSchemaLocation="http://sumo.dlr.de/xsd/sumoConfiguration.xsd">

    <input>
        <net-file value="osm.net.xml"/>
        <route-files value="xml/route_static_cluster7571105647_7571105653_cluster_1141265322_11869698130_256036890_4227138136_#4more_3.rou.xml"/>
    </input>

    <output>
        <tripinfo-output value="xml/tripinfo_static_cluster7571105647_7571105653_cluster_1141265322_11869698130_256036890_4227138136_#4more_3.xml"/>
    </output>

    <traci_server>
        <remote-port value="51273"/>
    </traci_server>

</configuration>
-->

<tripinfos xmlns:xsi="http://www.w3.org/2001/XMLSchema-instance" xsi:noNamespaceSchemaLocation="http://sumo.dlr.de/xsd/tripinfo_file.xsd">
    <tripinfo id="flow_route_143_duration_20250327_2000.0" depart="0.00" departLane="1253222187#0_0" departPos="157.10" departSpeed="0.00" departDelay="0.00" arrival="28.00" arrivalLane="1310781056_0" arrivalPos="55.73" arrivalSpeed="16.37" duration="28.00" routeLength="267.13" waitingTime="0.00" waitingCount="0" stopTime="0.00" timeLoss="11.65" rerouteNo="0" devices="tripinfo_flow_route_143_duration_20250327_2000.0" vType="car" speedFactor="1.08" vaporized=""/>
    <tripinfo id="flow_route_140_duration_20250327_2000.1" depart="6.00" departLane="809719540#0_0" departPos="252.23" departSpeed="0.00" departDelay="0.55" arrival="46.00" arrivalLane="-809772643#1_0" arrivalPos="63.49" arrivalSpeed="12.25" duration="40.00" routeLength="118.71" waitingTime="15.00" waitingCount="1" stopTime="0.00" timeLoss="31.02" rerouteNo="0" devices="tripinfo_flow_route_140_duration_20250327_2000.1" vType="car" speedFactor="0.86" vaporized=""/>
    <tripinfo id="flow_route_140_duration_20250327_2000.2" depart="12.00" departLane="809719540#0_0" departPos="59.93" departSpeed="0.00" departDelay="1.09" arrival="48.00" arrivalLane="-809772643#1_0" arrivalPos="26.75" arrivalSpeed="12.15" duration="36.00" routeLength="274.27" waitingTime="0.00" waitingCount="0" stopTime="0.00" timeLoss="17.95" rerouteNo="0" devices="tripinfo_flow_route_140_duration_20250327_2000.2" vType="car" speedFactor="0.93" vaporized=""/>
    <tripinfo id="flow_route_140_duration_20250327_2000.5" depart="30.00" departLane="809719540#0_0" departPos="235.17" departSpeed="0.00" departDelay="2.73" arrival="51.00" arrivalLane="-809772643#1_0" arrivalPos="80.58" arrivalSpeed="14.62" duration="21.00" routeLength="152.87" waitingTime="0.00" waitingCount="0" stopTime="0.00" timeLoss="10.98" rerouteNo="0" devices="tripinfo_flow_route_140_duration_20250327_2000.5" vType="car" speedFactor="1.15" vaporized=""/>
    <tripinfo id="flow_route_142_duration_20250327_2000.1" depart="4.00" departLane="1253222187#0_0" departPos="184.61" departSpeed="0.00" departDelay="0.84" arrival="52.00" arrivalLane="683079388#0_0" arrivalPos="6.83" arrivalSpeed="16.33" duration="48.00" routeLength="620.53" waitingTime="0.00" waitingCount="0" stopTime="0.00" timeLoss="10.51" rerouteNo="0" devices="tripinfo_flow_route_142_duration_20250327_2000.1" vType="car" speedFactor="1.05" vaporized=""/>
    <tripinfo id="flow_route_140_duration_20250327_2000.3" depart="17.00" departLane="809719540#0_0" departPos="256.49" departSpeed="0.00" departDelay="0.64" arrival="52.00" arrivalLane="-809772643#1_0" arrivalPos="119.93" arrivalSpeed="15.98" duration="35.00" routeLength="170.90" waitingTime="10.00" waitingCount="1" stopTime="0.00" timeLoss="23.85" rerouteNo="0" devices="tripinfo_flow_route_140_duration_20250327_2000.3" vType="car" speedFactor="1.01" vaporized=""/>
    <tripinfo id="flow_route_142_duration_20250327_2000.0" depart="0.00" departLane="1253222187#0_0" departPos="114.97" departSpeed="0.00" departDelay="0.00" arrival="54.00" arrivalLane="683079388#0_0" arrivalPos="1.17" arrivalSpeed="16.50" duration="54.00" routeLength="684.52" waitingTime="0.00" waitingCount="0" stopTime="0.00" timeLoss="11.90" rerouteNo="0" devices="tripinfo_flow_route_142_duration_20250327_2000.0" vType="car" speedFactor="1.01" vaporized=""/>
    <tripinfo id="flow_route_140_duration_20250327_2000.0" depart="0.00" departLane="809719540#0_0" departPos="199.64" departSpeed="0.00" departDelay="0.00" arrival="55.00" arrivalLane="-809772643#1_1" arrivalPos="184.22" arrivalSpeed="16.40" duration="55.00" routeLength="294.87" waitingTime="15.00" waitingCount="1" stopTime="0.00" timeLoss="36.52" rerouteNo="0" devices="tripinfo_flow_route_140_duration_20250327_2000.0" vType="car" speedFactor="1.06" vaporized=""/>
    <tripinfo id="flow_route_140_duration_20250327_2000.4" depart="22.00" departLane="809719540#0_0" departPos="91.06" departSpeed="0.00" departDelay="0.18" arrival="61.00" arrivalLane="-809772643#1_1" arrivalPos="205.16" arrivalSpeed="14.30" duration="39.00" routeLength="424.38" waitingTime="0.00" waitingCount="0" stopTime="0.00" timeLoss="9.82" rerouteNo="0" devices="tripinfo_flow_route_140_duration_20250327_2000.4" vType="car" speedFactor="0.87" vaporized=""/>
    <tripinfo id="flow_route_142_duration_20250327_2000.2" depart="7.00" departLane="1253222187#0_0" departPos="83.61" departSpeed="0.00" departDelay="0.69" arrival="63.00" arrivalLane="683079388#0_0" arrivalPos="21.28" arrivalSpeed="16.39" duration="56.00" routeLength="735.98" waitingTime="0.00" waitingCount="0" stopTime="0.00" timeLoss="10.79" rerouteNo="0" devices="tripinfo_flow_route_142_duration_20250327_2000.2" vType="car" speedFactor="1.09" vaporized=""/>
    <tripinfo id="flow_route_146_duration_20250327_2000.1" depart="9.00" departLane="683079387#1_0" departPos="3.08" departSpeed="0.00" departDelay="4.00" arrival="71.00" arrivalLane="-809772643#1_1" arrivalPos="141.34" arrivalSpeed="15.55" duration="62.00" routeLength="751.23" waitingTime="0.00" waitingCount="0" stopTime="0.00" timeLoss="13.37" rerouteNo="0" devices="tripinfo_flow_route_146_duration_20250327_2000.1" vType="car" speedFactor="0.94" vaporized=""/>
    <tripinfo id="flow_route_142_duration_20250327_2000.6" depart="20.00" departLane="1253222187#0_0" departPos="195.68" departSpeed="0.00" departDelay="1.06" arrival="71.00" arrivalLane="683079388#0_0" arrivalPos="3.92" arrivalSpeed="14.34" duration="51.00" routeLength="606.55" waitingTime="0.00" waitingCount="0" stopTime="0.00" timeLoss="9.62" rerouteNo="0" devices="tripinfo_flow_route_142_duration_20250327_2000.6" vType="car" speedFactor="0.89" vaporized=""/>
    <tripinfo id="flow_route_146_duration_20250327_2000.3" depart="18.00" departLane="683079387#1_0" departPos="1.87" departSpeed="0.00" departDelay="3.00" arrival="74.00" arrivalLane="-809772643#1_1" arrivalPos="123.28" arrivalSpeed="16.59" duration="56.00" routeLength="734.37" waitingTime="0.00" waitingCount="0" stopTime="0.00" timeLoss="11.12" rerouteNo="0" devices="tripinfo_flow_route_146_duration_20250327_2000.3" vType="car" speedFactor="1.16" vaporized=""/>
    <tripinfo id="flow_route_147_duration_20250327_2000.0" depart="4.00" departLane="683079387#1_0" departPos="0.62" departSpeed="0.00" departDelay="4.00" arrival="76.00" arrivalLane="1310781056_0" arrivalPos="4.95" arrivalSpeed="14.09" duration="72.00" routeLength="684.16" waitingTime="3.00" waitingCount="1" stopTime="0.00" timeLoss="22.21" rerouteNo="0" devices="tripinfo_flow_route_147_duration_20250327_2000.0" vType="car" speedFactor="0.83" vaporized=""/>
    <tripinfo id="flow_route_146_duration_20250327_2000.2" depart="14.00" departLane="683079387#1_0" departPos="0.91" departSpeed="0.00" departDelay="4.00" arrival="76.00" arrivalLane="-809772643#1_1" arrivalPos="197.78" arrivalSpeed="16.39" duration="62.00" routeLength="809.85" waitingTime="0.00" waitingCount="0" stopTime="0.00" timeLoss="12.47" rerouteNo="0" devices="tripinfo_flow_route_146_duration_20250327_2000.2" vType="car" speedFactor="0.99" vaporized=""/>
    <tripinfo id="flow_route_146_duration_20250327_2000.0" depart="0.00" departLane="683079387#1_0" departPos="0.06" departSpeed="0.00" departDelay="0.00" arrival="78.00" arrivalLane="-809772643#1_0" arrivalPos="121.98" arrivalSpeed="16.23" duration="78.00" routeLength="734.89" waitingTime="11.00" waitingCount="1" stopTime="0.00" timeLoss="33.38" rerouteNo="0" devices="tripinfo_flow_route_146_duration_20250327_2000.0" vType="car" speedFactor="1.03" vaporized=""/>
    <tripinfo id="flow_route_146_duration_20250327_2000.5" depart="29.00" departLane="683079387#1_0" departPos="3.73" departSpeed="0.00" departDelay="4.00" arrival="83.00" arrivalLane="-809772643#1_1" arrivalPos="72.75" arrivalSpeed="15.40" duration="54.00" routeLength="681.99" waitingTime="0.00" waitingCount="0" stopTime="0.00" timeLoss="9.70" rerouteNo="0" devices="tripinfo_flow_route_146_duration_20250327_2000.5" vType="car" speedFactor="0.93" vaporized=""/>
    <tripinfo id="flow_route_146_duration_20250327_2000.6" depart="34.00" departLane="683079387#1_0" departPos="1.04" departSpeed="0.00" departDelay="4.00" arrival="83.00" arrivalLane="-809772643#1_0" arrivalPos="21.65" arrivalSpeed="16.23" duration="49.00" routeLength="633.58" waitingTime="0.00" waitingCount="0" stopTime="0.00" timeLoss="10.83" rerouteNo="0" devices="tripinfo_flow_route_146_duration_20250327_2000.6" vType="car" speedFactor="1.02" vaporized=""/>
    <tripinfo id="flow_route_141_duration_20250327_2000.0" depart="0.00" departLane="809719540#0_0" departPos="66.48" departSpeed="0.00" departDelay="0.00" arrival="85.00" arrivalLane="683079387#1_1" arrivalPos="7.27" arrivalSpeed="6.50" duration="85.00" routeLength="836.36" waitingTime="4.00" waitingCount="1" stopTime="0.00" timeLoss="28.45" rerouteNo="0" devices="tripinfo_flow_route_141_duration_20250327_2000.0" vType="car" speedFactor="0.94" vaporized=""/>
    <tripinfo id="flow_route_146_duration_20250327_2000.4" depart="23.00" departLane="683079387#1_0" departPos="2.12" departSpeed="0.00" departDelay="3.00" arrival="85.00" arrivalLane="-809772643#1_0" arrivalPos="113.05" arrivalSpeed="13.71" duration="62.00" routeLength="723.90" waitingTime="0.00" waitingCount="0" stopTime="0.00" timeLoss="9.20" rerouteNo="0" devices="tripinfo_flow_route_146_duration_20250327_2000.4" vType="car" speedFactor="0.83" vaporized=""/>
    <tripinfo id="flow_route_141_duration_20250327_2000.1" depart="5.00" departLane="809719540#0_0" departPos="12.41" departSpeed="0.00" departDelay="0.39" arrival="88.00" arrivalLane="683079387#1_1" arrivalPos="3.29" arrivalSpeed="6.29" duration="83.00" routeLength="886.44" waitingTime="0.00" waitingCount="0" stopTime="0.00" timeLoss="19.73" rerouteNo="0" devices="tripinfo_flow_route_141_duration_20250327_2000.1" vType="car" speedFactor="0.89" vaporized=""/>
    <tripinfo id="flow_route_141_duration_20250327_2000.3" depart="14.00" departLane="809719540#0_0" departPos="179.46" departSpeed="0.00" departDelay="0.16" arrival="91.00" arrivalLane="683079387#1_1" arrivalPos="8.29" arrivalSpeed="6.26" duration="77.00" routeLength="731.41" waitingTime="0.00" waitingCount="0" stopTime="0.00" timeLoss="27.01" rerouteNo="0" devices="tripinfo_flow_route_141_duration_20250327_2000.3" vType="car" speedFactor="0.94" vaporized=""/>
    <tripinfo id="flow_route_141_duration_20250327_2000.5" depart="24.00" departLane="809719540#0_0" departPos="193.90" departSpeed="0.00" departDelay="0.93" arrival="92.00" arrivalLane="683079387#1_1" arrivalPos="0.82" arrivalSpeed="5.74" duration="68.00" routeLength="709.50" waitingTime="0.00" waitingCount="0" stopTime="0.00" timeLoss="23.48" rerouteNo="0" devices="tripinfo_flow_route_141_duration_20250327_2000.5" vType="car" speedFactor="1.13" vaporized=""/>
    <tripinfo id="flow_route_141_duration_20250327_2000.2" depart="10.00" departLane="809719540#0_0" departPos="8.01" departSpeed="0.00" departDelay="0.77" arrival="96.00" arrivalLane="683079387#1_1" arrivalPos="7.81" arrivalSpeed="8.10" duration="86.00" routeLength="895.36" waitingTime="0.00" waitingCount="0" stopTime="0.00" timeLoss="29.24" rerouteNo="0" devices="tripinfo_flow_route_141_duration_20250327_2000.2" vType="car" speedFactor="1.05" vaporized=""/>
    <tripinfo id="flow_route_140_duration_20250327_2000.9" depart="50.00" departLane="809719540#0_0" departPos="246.74" departSpeed="0.00" departDelay="0.91" arrival="96.00" arrivalLane="-809772643#1_0" arrivalPos="0.18" arrivalSpeed="7.40" duration="46.00" routeLength="60.88" waitingTime="29.00" waitingCount="1" stopTime="0.00" timeLoss="42.29" rerouteNo="0" devices="tripinfo_flow_route_140_duration_20250327_2000.9" vType="car" speedFactor="1.00" vaporized=""/>
    <tripinfo id="flow_route_146_duration_20250327_2000.7" depart="40.00" departLane="683079387#1_0" departPos="9.23" departSpeed="0.00" departDelay="5.00" arrival="97.00" arrivalLane="-809772643#1_0" arrivalPos="136.84" arrivalSpeed="16.45" duration="57.00" routeLength="740.57" waitingTime="0.00" waitingCount="0" stopTime="0.00" timeLoss="11.43" rerouteNo="0" devices="tripinfo_flow_route_146_duration_20250327_2000.7" vType="car" speedFactor="1.03" vaporized=""/>
    <tripinfo id="flow_route_141_duration_20250327_2000.6" depart="30.00" departLane="809719540#0_0" departPos="167.94" departSpeed="0.00" departDelay="2.31" arrival="98.00" arrivalLane="683079387#1_1" arrivalPos="5.24" arrivalSpeed="6.33" duration="68.00" routeLength="732.86" waitingTime="0.00" waitingCount="0" stopTime="0.00" timeLoss="21.04" rerouteNo="0" devices="tripinfo_flow_route_141_duration_20250327_2000.6" vType="car" speedFactor="1.01" vaporized=""/>
    <tripinfo id="flow_route_141_duration_20250327_2000.4" depart="19.00" departLane="809719540#0_0" departPos="7.48" departSpeed="0.00" departDelay="0.54" arrival="101.00" arrivalLane="683079387#1_1" arrivalPos="6.55" arrivalSpeed="6.13" duration="82.00" routeLength="894.63" waitingTime="0.00" waitingCount="0" stopTime="0.00" timeLoss="23.35" rerouteNo="0" devices="tripinfo_flow_route_141_duration_20250327_2000.4" vType="car" speedFactor="0.97" vaporized=""/>
    <tripinfo id="flow_route_141_duration_20250327_2000.7" depart="33.00" departLane="809719540#0_0" departPos="187.88" departSpeed="0.00" departDelay="0.70" arrival="103.00" arrivalLane="683079387#1_1" arrivalPos="3.03" arrivalSpeed="6.26" duration="70.00" routeLength="717.72" waitingTime="0.00" waitingCount="0" stopTime="0.00" timeLoss="24.63" rerouteNo="0" devices="tripinfo_flow_route_141_duration_20250327_2000.7" vType="car" speedFactor="1.10" vaporized=""/>
    <tripinfo id="flow_route_142_duration_20250327_2000.3" depart="11.00" departLane="1253222187#0_0" departPos="26.44" departSpeed="0.00" departDelay="1.53" arrival="104.00" arrivalLane="683079388#0_2" arrivalPos="4.11" arrivalSpeed="16.20" duration="93.00" routeLength="775.98" waitingTime="20.00" waitingCount="1" stopTime="0.00" timeLoss="45.36" rerouteNo="0" devices="tripinfo_flow_route_142_duration_20250327_2000.3" vType="car" speedFactor="1.12" vaporized=""/>
    <tripinfo id="flow_route_142_duration_20250327_2000.5" depart="16.00" departLane="1253222187#0_0" departPos="103.85" departSpeed="0.00" departDelay="0.22" arrival="104.00" arrivalLane="683079388#0_0" arrivalPos="24.79" arrivalSpeed="16.23" duration="88.00" routeLength="719.24" waitingTime="22.00" waitingCount="1" stopTime="0.00" timeLoss="44.33" rerouteNo="0" devices="tripinfo_flow_route_142_duration_20250327_2000.5" vType="car" speedFactor="1.02" vaporized=""/>
    <tripinfo id="flow_route_142_duration_20250327_2000.4" depart="13.00" departLane="1253222187#0_0" departPos="50.89" departSpeed="0.00" departDelay="0.37" arrival="109.00" arrivalLane="683079388#0_0" arrivalPos="4.34" arrivalSpeed="14.60" duration="96.00" routeLength="751.75" waitingTime="20.00" waitingCount="1" stopTime="0.00" timeLoss="44.16" rerouteNo="0" devices="tripinfo_flow_route_142_duration_20250327_2000.4" vType="car" speedFactor="0.88" vaporized=""/>
    <tripinfo id="flow_route_142_duration_20250327_2000.11" depart="35.00" departLane="1253222187#0_0" departPos="164.67" departSpeed="0.00" departDelay="0.27" arrival="109.00" arrivalLane="683079388#0_2" arrivalPos="12.04" arrivalSpeed="14.62" duration="74.00" routeLength="645.68" waitingTime="10.00" waitingCount="1" stopTime="0.00" timeLoss="30.70" rerouteNo="0" devices="tripinfo_flow_route_142_duration_20250327_2000.11" vType="car" speedFactor="0.90" vaporized=""/>
    <tripinfo id="flow_route_140_duration_20250327_2000.7" depart="40.00" departLane="809719540#0_0" departPos="92.55" departSpeed="0.00" departDelay="1.82" arrival="109.00" arrivalLane="-809772643#1_0" arrivalPos="139.63" arrivalSpeed="16.57" duration="69.00" routeLength="354.53" waitingTime="25.00" waitingCount="1" stopTime="0.00" timeLoss="47.57" rerouteNo="0" devices="tripinfo_flow_route_140_duration_20250327_2000.7" vType="car" speedFactor="1.04" vaporized=""/>
    <tripinfo id="flow_route_142_duration_20250327_2000.8" depart="26.00" departLane="1253222187#0_0" departPos="89.23" departSpeed="0.00" departDelay="0.74" arrival="110.00" arrivalLane="683079388#0_2" arrivalPos="5.48" arrivalSpeed="15.29" duration="84.00" routeLength="714.56" waitingTime="10.00" waitingCount="1" stopTime="0.00" timeLoss="40.77" rerouteNo="0" devices="tripinfo_flow_route_142_duration_20250327_2000.8" vType="car" speedFactor="1.18" vaporized=""/>
    <tripinfo id="flow_route_142_duration_20250327_2000.10" depart="32.00" departLane="1253222187#0_0" departPos="120.95" departSpeed="0.00" departDelay="0.43" arrival="111.00" arrivalLane="683079388#0_0" arrivalPos="11.77" arrivalSpeed="15.92" duration="79.00" routeLength="689.13" waitingTime="9.00" waitingCount="1" stopTime="0.00" timeLoss="36.03" rerouteNo="0" devices="tripinfo_flow_route_142_duration_20250327_2000.10" vType="car" speedFactor="0.97" vaporized=""/>
    <tripinfo id="flow_route_140_duration_20250327_2000.6" depart="33.00" departLane="809719540#0_0" departPos="92.10" departSpeed="0.00" departDelay="0.28" arrival="111.00" arrivalLane="-809772643#1_0" arrivalPos="200.86" arrivalSpeed="16.23" duration="78.00" routeLength="419.05" waitingTime="28.00" waitingCount="1" stopTime="0.00" timeLoss="52.69" rerouteNo="0" devices="tripinfo_flow_route_140_duration_20250327_2000.6" vType="car" speedFactor="1.18" vaporized=""/>
    <tripinfo id="flow_route_143_duration_20250327_2000.2" depart="15.00" departLane="1253222187#0_0" departPos="145.82" departSpeed="0.00" departDelay="0.00" arrival="112.00" arrivalLane="1310781056_0" arrivalPos="81.14" arrivalSpeed="16.21" duration="97.00" routeLength="303.83" waitingTime="54.00" waitingCount="2" stopTime="0.00" timeLoss="77.89" rerouteNo="0" devices="tripinfo_flow_route_143_duration_20250327_2000.2" vType="car" speedFactor="0.94" vaporized=""/>
    <tripinfo id="flow_route_142_duration_20250327_2000.7" depart="23.00" departLane="1253222187#0_0" departPos="38.09" departSpeed="0.00" departDelay="0.90" arrival="112.00" arrivalLane="683079388#0_2" arrivalPos="2.22" arrivalSpeed="14.86" duration="89.00" routeLength="762.44" waitingTime="6.00" waitingCount="1" stopTime="0.00" timeLoss="38.30" rerouteNo="0" devices="tripinfo_flow_route_142_duration_20250327_2000.7" vType="car" speedFactor="0.92" vaporized=""/>
    <tripinfo id="flow_route_140_duration_20250327_2000.8" depart="44.00" departLane="809719540#0_0" departPos="27.63" departSpeed="0.00" departDelay="0.37" arrival="112.00" arrivalLane="-809772643#1_1" arrivalPos="118.54" arrivalSpeed="14.43" duration="68.00" routeLength="401.19" waitingTime="16.00" waitingCount="1" stopTime="0.00" timeLoss="40.18" rerouteNo="0" devices="tripinfo_flow_route_140_duration_20250327_2000.8" vType="car" speedFactor="0.88" vaporized=""/>
    <tripinfo id="flow_route_142_duration_20250327_2000.16" depart="51.00" departLane="1253222187#0_0" departPos="179.49" departSpeed="0.00" departDelay="0.49" arrival="113.00" arrivalLane="683079388#0_0" arrivalPos="23.47" arrivalSpeed="16.37" duration="62.00" routeLength="642.30" waitingTime="4.00" waitingCount="1" stopTime="0.00" timeLoss="23.13" rerouteNo="0" devices="tripinfo_flow_route_142_duration_20250327_2000.16" vType="car" speedFactor="1.14" vaporized=""/>
    <tripinfo id="flow_route_142_duration_20250327_2000.9" depart="29.00" departLane="1253222187#0_0" departPos="5.03" departSpeed="0.00" departDelay="0.59" arrival="114.00" arrivalLane="683079388#0_2" arrivalPos="10.77" arrivalSpeed="16.12" duration="85.00" routeLength="804.05" waitingTime="5.00" waitingCount="1" stopTime="0.00" timeLoss="35.82" rerouteNo="0" devices="tripinfo_flow_route_142_duration_20250327_2000.9" vType="car" speedFactor="1.17" vaporized=""/>
    <tripinfo id="flow_route_142_duration_20250327_2000.13" depart="42.00" departLane="1253222187#0_0" departPos="124.96" departSpeed="0.00" departDelay="0.96" arrival="114.00" arrivalLane="683079388#0_0" arrivalPos="7.16" arrivalSpeed="14.82" duration="72.00" routeLength="680.51" waitingTime="4.00" waitingCount="1" stopTime="0.00" timeLoss="26.30" rerouteNo="0" devices="tripinfo_flow_route_142_duration_20250327_2000.13" vType="car" speedFactor="0.90" vaporized=""/>
    <tripinfo id="flow_route_140_duration_20250327_2000.10" depart="56.00" departLane="809719540#0_0" departPos="119.42" departSpeed="0.00" departDelay="1.46" arrival="114.00" arrivalLane="-809772643#1_0" arrivalPos="174.44" arrivalSpeed="16.43" duration="58.00" routeLength="362.47" waitingTime="11.00" waitingCount="1" stopTime="0.00" timeLoss="35.64" rerouteNo="0" devices="tripinfo_flow_route_140_duration_20250327_2000.10" vType="car" speedFactor="1.08" vaporized=""/>
    <tripinfo id="flow_route_142_duration_20250327_2000.18" depart="57.00" departLane="1253222187#0_0" departPos="166.46" departSpeed="0.00" departDelay="0.17" arrival="115.00" arrivalLane="683079388#0_0" arrivalPos="4.07" arrivalSpeed="15.41" duration="58.00" routeLength="635.92" waitingTime="0.00" waitingCount="0" stopTime="0.00" timeLoss="19.33" rerouteNo="0" devices="tripinfo_flow_route_142_duration_20250327_2000.18" vType="car" speedFactor="0.99" vaporized=""/>
    <tripinfo id="flow_route_142_duration_20250327_2000.12" depart="38.00" departLane="1253222187#0_0" departPos="8.98" departSpeed="0.00" departDelay="0.12" arrival="116.00" arrivalLane="683079388#0_2" arrivalPos="22.77" arrivalSpeed="16.40" duration="78.00" routeLength="812.10" waitingTime="0.00" waitingCount="0" stopTime="0.00" timeLoss="28.55" rerouteNo="0" devices="tripinfo_flow_route_142_duration_20250327_2000.12" vType="car" speedFactor="1.09" vaporized=""/>
    <tripinfo id="flow_route_142_duration_20250327_2000.15" depart="48.00" departLane="1253222187#0_0" departPos="71.44" departSpeed="0.00" departDelay="0.65" arrival="117.00" arrivalLane="683079388#0_2" arrivalPos="20.60" arrivalSpeed="16.19" duration="69.00" routeLength="747.47" waitingTime="0.00" waitingCount="0" stopTime="0.00" timeLoss="23.82" rerouteNo="0" devices="tripinfo_flow_route_142_duration_20250327_2000.15" vType="car" speedFactor="1.10" vaporized=""/>
    <tripinfo id="flow_route_142_duration_20250327_2000.17" depart="56.00" departLane="1253222187#0_0" departPos="152.47" departSpeed="0.00" departDelay="2.33" arrival="118.00" arrivalLane="683079388#0_0" arrivalPos="24.17" arrivalSpeed="15.82" duration="62.00" routeLength="670.01" waitingTime="0.00" waitingCount="0" stopTime="0.00" timeLoss="20.38" rerouteNo="0" devices="tripinfo_flow_route_142_duration_20250327_2000.17" vType="car" speedFactor="0.97" vaporized=""/>
    <tripinfo id="flow_route_142_duration_20250327_2000.14" depart="46.00" departLane="1253222187#0_0" departPos="3.08" departSpeed="0.00" departDelay="1.80" arrival="122.00" arrivalLane="683079388#0_0" arrivalPos="22.12" arrivalSpeed="13.72" duration="76.00" routeLength="817.34" waitingTime="0.00" waitingCount="0" stopTime="0.00" timeLoss="18.32" rerouteNo="0" devices="tripinfo_flow_route_142_duration_20250327_2000.14" vType="car" speedFactor="0.85" vaporized=""/>
    <tripinfo id="flow_route_146_duration_20250327_2000.8" depart="42.00" departLane="683079387#1_0" departPos="3.87" departSpeed="0.00" departDelay="2.00" arrival="129.00" arrivalLane="-809772643#1_0" arrivalPos="31.75" arrivalSpeed="11.56" duration="87.00" routeLength="640.85" waitingTime="24.00" waitingCount="1" stopTime="0.00" timeLoss="47.94" rerouteNo="0" devices="tripinfo_flow_route_146_duration_20250327_2000.8" vType="car" speedFactor="1.09" vaporized=""/>
    <tripinfo id="flow_route_146_duration_20250327_2000.11" depart="58.00" departLane="683079387#1_0" departPos="1.17" departSpeed="0.00" departDelay="3.00" arrival="133.00" arrivalLane="-809772643#1_1" arrivalPos="68.82" arrivalSpeed="14.08" duration="75.00" routeLength="680.61" waitingTime="10.00" waitingCount="1" stopTime="0.00" timeLoss="33.68" rerouteNo="0" devices="tripinfo_flow_route_146_duration_20250327_2000.11" vType="car" speedFactor="1.12" vaporized=""/>
    <tripinfo id="flow_route_146_duration_20250327_2000.9" depart="47.00" departLane="683079387#1_0" departPos="1.71" departSpeed="0.00" departDelay="2.00" arrival="137.00" arrivalLane="-809772643#1_0" arrivalPos="169.77" arrivalSpeed="16.49" duration="90.00" routeLength="781.03" waitingTime="20.00" waitingCount="1" stopTime="0.00" timeLoss="42.79" rerouteNo="0" devices="tripinfo_flow_route_146_duration_20250327_2000.9" vType="car" speedFactor="1.17" vaporized=""/>
    <tripinfo id="flow_route_146_duration_20250327_2000.10" depart="54.00" departLane="683079387#1_0" departPos="8.01" departSpeed="0.00" departDelay="4.00" arrival="138.00" arrivalLane="-809772643#1_0" arrivalPos="136.18" arrivalSpeed="16.59" duration="84.00" routeLength="741.14" waitingTime="13.00" waitingCount="1" stopTime="0.00" timeLoss="38.57" rerouteNo="0" devices="tripinfo_flow_route_146_duration_20250327_2000.10" vType="car" speedFactor="1.00" vaporized=""/>
    <tripinfo id="flow_route_141_duration_20250327_2000.8" depart="37.00" departLane="809719540#0_0" departPos="37.91" departSpeed="0.00" departDelay="0.08" arrival="144.00" arrivalLane="683079387#1_1" arrivalPos="1.27" arrivalSpeed="5.46" duration="107.00" routeLength="865.93" waitingTime="24.00" waitingCount="1" stopTime="0.00" timeLoss="49.78" rerouteNo="0" devices="tripinfo_flow_route_141_duration_20250327_2000.8" vType="car" speedFactor="0.96" vaporized=""/>
    <tripinfo id="flow_route_141_duration_20250327_2000.9" depart="42.00" departLane="809719540#0_0" departPos="182.88" departSpeed="0.00" departDelay="0.47" arrival="147.00" arrivalLane="683079387#1_1" arrivalPos="6.01" arrivalSpeed="5.93" duration="105.00" routeLength="718.70" waitingTime="27.00" waitingCount="1" stopTime="0.00" timeLoss="58.90" rerouteNo="0" devices="tripinfo_flow_route_141_duration_20250327_2000.9" vType="car" speedFactor="1.00" vaporized=""/>
    <tripinfo id="flow_route_141_duration_20250327_2000.10" depart="47.00" departLane="809719540#0_0" departPos="92.89" departSpeed="0.00" departDelay="0.85" arrival="149.00" arrivalLane="683079387#1_1" arrivalPos="4.93" arrivalSpeed="5.73" duration="102.00" routeLength="807.60" waitingTime="16.00" waitingCount="1" stopTime="0.00" timeLoss="50.19" rerouteNo="0" devices="tripinfo_flow_route_141_duration_20250327_2000.10" vType="car" speedFactor="1.02" vaporized=""/>
    <tripinfo id="flow_route_143_duration_20250327_2000.1" depart="8.00" departLane="1253222187#0_0" departPos="6.83" departSpeed="0.00" departDelay="0.50" arrival="150.00" arrivalLane="1310781056_0" arrivalPos="61.73" arrivalSpeed="16.17" duration="142.00" routeLength="423.39" waitingTime="82.00" waitingCount="4" stopTime="0.00" timeLoss="116.45" rerouteNo="0" devices="tripinfo_flow_route_143_duration_20250327_2000.1" vType="car" speedFactor="1.03" vaporized=""/>
    <tripinfo id="flow_route_143_duration_20250327_2000.4" depart="31.00" departLane="1253222187#0_0" departPos="89.63" departSpeed="0.00" departDelay="1.00" arrival="150.00" arrivalLane="1310781056_0" arrivalPos="34.33" arrivalSpeed="16.11" duration="119.00" routeLength="313.20" waitingTime="62.00" waitingCount="4" stopTime="0.00" timeLoss="100.09" rerouteNo="0" devices="tripinfo_flow_route_143_duration_20250327_2000.4" vType="car" speedFactor="0.99" vaporized=""/>
    <tripinfo id="flow_route_141_duration_20250327_2000.11" depart="51.00" departLane="809719540#0_0" departPos="30.71" departSpeed="0.00" departDelay="0.24" arrival="153.00" arrivalLane="683079387#1_1" arrivalPos="4.97" arrivalSpeed="6.23" duration="102.00" routeLength="869.81" waitingTime="11.00" waitingCount="1" stopTime="0.00" timeLoss="40.01" rerouteNo="0" devices="tripinfo_flow_route_141_duration_20250327_2000.11" vType="car" speedFactor="0.90" vaporized=""/>
    <tripinfo id="flow_route_143_duration_20250327_2000.3" depart="23.00" departLane="1253222187#0_0" departPos="9.88" departSpeed="0.00" departDelay="0.50" arrival="154.00" arrivalLane="1310781056_0" arrivalPos="64.31" arrivalSpeed="16.33" duration="131.00" routeLength="422.94" waitingTime="60.00" waitingCount="4" stopTime="0.00" timeLoss="104.75" rerouteNo="0" devices="tripinfo_flow_route_143_duration_20250327_2000.3" vType="car" speedFactor="0.95" vaporized=""/>
    <tripinfo id="flow_route_141_duration_20250327_2000.12" depart="57.00" departLane="809719540#0_0" departPos="34.78" departSpeed="0.00" departDelay="1.62" arrival="155.00" arrivalLane="683079387#1_1" arrivalPos="3.30" arrivalSpeed="6.96" duration="98.00" routeLength="871.10" waitingTime="7.00" waitingCount="1" stopTime="0.00" timeLoss="42.93" rerouteNo="0" devices="tripinfo_flow_route_141_duration_20250327_2000.12" vType="car" speedFactor="1.02" vaporized=""/>
    <tripinfo id="flow_route_143_duration_20250327_2000.5" depart="38.00" departLane="1253222187#0_0" departPos="82.37" departSpeed="0.00" departDelay="0.50" arrival="156.00" arrivalLane="1310781056_0" arrivalPos="42.14" arrivalSpeed="16.30" duration="118.00" routeLength="328.27" waitingTime="56.00" waitingCount="4" stopTime="0.00" timeLoss="97.81" rerouteNo="0" devices="tripinfo_flow_route_143_duration_20250327_2000.5" vType="car" speedFactor="1.04" vaporized=""/>