<?xml version="1.0" encoding="UTF-8"?>

<!-- generated on 2025-05-06 21:07:55 by Eclipse SUMO sumo Version 1.20.0
<configuration xmlns:xsi="http://www.w3.org/2001/XMLSchema-instance" xsi:noNamespaceSchemaLocation="http://sumo.dlr.de/xsd/sumoConfiguration.xsd">

    <input>
        <net-file value="osm.net.xml"/>
        <route-files value="xml/route_static_cluster_11644940323_11644940324_3828703845_1.rou.xml"/>
    </input>

    <output>
        <tripinfo-output value="xml/tripinfo_static_cluster_11644940323_11644940324_3828703845_1.xml"/>
    </output>

    <traci_server>
        <remote-port value="55581"/>
    </traci_server>

</configuration>
-->

<tripinfos xmlns:xsi="http://www.w3.org/2001/XMLSchema-instance" xsi:noNamespaceSchemaLocation="http://sumo.dlr.de/xsd/tripinfo_file.xsd">
    <tripinfo id="flow_route_3_duration_20250327_2120.0" depart="0.00" departLane="1318793173#0_0" departPos="80.53" departSpeed="0.00" departDelay="0.00" arrival="19.00" arrivalLane="291974733#0_1" arrivalPos="66.76" arrivalSpeed="13.99" duration="19.00" routeLength="123.20" waitingTime="0.00" waitingCount="0" stopTime="0.00" timeLoss="10.27" rerouteNo="0" devices="tripinfo_flow_route_3_duration_20250327_2120.0" vType="car" speedFactor="0.94" vaporized=""/>
    <tripinfo id="flow_route_16_duration_20250327_2120.0" depart="0.00" departLane="137406408#0_0" departPos="52.27" departSpeed="0.00" departDelay="0.00" arrival="20.00" arrivalLane="133126040#0_0" arrivalPos="80.39" arrivalSpeed="14.47" duration="20.00" routeLength="149.31" waitingTime="0.00" waitingCount="0" stopTime="0.00" timeLoss="10.92" rerouteNo="0" devices="tripinfo_flow_route_16_duration_20250327_2120.0" vType="car" speedFactor="1.05" vaporized=""/>
    <tripinfo id="flow_route_2_duration_20250327_2120.0" depart="0.00" departLane="1318793173#0_0" departPos="58.93" departSpeed="0.00" departDelay="0.00" arrival="21.00" arrivalLane="189835257_0" arrivalPos="46.92" arrivalSpeed="15.63" duration="21.00" routeLength="167.93" waitingTime="0.00" waitingCount="0" stopTime="0.00" timeLoss="10.00" rerouteNo="0" devices="tripinfo_flow_route_2_duration_20250327_2120.0" vType="car" speedFactor="1.06" vaporized=""/>
    <tripinfo id="flow_route_17_duration_20250327_2120.0" depart="0.00" departLane="137406408#0_0" departPos="24.41" departSpeed="0.00" departDelay="0.00" arrival="22.00" arrivalLane="1254771874#0_0" arrivalPos="63.27" arrivalSpeed="16.22" duration="22.00" routeLength="182.06" waitingTime="0.00" waitingCount="0" stopTime="0.00" timeLoss="9.94" rerouteNo="0" devices="tripinfo_flow_route_17_duration_20250327_2120.0" vType="car" speedFactor="0.89" vaporized=""/>
    <tripinfo id="flow_route_9_duration_20250327_2120.0" depart="0.00" departLane="1318793173#0_0" departPos="0.65" departSpeed="0.00" departDelay="0.00" arrival="24.00" arrivalLane="1254771874#0_1" arrivalPos="11.63" arrivalSpeed="11.21" duration="24.00" routeLength="169.44" waitingTime="0.00" waitingCount="0" stopTime="0.00" timeLoss="12.40" rerouteNo="0" devices="tripinfo_flow_route_9_duration_20250327_2120.0" vType="car" speedFactor="1.01" vaporized=""/>
    <tripinfo id="flow_route_2_duration_20250327_2120.1" depart="5.00" departLane="1318793173#0_0" departPos="34.79" departSpeed="0.00" departDelay="0.00" arrival="29.00" arrivalLane="189835257_0" arrivalPos="46.11" arrivalSpeed="14.58" duration="24.00" routeLength="191.25" waitingTime="0.00" waitingCount="0" stopTime="0.00" timeLoss="10.63" rerouteNo="0" devices="tripinfo_flow_route_2_duration_20250327_2120.1" vType="car" speedFactor="0.94" vaporized=""/>
    <tripinfo id="flow_route_2_duration_20250327_2120.4" depart="20.00" departLane="1318793173#0_0" departPos="103.38" departSpeed="0.00" departDelay="0.00" arrival="35.00" arrivalLane="189835257_0" arrivalPos="8.38" arrivalSpeed="11.18" duration="15.00" routeLength="84.94" waitingTime="0.00" waitingCount="0" stopTime="0.00" timeLoss="8.93" rerouteNo="0" devices="tripinfo_flow_route_2_duration_20250327_2120.4" vType="car" speedFactor="0.99" vaporized=""/>
    <tripinfo id="flow_route_2_duration_20250327_2120.2" depart="10.00" departLane="1318793173#0_0" departPos="33.18" departSpeed="0.00" departDelay="0.00" arrival="38.00" arrivalLane="189835257_0" arrivalPos="27.01" arrivalSpeed="12.42" duration="28.00" routeLength="173.77" waitingTime="0.00" waitingCount="0" stopTime="0.00" timeLoss="16.97" rerouteNo="0" devices="tripinfo_flow_route_2_duration_20250327_2120.2" vType="car" speedFactor="1.09" vaporized=""/>
    <tripinfo id="flow_route_2_duration_20250327_2120.3" depart="17.00" departLane="1318793173#0_0" departPos="42.86" departSpeed="0.00" departDelay="2.00" arrival="40.00" arrivalLane="189835257_0" arrivalPos="33.36" arrivalSpeed="13.02" duration="23.00" routeLength="170.44" waitingTime="0.00" waitingCount="0" stopTime="0.00" timeLoss="12.06" rerouteNo="0" devices="tripinfo_flow_route_2_duration_20250327_2120.3" vType="car" speedFactor="1.03" vaporized=""/>
    <tripinfo id="flow_route_13_duration_20250327_2120.0" depart="0.00" departLane="1252820503#0_0" departPos="99.64" departSpeed="0.00" departDelay="0.00" arrival="43.00" arrivalLane="291974733#0_0" arrivalPos="46.05" arrivalSpeed="9.63" duration="43.00" routeLength="103.57" waitingTime="18.00" waitingCount="1" stopTime="0.00" timeLoss="35.93" rerouteNo="0" devices="tripinfo_flow_route_13_duration_20250327_2120.0" vType="car" speedFactor="1.08" vaporized=""/>
    <tripinfo id="flow_route_15_duration_20250327_2120.0" depart="1.00" departLane="1252820503#0_0" departPos="8.92" departSpeed="0.00" departDelay="1.00" arrival="43.00" arrivalLane="133126040#0_1" arrivalPos="4.72" arrivalSpeed="7.46" duration="42.00" routeLength="174.98" waitingTime="10.00" waitingCount="1" stopTime="0.00" timeLoss="30.65" rerouteNo="0" devices="tripinfo_flow_route_15_duration_20250327_2120.0" vType="car" speedFactor="0.83" vaporized=""/>
    <tripinfo id="flow_route_15_duration_20250327_2120.1" depart="30.00" departLane="1252820503#0_0" departPos="84.63" departSpeed="0.00" departDelay="0.00" arrival="49.00" arrivalLane="133126040#0_1" arrivalPos="24.13" arrivalSpeed="11.13" duration="19.00" routeLength="118.69" waitingTime="0.00" waitingCount="0" stopTime="0.00" timeLoss="11.44" rerouteNo="0" devices="tripinfo_flow_route_15_duration_20250327_2120.1" vType="car" speedFactor="1.02" vaporized=""/>
    <tripinfo id="flow_route_2_duration_20250327_2120.6" depart="32.00" departLane="1318793173#0_0" departPos="87.72" departSpeed="0.00" departDelay="2.00" arrival="50.00" arrivalLane="189835257_0" arrivalPos="21.66" arrivalSpeed="12.50" duration="18.00" routeLength="113.88" waitingTime="0.00" waitingCount="0" stopTime="0.00" timeLoss="9.77" rerouteNo="0" devices="tripinfo_flow_route_2_duration_20250327_2120.6" vType="car" speedFactor="0.94" vaporized=""/>
    <tripinfo id="flow_route_14_duration_20250327_2120.2" depart="19.00" departLane="1252820503#0_0" departPos="113.18" departSpeed="0.00" departDelay="1.86" arrival="51.00" arrivalLane="1254771874#0_0" arrivalPos="60.51" arrivalSpeed="13.30" duration="32.00" routeLength="157.21" waitingTime="5.00" waitingCount="1" stopTime="0.00" timeLoss="22.33" rerouteNo="0" devices="tripinfo_flow_route_14_duration_20250327_2120.2" vType="car" speedFactor="1.12" vaporized=""/>
    <tripinfo id="flow_route_14_duration_20250327_2120.3" depart="26.00" departLane="1252820503#0_0" departPos="18.56" departSpeed="0.00" departDelay="0.29" arrival="54.00" arrivalLane="1254771874#0_0" arrivalPos="84.69" arrivalSpeed="16.43" duration="28.00" routeLength="276.01" waitingTime="0.00" waitingCount="0" stopTime="0.00" timeLoss="11.37" rerouteNo="0" devices="tripinfo_flow_route_14_duration_20250327_2120.3" vType="car" speedFactor="0.88" vaporized=""/>
    <tripinfo id="flow_route_14_duration_20250327_2120.0" depart="0.00" departLane="1252820503#0_0" departPos="69.02" departSpeed="0.00" departDelay="0.00" arrival="55.00" arrivalLane="1254771874#0_0" arrivalPos="150.80" arrivalSpeed="16.32" duration="55.00" routeLength="291.67" waitingTime="15.00" waitingCount="1" stopTime="0.00" timeLoss="36.95" rerouteNo="0" devices="tripinfo_flow_route_14_duration_20250327_2120.0" vType="car" speedFactor="1.03" vaporized=""/>
    <tripinfo id="flow_route_2_duration_20250327_2120.5" depart="26.00" departLane="1318793173#0_0" departPos="13.98" departSpeed="0.00" departDelay="1.00" arrival="55.00" arrivalLane="189835257_0" arrivalPos="1.57" arrivalSpeed="12.60" duration="29.00" routeLength="167.53" waitingTime="0.00" waitingCount="0" stopTime="0.00" timeLoss="17.19" rerouteNo="0" devices="tripinfo_flow_route_2_duration_20250327_2120.5" vType="car" speedFactor="0.93" vaporized=""/>
    <tripinfo id="flow_route_2_duration_20250327_2120.7" depart="35.00" departLane="1318793173#0_0" departPos="74.74" departSpeed="0.00" departDelay="0.00" arrival="56.00" arrivalLane="189835257_0" arrivalPos="37.68" arrivalSpeed="14.38" duration="21.00" routeLength="142.88" waitingTime="0.00" waitingCount="0" stopTime="0.00" timeLoss="11.52" rerouteNo="0" devices="tripinfo_flow_route_2_duration_20250327_2120.7" vType="car" speedFactor="1.01" vaporized=""/>
    <tripinfo id="flow_route_14_duration_20250327_2120.1" depart="9.00" departLane="1252820503#0_0" departPos="6.84" departSpeed="0.00" departDelay="0.43" arrival="60.00" arrivalLane="1254771874#0_1" arrivalPos="174.74" arrivalSpeed="16.24" duration="51.00" routeLength="377.78" waitingTime="3.00" waitingCount="1" stopTime="0.00" timeLoss="27.46" rerouteNo="0" devices="tripinfo_flow_route_14_duration_20250327_2120.1" vType="car" speedFactor="0.86" vaporized=""/>
    <tripinfo id="flow_route_2_duration_20250327_2120.8" depart="40.00" departLane="1318793173#0_0" departPos="62.69" departSpeed="0.00" departDelay="0.00" arrival="60.00" arrivalLane="189835257_0" arrivalPos="25.94" arrivalSpeed="14.35" duration="20.00" routeLength="143.19" waitingTime="0.00" waitingCount="0" stopTime="0.00" timeLoss="8.86" rerouteNo="0" devices="tripinfo_flow_route_2_duration_20250327_2120.8" vType="car" speedFactor="0.89" vaporized=""/>
    <tripinfo id="flow_route_14_duration_20250327_2120.4" depart="37.00" departLane="1252820503#0_0" departPos="45.57" departSpeed="0.00" departDelay="2.72" arrival="67.00" arrivalLane="1254771874#0_0" arrivalPos="152.41" arrivalSpeed="16.23" duration="30.00" routeLength="316.72" waitingTime="0.00" waitingCount="0" stopTime="0.00" timeLoss="10.82" rerouteNo="0" devices="tripinfo_flow_route_14_duration_20250327_2120.4" vType="car" speedFactor="0.97" vaporized=""/>
    <tripinfo id="flow_route_3_duration_20250327_2120.3" depart="45.00" departLane="1318793173#0_0" departPos="30.13" departSpeed="0.00" departDelay="0.00" arrival="72.00" arrivalLane="291974733#0_2" arrivalPos="14.23" arrivalSpeed="8.91" duration="27.00" routeLength="121.05" waitingTime="1.00" waitingCount="1" stopTime="0.00" timeLoss="18.79" rerouteNo="0" devices="tripinfo_flow_route_3_duration_20250327_2120.3" vType="car" speedFactor="0.92" vaporized=""/>
    <tripinfo id="flow_route_2_duration_20250327_2120.9" depart="45.00" departLane="1318793173#0_0" departPos="3.01" departSpeed="0.00" departDelay="0.00" arrival="73.00" arrivalLane="189835257_0" arrivalPos="33.79" arrivalSpeed="14.51" duration="28.00" routeLength="210.72" waitingTime="0.00" waitingCount="0" stopTime="0.00" timeLoss="11.98" rerouteNo="0" devices="tripinfo_flow_route_2_duration_20250327_2120.9" vType="car" speedFactor="0.87" vaporized=""/>
    <tripinfo id="flow_route_3_duration_20250327_2120.1" depart="18.00" departLane="1318793173#0_0" departPos="3.50" departSpeed="0.00" departDelay="3.00" arrival="76.00" arrivalLane="291974733#0_1" arrivalPos="87.99" arrivalSpeed="12.58" duration="58.00" routeLength="221.44" waitingTime="23.00" waitingCount="1" stopTime="0.00" timeLoss="44.66" rerouteNo="0" devices="tripinfo_flow_route_3_duration_20250327_2120.1" vType="car" speedFactor="1.05" vaporized=""/>
    <tripinfo id="flow_route_2_duration_20250327_2120.10" depart="51.00" departLane="1318793173#0_0" departPos="7.24" departSpeed="0.00" departDelay="1.00" arrival="76.00" arrivalLane="189835257_0" arrivalPos="28.79" arrivalSpeed="14.59" duration="25.00" routeLength="201.50" waitingTime="0.00" waitingCount="0" stopTime="0.00" timeLoss="11.64" rerouteNo="0" devices="tripinfo_flow_route_2_duration_20250327_2120.10" vType="car" speedFactor="0.95" vaporized=""/>
    <tripinfo id="flow_route_9_duration_20250327_2120.1" depart="32.00" departLane="1318793173#0_0" departPos="72.20" departSpeed="0.00" departDelay="2.00" arrival="77.00" arrivalLane="1254771874#0_1" arrivalPos="67.50" arrivalSpeed="13.24" duration="45.00" routeLength="153.77" waitingTime="17.00" waitingCount="1" stopTime="0.00" timeLoss="34.35" rerouteNo="0" devices="tripinfo_flow_route_9_duration_20250327_2120.1" vType="car" speedFactor="1.16" vaporized=""/>
    <tripinfo id="flow_route_3_duration_20250327_2120.2" depart="32.00" departLane="1318793173#0_0" departPos="9.62" departSpeed="0.00" departDelay="2.00" arrival="78.00" arrivalLane="291974733#0_1" arrivalPos="90.38" arrivalSpeed="13.46" duration="46.00" routeLength="217.72" waitingTime="11.00" waitingCount="1" stopTime="0.00" timeLoss="31.87" rerouteNo="0" devices="tripinfo_flow_route_3_duration_20250327_2120.2" vType="car" speedFactor="0.94" vaporized=""/>
    <tripinfo id="flow_route_2_duration_20250327_2120.11" depart="58.00" departLane="1318793173#0_0" departPos="19.52" departSpeed="0.00" departDelay="3.00" arrival="81.00" arrivalLane="189835257_0" arrivalPos="17.85" arrivalSpeed="13.56" duration="23.00" routeLength="178.27" waitingTime="0.00" waitingCount="0" stopTime="0.00" timeLoss="10.71" rerouteNo="0" devices="tripinfo_flow_route_2_duration_20250327_2120.11" vType="car" speedFactor="0.93" vaporized=""/>
    <tripinfo id="flow_route_14_duration_20250327_2120.5" depart="44.00" departLane="1252820503#0_0" departPos="27.15" departSpeed="0.00" departDelay="1.15" arrival="109.00" arrivalLane="1254771874#0_0" arrivalPos="43.05" arrivalSpeed="12.27" duration="65.00" routeLength="225.78" waitingTime="28.00" waitingCount="1" stopTime="0.00" timeLoss="50.92" rerouteNo="0" devices="tripinfo_flow_route_14_duration_20250327_2120.5" vType="car" speedFactor="0.83" vaporized=""/>
    <tripinfo id="flow_route_14_duration_20250327_2120.6" depart="53.00" departLane="1252820503#0_0" departPos="46.47" departSpeed="0.00" departDelay="1.57" arrival="109.00" arrivalLane="1254771874#0_1" arrivalPos="45.75" arrivalSpeed="12.33" duration="56.00" routeLength="209.16" waitingTime="19.00" waitingCount="1" stopTime="0.00" timeLoss="42.77" rerouteNo="0" devices="tripinfo_flow_route_14_duration_20250327_2120.6" vType="car" speedFactor="1.13" vaporized=""/>
</tripinfos>
