<?xml version="1.0" encoding="UTF-8"?>

<!-- generated on 2025-05-06 21:07:41 by Eclipse SUMO sumo Version 1.20.0
<configuration xmlns:xsi="http://www.w3.org/2001/XMLSchema-instance" xsi:noNamespaceSchemaLocation="http://sumo.dlr.de/xsd/sumoConfiguration.xsd">

    <input>
        <net-file value="osm.net.xml"/>
        <route-files value="xml/route_rl_cluster10852700972_12154751993_0.rou.xml"/>
    </input>

    <output>
        <tripinfo-output value="xml/tripinfo_rl_cluster10852700972_12154751993_0.xml"/>
    </output>

    <traci_server>
        <remote-port value="58531"/>
    </traci_server>

</configuration>
-->

<tripinfos xmlns:xsi="http://www.w3.org/2001/XMLSchema-instance" xsi:noNamespaceSchemaLocation="http://sumo.dlr.de/xsd/tripinfo_file.xsd">
    <tripinfo id="flow_route_61_duration_20250327_2000.0" depart="0.00" departLane="186407684#0_0" departPos="65.67" departSpeed="0.00" departDelay="0.00" arrival="24.00" arrivalLane="1341093416#0_1" arrivalPos="161.76" arrivalSpeed="16.47" duration="24.00" routeLength="210.27" waitingTime="0.00" waitingCount="0" stopTime="0.00" timeLoss="10.10" rerouteNo="0" devices="tripinfo_flow_route_61_duration_20250327_2000.0" vType="car" speedFactor="1.03" vaporized=""/>
    <tripinfo id="flow_route_60_duration_20250327_2000.0" depart="0.00" departLane="186407684#0_0" departPos="48.06" departSpeed="0.00" departDelay="0.00" arrival="25.00" arrivalLane="791826085_0" arrivalPos="160.28" arrivalSpeed="16.23" duration="25.00" routeLength="221.15" waitingTime="0.00" waitingCount="0" stopTime="0.00" timeLoss="11.24" rerouteNo="0" devices="tripinfo_flow_route_60_duration_20250327_2000.0" vType="car" speedFactor="1.08" vaporized=""/>
    <tripinfo id="flow_route_61_duration_20250327_2000.1" depart="9.00" departLane="186407684#0_0" departPos="39.84" departSpeed="0.00" departDelay="0.43" arrival="32.00" arrivalLane="1341093416#0_1" arrivalPos="127.82" arrivalSpeed="16.37" duration="23.00" routeLength="202.15" waitingTime="0.00" waitingCount="0" stopTime="0.00" timeLoss="9.66" rerouteNo="0" devices="tripinfo_flow_route_61_duration_20250327_2000.1" vType="car" speedFactor="1.05" vaporized=""/>
    <tripinfo id="flow_route_60_duration_20250327_2000.1" depart="15.00" departLane="186407684#0_0" departPos="55.83" departSpeed="0.00" departDelay="0.00" arrival="39.00" arrivalLane="791826085_0" arrivalPos="167.29" arrivalSpeed="16.43" duration="24.00" routeLength="220.40" waitingTime="0.00" waitingCount="0" stopTime="0.00" timeLoss="10.13" rerouteNo="0" devices="tripinfo_flow_route_60_duration_20250327_2000.1" vType="car" speedFactor="1.03" vaporized=""/>
    <tripinfo id="flow_route_60_duration_20250327_2000.2" depart="30.00" departLane="186407684#0_0" departPos="85.01" departSpeed="0.00" departDelay="0.00" arrival="44.00" arrivalLane="791826085_0" arrivalPos="42.19" arrivalSpeed="9.63" duration="14.00" routeLength="66.12" waitingTime="0.00" waitingCount="0" stopTime="0.00" timeLoss="9.59" rerouteNo="0" devices="tripinfo_flow_route_60_duration_20250327_2000.2" vType="car" speedFactor="1.16" vaporized=""/>
    <tripinfo id="flow_route_56_duration_20250327_2000.1" depart="5.00" departLane="1341093415#0_0" departPos="119.96" departSpeed="0.00" departDelay="0.39" arrival="46.00" arrivalLane="409155823_0" arrivalPos="0.53" arrivalSpeed="6.50" duration="41.00" routeLength="85.42" waitingTime="18.00" waitingCount="1" stopTime="0.00" timeLoss="34.13" rerouteNo="0" devices="tripinfo_flow_route_56_duration_20250327_2000.1" vType="car" speedFactor="0.83" vaporized=""/>
    <tripinfo id="flow_route_55_duration_20250327_2000.1" depart="16.00" departLane="1341093415#0_0" departPos="146.92" departSpeed="0.00" departDelay="1.00" arrival="48.00" arrivalLane="791826085_0" arrivalPos="15.07" arrivalSpeed="6.84" duration="32.00" routeLength="57.85" waitingTime="14.00" waitingCount="1" stopTime="0.00" timeLoss="27.92" rerouteNo="0" devices="tripinfo_flow_route_55_duration_20250327_2000.1" vType="car" speedFactor="1.09" vaporized=""/>
    <tripinfo id="flow_route_56_duration_20250327_2000.0" depart="0.00" departLane="1341093415#0_0" departPos="44.11" departSpeed="0.00" departDelay="0.00" arrival="49.00" arrivalLane="409155823_0" arrivalPos="4.00" arrivalSpeed="7.59" duration="49.00" routeLength="164.73" waitingTime="18.00" waitingCount="1" stopTime="0.00" timeLoss="37.91" rerouteNo="0" devices="tripinfo_flow_route_56_duration_20250327_2000.0" vType="car" speedFactor="1.01" vaporized=""/>
    <tripinfo id="flow_route_61_duration_20250327_2000.2" depart="18.00" departLane="186407684#0_0" departPos="34.95" departSpeed="0.00" departDelay="0.86" arrival="49.00" arrivalLane="1341093416#0_1" arrivalPos="243.38" arrivalSpeed="16.28" duration="31.00" routeLength="322.61" waitingTime="0.00" waitingCount="0" stopTime="0.00" timeLoss="10.43" rerouteNo="0" devices="tripinfo_flow_route_61_duration_20250327_2000.2" vType="car" speedFactor="1.05" vaporized=""/>
    <tripinfo id="flow_route_56_duration_20250327_2000.8" depart="37.00" departLane="1341093415#0_0" departPos="144.68" departSpeed="0.00" departDelay="0.08" arrival="57.00" arrivalLane="409155823_0" arrivalPos="21.25" arrivalSpeed="9.75" duration="20.00" routeLength="81.41" waitingTime="0.00" waitingCount="0" stopTime="0.00" timeLoss="14.08" rerouteNo="0" devices="tripinfo_flow_route_56_duration_20250327_2000.8" vType="car" speedFactor="0.97" vaporized=""/>
    <tripinfo id="flow_route_56_duration_20250327_2000.3" depart="14.00" departLane="1341093415#0_0" departPos="57.39" departSpeed="0.00" departDelay="0.16" arrival="58.00" arrivalLane="409155823_0" arrivalPos="77.08" arrivalSpeed="12.90" duration="44.00" routeLength="224.53" waitingTime="8.00" waitingCount="1" stopTime="0.00" timeLoss="29.14" rerouteNo="0" devices="tripinfo_flow_route_56_duration_20250327_2000.3" vType="car" speedFactor="0.94" vaporized=""/>
    <tripinfo id="flow_route_55_duration_20250327_2000.2" depart="30.00" departLane="1341093415#0_0" departPos="73.32" departSpeed="0.00" departDelay="0.00" arrival="59.00" arrivalLane="791826085_0" arrivalPos="108.05" arrivalSpeed="14.46" duration="29.00" routeLength="224.44" waitingTime="0.00" waitingCount="0" stopTime="0.00" timeLoss="13.98" rerouteNo="0" devices="tripinfo_flow_route_55_duration_20250327_2000.2" vType="car" speedFactor="0.94" vaporized=""/>
    <tripinfo id="flow_route_54_duration_20250327_2000.1" depart="16.00" departLane="1341093415#0_0" departPos="167.37" departSpeed="0.00" departDelay="1.00" arrival="62.00" arrivalLane="1341093416#0_0" arrivalPos="187.44" arrivalSpeed="16.53" duration="46.00" routeLength="226.88" waitingTime="15.00" waitingCount="1" stopTime="0.00" timeLoss="31.41" rerouteNo="0" devices="tripinfo_flow_route_54_duration_20250327_2000.1" vType="car" speedFactor="0.86" vaporized=""/>
    <tripinfo id="flow_route_55_duration_20250327_2000.0" depart="0.00" departLane="1341093415#0_0" departPos="132.48" departSpeed="0.00" departDelay="0.00" arrival="63.00" arrivalLane="791826085_0" arrivalPos="232.37" arrivalSpeed="15.32" duration="63.00" routeLength="289.60" waitingTime="24.00" waitingCount="1" stopTime="0.00" timeLoss="43.69" rerouteNo="0" devices="tripinfo_flow_route_55_duration_20250327_2000.0" vType="car" speedFactor="0.94" vaporized=""/>
    <tripinfo id="flow_route_56_duration_20250327_2000.10" depart="47.00" departLane="1341093415#0_0" departPos="170.20" departSpeed="0.00" departDelay="0.85" arrival="63.00" arrivalLane="409155823_0" arrivalPos="14.82" arrivalSpeed="7.75" duration="16.00" routeLength="49.46" waitingTime="1.00" waitingCount="1" stopTime="0.00" timeLoss="12.21" rerouteNo="0" devices="tripinfo_flow_route_56_duration_20250327_2000.10" vType="car" speedFactor="1.13" vaporized=""/>
    <tripinfo id="flow_route_54_duration_20250327_2000.0" depart="0.00" departLane="1341093415#0_0" departPos="7.77" departSpeed="0.00" departDelay="0.00" arrival="65.00" arrivalLane="1341093416#0_1" arrivalPos="244.31" arrivalSpeed="16.28" duration="65.00" routeLength="443.35" waitingTime="13.00" waitingCount="1" stopTime="0.00" timeLoss="38.23" rerouteNo="0" devices="tripinfo_flow_route_54_duration_20250327_2000.0" vType="car" speedFactor="1.06" vaporized=""/>
    <tripinfo id="flow_route_54_duration_20250327_2000.2" depart="30.00" departLane="1341093415#0_0" departPos="22.35" departSpeed="0.00" departDelay="0.00" arrival="65.00" arrivalLane="1341093416#0_0" arrivalPos="187.84" arrivalSpeed="16.15" duration="35.00" routeLength="372.31" waitingTime="0.00" waitingCount="0" stopTime="0.00" timeLoss="12.26" rerouteNo="0" devices="tripinfo_flow_route_54_duration_20250327_2000.2" vType="car" speedFactor="0.94" vaporized=""/>
    <tripinfo id="flow_route_56_duration_20250327_2000.2" depart="11.00" departLane="1341093415#0_0" departPos="10.74" departSpeed="0.00" departDelay="1.77" arrival="69.00" arrivalLane="409155823_0" arrivalPos="49.85" arrivalSpeed="11.05" duration="58.00" routeLength="243.95" waitingTime="12.00" waitingCount="2" stopTime="0.00" timeLoss="41.45" rerouteNo="0" devices="tripinfo_flow_route_56_duration_20250327_2000.2" vType="car" speedFactor="0.89" vaporized=""/>
    <tripinfo id="flow_route_56_duration_20250327_2000.4" depart="19.00" departLane="1341093415#0_0" departPos="42.19" departSpeed="0.00" departDelay="0.54" arrival="71.00" arrivalLane="409155823_0" arrivalPos="47.92" arrivalSpeed="10.75" duration="52.00" routeLength="210.56" waitingTime="9.00" waitingCount="2" stopTime="0.00" timeLoss="38.22" rerouteNo="0" devices="tripinfo_flow_route_56_duration_20250327_2000.4" vType="car" speedFactor="1.12" vaporized=""/>
    <tripinfo id="flow_route_56_duration_20250327_2000.5" depart="24.00" departLane="1341093415#0_0" departPos="53.79" departSpeed="0.00" departDelay="0.93" arrival="74.00" arrivalLane="409155823_0" arrivalPos="2.85" arrivalSpeed="8.13" duration="50.00" routeLength="153.91" waitingTime="5.00" waitingCount="2" stopTime="0.00" timeLoss="39.69" rerouteNo="0" devices="tripinfo_flow_route_56_duration_20250327_2000.5" vType="car" speedFactor="0.99" vaporized=""/>
    <tripinfo id="flow_route_56_duration_20250327_2000.9" depart="42.00" departLane="1341093415#0_0" departPos="119.09" departSpeed="0.00" departDelay="0.47" arrival="76.00" arrivalLane="409155823_0" arrivalPos="7.84" arrivalSpeed="8.99" duration="34.00" routeLength="93.59" waitingTime="0.00" waitingCount="0" stopTime="0.00" timeLoss="27.25" rerouteNo="0" devices="tripinfo_flow_route_56_duration_20250327_2000.9" vType="car" speedFactor="0.89" vaporized=""/>
    <tripinfo id="flow_route_54_duration_20250327_2000.3" depart="45.00" departLane="1341093415#0_0" departPos="54.86" departSpeed="0.00" departDelay="0.00" arrival="76.00" arrivalLane="1341093416#0_1" arrivalPos="189.63" arrivalSpeed="16.22" duration="31.00" routeLength="341.59" waitingTime="0.00" waitingCount="0" stopTime="0.00" timeLoss="10.11" rerouteNo="0" devices="tripinfo_flow_route_54_duration_20250327_2000.3" vType="car" speedFactor="0.87" vaporized=""/>
    <tripinfo id="flow_route_56_duration_20250327_2000.12" depart="56.00" departLane="1341093415#0_0" departPos="165.43" departSpeed="0.00" departDelay="0.62" arrival="77.00" arrivalLane="409155823_0" arrivalPos="48.13" arrivalSpeed="10.65" duration="21.00" routeLength="87.55" waitingTime="1.00" waitingCount="1" stopTime="0.00" timeLoss="14.90" rerouteNo="0" devices="tripinfo_flow_route_56_duration_20250327_2000.12" vType="car" speedFactor="1.15" vaporized=""/>
    <tripinfo id="flow_route_55_duration_20250327_2000.3" depart="45.00" departLane="1341093415#0_0" departPos="87.80" departSpeed="0.00" departDelay="0.00" arrival="85.00" arrivalLane="791826085_0" arrivalPos="304.95" arrivalSpeed="14.94" duration="40.00" routeLength="406.86" waitingTime="0.00" waitingCount="0" stopTime="0.00" timeLoss="13.01" rerouteNo="0" devices="tripinfo_flow_route_55_duration_20250327_2000.3" vType="car" speedFactor="0.92" vaporized=""/>
    <tripinfo id="flow_route_61_duration_20250327_2000.4" depart="35.00" departLane="186407684#0_0" departPos="50.38" departSpeed="0.00" departDelay="0.72" arrival="88.00" arrivalLane="1341093416#0_2" arrivalPos="46.05" arrivalSpeed="10.76" duration="53.00" routeLength="105.69" waitingTime="29.00" waitingCount="1" stopTime="0.00" timeLoss="45.77" rerouteNo="0" devices="tripinfo_flow_route_61_duration_20250327_2000.4" vType="car" speedFactor="1.01" vaporized=""/>
    <tripinfo id="flow_route_61_duration_20250327_2000.6" depart="52.00" departLane="186407684#0_0" departPos="24.57" departSpeed="0.00" departDelay="0.57" arrival="90.00" arrivalLane="1341093416#0_2" arrivalPos="41.63" arrivalSpeed="9.98" duration="38.00" routeLength="127.08" waitingTime="11.00" waitingCount="1" stopTime="0.00" timeLoss="29.95" rerouteNo="0" devices="tripinfo_flow_route_61_duration_20250327_2000.6" vType="car" speedFactor="1.18" vaporized=""/>
    <tripinfo id="flow_route_61_duration_20250327_2000.3" depart="26.00" departLane="186407684#0_0" departPos="14.02" departSpeed="0.00" departDelay="0.29" arrival="100.00" arrivalLane="1341093416#0_0" arrivalPos="209.62" arrivalSpeed="16.53" duration="74.00" routeLength="309.78" waitingTime="34.00" waitingCount="1" stopTime="0.00" timeLoss="53.54" rerouteNo="0" devices="tripinfo_flow_route_61_duration_20250327_2000.3" vType="car" speedFactor="0.93" vaporized=""/>
    <tripinfo id="flow_route_61_duration_20250327_2000.5" depart="43.00" departLane="186407684#0_0" departPos="52.55" departSpeed="0.00" departDelay="0.15" arrival="101.00" arrivalLane="1341093416#0_1" arrivalPos="196.20" arrivalSpeed="16.34" duration="58.00" routeLength="257.83" waitingTime="24.00" waitingCount="1" stopTime="0.00" timeLoss="40.69" rerouteNo="0" devices="tripinfo_flow_route_61_duration_20250327_2000.5" vType="car" speedFactor="0.83" vaporized=""/>
    <tripinfo id="flow_route_60_duration_20250327_2000.3" depart="45.00" departLane="186407684#0_0" departPos="51.12" departSpeed="0.00" departDelay="0.00" arrival="107.00" arrivalLane="791826085_0" arrivalPos="313.07" arrivalSpeed="15.54" duration="62.00" routeLength="370.87" waitingTime="19.00" waitingCount="1" stopTime="0.00" timeLoss="37.86" rerouteNo="0" devices="tripinfo_flow_route_60_duration_20250327_2000.3" vType="car" speedFactor="0.95" vaporized=""/>
    <tripinfo id="flow_route_56_duration_20250327_2000.7" depart="33.00" departLane="1341093415#0_0" departPos="39.77" departSpeed="0.00" departDelay="0.70" arrival="124.00" arrivalLane="409155823_0" arrivalPos="23.25" arrivalSpeed="8.28" duration="91.00" routeLength="188.32" waitingTime="38.00" waitingCount="1" stopTime="0.00" timeLoss="78.85" rerouteNo="0" devices="tripinfo_flow_route_56_duration_20250327_2000.7" vType="car" speedFactor="1.02" vaporized=""/>
    <tripinfo id="flow_route_56_duration_20250327_2000.11" depart="52.00" departLane="1341093415#0_0" departPos="4.96" departSpeed="0.00" departDelay="1.24" arrival="128.00" arrivalLane="409155823_0" arrivalPos="16.14" arrivalSpeed="9.70" duration="76.00" routeLength="216.02" waitingTime="37.00" waitingCount="1" stopTime="0.00" timeLoss="61.47" rerouteNo="0" devices="tripinfo_flow_route_56_duration_20250327_2000.11" vType="car" speedFactor="0.93" vaporized=""/>
    <tripinfo id="flow_route_56_duration_20250327_2000.6" depart="28.00" departLane="1341093415#0_0" departPos="5.32" departSpeed="0.00" departDelay="0.31" arrival="132.00" arrivalLane="409155823_0" arrivalPos="84.21" arrivalSpeed="13.72" duration="104.00" routeLength="283.73" waitingTime="37.00" waitingCount="1" stopTime="0.00" timeLoss="84.37" rerouteNo="0" devices="tripinfo_flow_route_56_duration_20250327_2000.6" vType="car" speedFactor="0.88" vaporized=""/>
</tripinfos>
