<?xml version="1.0" encoding="UTF-8"?>

<!-- generated on 2025-05-06 21:08:12 by Eclipse SUMO sumo Version 1.20.0
<configuration xmlns:xsi="http://www.w3.org/2001/XMLSchema-instance" xsi:noNamespaceSchemaLocation="http://sumo.dlr.de/xsd/sumoConfiguration.xsd">

    <input>
        <net-file value="osm.net.xml"/>
        <route-files value="xml/route_rl_J7_3.rou.xml"/>
    </input>

    <output>
        <tripinfo-output value="xml/tripinfo_rl_J7_3.xml"/>
    </output>

    <traci_server>
        <remote-port value="44277"/>
    </traci_server>

</configuration>
-->

<tripinfos xmlns:xsi="http://www.w3.org/2001/XMLSchema-instance" xsi:noNamespaceSchemaLocation="http://sumo.dlr.de/xsd/tripinfo_file.xsd">
    <tripinfo id="flow_route_121_duration_20250327_2150.1" depart="11.00" departLane="799091563#0_0" departPos="363.24" departSpeed="0.00" departDelay="1.00" arrival="21.00" arrivalLane="134194079#0_0" arrivalPos="9.56" arrivalSpeed="7.10" duration="10.00" routeLength="35.49" waitingTime="0.00" waitingCount="0" stopTime="0.00" timeLoss="6.94" rerouteNo="0" devices="tripinfo_flow_route_121_duration_20250327_2150.1" vType="car" speedFactor="0.99" vaporized=""/>
    <tripinfo id="flow_route_131_duration_20250327_2150.0" depart="0.00" departLane="714011134#0_0" departPos="6.35" departSpeed="0.00" departDelay="0.00" arrival="26.00" arrivalLane="134194079#0_1" arrivalPos="73.02" arrivalSpeed="14.32" duration="26.00" routeLength="232.63" waitingTime="0.00" waitingCount="0" stopTime="0.00" timeLoss="10.08" rerouteNo="0" devices="tripinfo_flow_route_131_duration_20250327_2150.0" vType="car" speedFactor="0.89" vaporized=""/>
    <tripinfo id="flow_route_127_duration_20250327_2150.1" depart="7.00" departLane="-138000461_0" departPos="174.20" departSpeed="0.00" departDelay="0.33" arrival="27.00" arrivalLane="189240000#0-AddedOnRampEdge_0" arrivalPos="59.81" arrivalSpeed="13.70" duration="20.00" routeLength="144.72" waitingTime="0.00" waitingCount="0" stopTime="0.00" timeLoss="10.67" rerouteNo="0" devices="tripinfo_flow_route_127_duration_20250327_2150.1" vType="car" speedFactor="1.03" vaporized=""/>
    <tripinfo id="flow_route_127_duration_20250327_2150.0" depart="0.00" departLane="-138000461_0" departPos="55.90" departSpeed="0.00" departDelay="0.00" arrival="31.00" arrivalLane="189240000#0-AddedOnRampEdge_0" arrivalPos="70.17" arrivalSpeed="13.77" duration="31.00" routeLength="273.38" waitingTime="0.00" waitingCount="0" stopTime="0.00" timeLoss="13.66" rerouteNo="0" devices="tripinfo_flow_route_127_duration_20250327_2150.0" vType="car" speedFactor="1.05" vaporized=""/>
    <tripinfo id="flow_route_132_duration_20250327_2150.0" depart="0.00" departLane="714011134#0_0" departPos="92.28" departSpeed="0.00" departDelay="0.00" arrival="35.00" arrivalLane="189240000#0-AddedOnRampEdge_1" arrivalPos="51.48" arrivalSpeed="15.31" duration="35.00" routeLength="375.34" waitingTime="0.00" waitingCount="0" stopTime="0.00" timeLoss="10.11" rerouteNo="0" devices="tripinfo_flow_route_132_duration_20250327_2150.0" vType="car" speedFactor="0.94" vaporized=""/>
    <tripinfo id="flow_route_121_duration_20250327_2150.0" depart="1.00" departLane="799091563#0_0" departPos="259.58" departSpeed="0.00" departDelay="1.00" arrival="36.00" arrivalLane="134194079#0_0" arrivalPos="144.99" arrivalSpeed="15.72" duration="35.00" routeLength="274.57" waitingTime="0.00" waitingCount="0" stopTime="0.00" timeLoss="17.33" rerouteNo="0" devices="tripinfo_flow_route_121_duration_20250327_2150.0" vType="car" speedFactor="1.08" vaporized=""/>
    <tripinfo id="flow_route_116_duration_20250327_2150.0" depart="0.00" departLane="177211987#1_0" departPos="0.88" departSpeed="0.00" departDelay="0.00" arrival="38.00" arrivalLane="688883939#0_0" arrivalPos="93.94" arrivalSpeed="16.39" duration="38.00" routeLength="448.08" waitingTime="0.00" waitingCount="0" stopTime="0.00" timeLoss="10.48" rerouteNo="0" devices="tripinfo_flow_route_116_duration_20250327_2150.0" vType="car" speedFactor="1.06" vaporized=""/>
    <tripinfo id="flow_route_132_duration_20250327_2150.1" depart="4.00" departLane="714011134#0_0" departPos="32.36" departSpeed="0.00" departDelay="0.84" arrival="42.00" arrivalLane="189240000#0-AddedOnRampEdge_1" arrivalPos="48.43" arrivalSpeed="16.43" duration="38.00" routeLength="432.21" waitingTime="0.00" waitingCount="0" stopTime="0.00" timeLoss="11.35" rerouteNo="0" devices="tripinfo_flow_route_132_duration_20250327_2150.1" vType="car" speedFactor="1.09" vaporized=""/>
    <tripinfo id="flow_route_132_duration_20250327_2150.2" depart="7.00" departLane="714011134#0_0" departPos="93.55" departSpeed="0.00" departDelay="0.69" arrival="43.00" arrivalLane="189240000#0-AddedOnRampEdge_1" arrivalPos="88.65" arrivalSpeed="16.14" duration="36.00" routeLength="411.25" waitingTime="0.00" waitingCount="0" stopTime="0.00" timeLoss="10.53" rerouteNo="0" devices="tripinfo_flow_route_132_duration_20250327_2150.2" vType="car" speedFactor="1.05" vaporized=""/>
    <tripinfo id="flow_route_127_duration_20250327_2150.3" depart="20.00" departLane="-138000461_0" departPos="146.16" departSpeed="0.00" departDelay="0.00" arrival="46.00" arrivalLane="189240000#0-AddedOnRampEdge_0" arrivalPos="67.56" arrivalSpeed="12.67" duration="26.00" routeLength="180.51" waitingTime="0.00" waitingCount="0" stopTime="0.00" timeLoss="12.30" rerouteNo="0" devices="tripinfo_flow_route_127_duration_20250327_2150.3" vType="car" speedFactor="0.83" vaporized=""/>
    <tripinfo id="flow_route_132_duration_20250327_2150.4" depart="13.00" departLane="714011134#0_0" departPos="43.35" departSpeed="0.00" departDelay="0.37" arrival="48.00" arrivalLane="189240000#0-AddedOnRampEdge_1" arrivalPos="11.84" arrivalSpeed="15.12" duration="35.00" routeLength="384.63" waitingTime="0.00" waitingCount="0" stopTime="0.00" timeLoss="9.47" rerouteNo="0" devices="tripinfo_flow_route_132_duration_20250327_2150.4" vType="car" speedFactor="0.94" vaporized=""/>
    <tripinfo id="flow_route_127_duration_20250327_2150.2" depart="14.00" departLane="-138000461_0" departPos="55.81" departSpeed="0.00" departDelay="0.67" arrival="49.00" arrivalLane="189240000#0-AddedOnRampEdge_0" arrivalPos="91.06" arrivalSpeed="14.40" duration="35.00" routeLength="294.37" waitingTime="0.00" waitingCount="0" stopTime="0.00" timeLoss="16.71" rerouteNo="0" devices="tripinfo_flow_route_127_duration_20250327_2150.2" vType="car" speedFactor="1.16" vaporized=""/>
    <tripinfo id="flow_route_132_duration_20250327_2150.3" depart="10.00" departLane="714011134#0_0" departPos="16.77" departSpeed="0.00" departDelay="0.53" arrival="51.00" arrivalLane="189240000#0-AddedOnRampEdge_1" arrivalPos="28.49" arrivalSpeed="15.04" duration="41.00" routeLength="427.86" waitingTime="0.00" waitingCount="0" stopTime="0.00" timeLoss="12.56" rerouteNo="0" devices="tripinfo_flow_route_132_duration_20250327_2150.3" vType="car" speedFactor="0.93" vaporized=""/>
    <tripinfo id="flow_route_126_duration_20250327_2150.0" depart="0.00" departLane="-138000461_0" departPos="119.67" departSpeed="0.00" departDelay="0.00" arrival="53.00" arrivalLane="138000492#0_1" arrivalPos="18.35" arrivalSpeed="13.45" duration="53.00" routeLength="582.25" waitingTime="0.00" waitingCount="0" stopTime="0.00" timeLoss="10.35" rerouteNo="0" devices="tripinfo_flow_route_126_duration_20250327_2150.0" vType="car" speedFactor="0.83" vaporized=""/>
    <tripinfo id="flow_route_132_duration_20250327_2150.5" depart="16.00" departLane="714011134#0_0" departPos="25.44" departSpeed="0.00" departDelay="0.22" arrival="54.00" arrivalLane="189240000#0-AddedOnRampEdge_1" arrivalPos="53.97" arrivalSpeed="16.18" duration="38.00" routeLength="444.67" waitingTime="0.00" waitingCount="0" stopTime="0.00" timeLoss="11.15" rerouteNo="0" devices="tripinfo_flow_route_132_duration_20250327_2150.5" vType="car" speedFactor="1.01" vaporized=""/>
    <tripinfo id="flow_route_133_duration_20250327_2150.0" depart="0.00" departLane="714011134#0_0" departPos="33.93" departSpeed="0.00" departDelay="0.00" arrival="59.00" arrivalLane="138000492#0_0" arrivalPos="313.58" arrivalSpeed="13.96" duration="59.00" routeLength="604.48" waitingTime="0.00" waitingCount="0" stopTime="0.00" timeLoss="15.68" rerouteNo="0" devices="tripinfo_flow_route_133_duration_20250327_2150.0" vType="car" speedFactor="0.86" vaporized=""/>
    <tripinfo id="flow_route_127_duration_20250327_2150.5" depart="34.00" departLane="-138000461_0" departPos="129.99" departSpeed="0.00" departDelay="0.67" arrival="59.00" arrivalLane="189240000#0-AddedOnRampEdge_0" arrivalPos="64.07" arrivalSpeed="13.38" duration="25.00" routeLength="193.19" waitingTime="0.00" waitingCount="0" stopTime="0.00" timeLoss="12.48" rerouteNo="0" devices="tripinfo_flow_route_127_duration_20250327_2150.5" vType="car" speedFactor="0.97" vaporized=""/>
    <tripinfo id="flow_route_132_duration_20250327_2150.6" depart="19.00" departLane="714011134#0_0" departPos="9.38" departSpeed="0.00" departDelay="0.06" arrival="60.00" arrivalLane="189240000#0-AddedOnRampEdge_1" arrivalPos="76.63" arrivalSpeed="16.14" duration="41.00" routeLength="483.39" waitingTime="0.00" waitingCount="0" stopTime="0.00" timeLoss="11.24" rerouteNo="0" devices="tripinfo_flow_route_132_duration_20250327_2150.6" vType="car" speedFactor="0.97" vaporized=""/>
    <tripinfo id="flow_route_127_duration_20250327_2150.4" depart="27.00" departLane="-138000461_0" departPos="37.82" departSpeed="0.00" departDelay="0.34" arrival="62.00" arrivalLane="189240000#0-AddedOnRampEdge_0" arrivalPos="87.62" arrivalSpeed="15.15" duration="35.00" routeLength="308.91" waitingTime="0.00" waitingCount="0" stopTime="0.00" timeLoss="15.62" rerouteNo="0" devices="tripinfo_flow_route_127_duration_20250327_2150.4" vType="car" speedFactor="1.18" vaporized=""/>
    <tripinfo id="flow_route_117_duration_20250327_2150.0" depart="0.00" departLane="177211987#1_0" departPos="98.51" departSpeed="0.00" departDelay="0.00" arrival="63.00" arrivalLane="138000492#0_0" arrivalPos="299.85" arrivalSpeed="15.54" duration="63.00" routeLength="701.60" waitingTime="0.00" waitingCount="0" stopTime="0.00" timeLoss="16.98" rerouteNo="0" devices="tripinfo_flow_route_117_duration_20250327_2150.0" vType="car" speedFactor="0.94" vaporized=""/>
    <tripinfo id="flow_route_132_duration_20250327_2150.11" depart="38.00" departLane="714011134#0_0" departPos="97.48" departSpeed="0.00" departDelay="3.27" arrival="71.00" arrivalLane="189240000#0-AddedOnRampEdge_1" arrivalPos="36.80" arrivalSpeed="16.59" duration="33.00" routeLength="355.46" waitingTime="0.00" waitingCount="0" stopTime="0.00" timeLoss="10.74" rerouteNo="0" devices="tripinfo_flow_route_132_duration_20250327_2150.11" vType="car" speedFactor="1.18" vaporized=""/>
    <tripinfo id="flow_route_127_duration_20250327_2150.6" depart="40.00" departLane="-138000461_0" departPos="62.62" departSpeed="0.00" departDelay="0.00" arrival="71.00" arrivalLane="189240000#0-AddedOnRampEdge_0" arrivalPos="82.50" arrivalSpeed="14.45" duration="31.00" routeLength="278.99" waitingTime="0.00" waitingCount="0" stopTime="0.00" timeLoss="13.41" rerouteNo="0" devices="tripinfo_flow_route_127_duration_20250327_2150.6" vType="car" speedFactor="1.04" vaporized=""/>
    <tripinfo id="flow_route_132_duration_20250327_2150.8" depart="27.00" departLane="714011134#0_0" departPos="7.06" departSpeed="0.00" departDelay="1.74" arrival="76.00" arrivalLane="189240000#0-AddedOnRampEdge_1" arrivalPos="26.33" arrivalSpeed="15.18" duration="49.00" routeLength="435.41" waitingTime="0.00" waitingCount="0" stopTime="0.00" timeLoss="20.81" rerouteNo="0" devices="tripinfo_flow_route_132_duration_20250327_2150.8" vType="car" speedFactor="0.93" vaporized=""/>
    <tripinfo id="flow_route_132_duration_20250327_2150.9" depart="29.00" departLane="714011134#0_0" departPos="33.08" departSpeed="0.00" departDelay="0.59" arrival="76.00" arrivalLane="189240000#0-AddedOnRampEdge_1" arrivalPos="93.68" arrivalSpeed="16.42" duration="47.00" routeLength="476.74" waitingTime="0.00" waitingCount="0" stopTime="0.00" timeLoss="17.61" rerouteNo="0" devices="tripinfo_flow_route_132_duration_20250327_2150.9" vType="car" speedFactor="1.15" vaporized=""/>
    <tripinfo id="flow_route_132_duration_20250327_2150.7" depart="25.00" departLane="714011134#0_0" departPos="16.00" departSpeed="0.00" departDelay="2.90" arrival="79.00" arrivalLane="189240000#0-AddedOnRampEdge_1" arrivalPos="90.63" arrivalSpeed="14.81" duration="54.00" routeLength="490.77" waitingTime="0.00" waitingCount="0" stopTime="0.00" timeLoss="21.38" rerouteNo="0" devices="tripinfo_flow_route_132_duration_20250327_2150.7" vType="car" speedFactor="0.92" vaporized=""/>
    <tripinfo id="flow_route_132_duration_20250327_2150.12" depart="41.00" departLane="714011134#0_0" departPos="43.32" departSpeed="0.00" departDelay="3.12" arrival="80.00" arrivalLane="189240000#0-AddedOnRampEdge_1" arrivalPos="59.03" arrivalSpeed="15.62" duration="39.00" routeLength="431.84" waitingTime="0.00" waitingCount="0" stopTime="0.00" timeLoss="11.43" rerouteNo="0" devices="tripinfo_flow_route_132_duration_20250327_2150.12" vType="car" speedFactor="0.96" vaporized=""/>
    <tripinfo id="flow_route_127_duration_20250327_2150.7" depart="47.00" departLane="-138000461_0" departPos="9.00" departSpeed="0.00" departDelay="0.34" arrival="80.00" arrivalLane="189240000#0-AddedOnRampEdge_0" arrivalPos="35.08" arrivalSpeed="11.67" duration="33.00" routeLength="285.19" waitingTime="0.00" waitingCount="0" stopTime="0.00" timeLoss="13.25" rerouteNo="0" devices="tripinfo_flow_route_127_duration_20250327_2150.7" vType="car" speedFactor="0.90" vaporized=""/>
    <tripinfo id="flow_route_132_duration_20250327_2150.10" depart="37.00" departLane="714011134#0_0" departPos="2.51" departSpeed="0.00" departDelay="5.43" arrival="82.00" arrivalLane="189240000#0-AddedOnRampEdge_2" arrivalPos="68.15" arrivalSpeed="16.40" duration="45.00" routeLength="481.78" waitingTime="0.00" waitingCount="0" stopTime="0.00" timeLoss="15.03" rerouteNo="0" devices="tripinfo_flow_route_132_duration_20250327_2150.10" vType="car" speedFactor="1.02" vaporized=""/>
    <tripinfo id="flow_route_132_duration_20250327_2150.16" depart="56.00" departLane="714011134#0_0" departPos="93.50" departSpeed="0.00" departDelay="5.49" arrival="89.00" arrivalLane="189240000#0-AddedOnRampEdge_1" arrivalPos="35.82" arrivalSpeed="16.46" duration="33.00" routeLength="358.46" waitingTime="0.00" waitingCount="0" stopTime="0.00" timeLoss="10.64" rerouteNo="0" devices="tripinfo_flow_route_132_duration_20250327_2150.16" vType="car" speedFactor="1.02" vaporized=""/>
    <tripinfo id="flow_route_127_duration_20250327_2150.8" depart="54.00" departLane="-138000461_0" departPos="3.09" departSpeed="0.00" departDelay="0.67" arrival="90.00" arrivalLane="189240000#0-AddedOnRampEdge_0" arrivalPos="77.52" arrivalSpeed="13.55" duration="36.00" routeLength="333.54" waitingTime="0.00" waitingCount="0" stopTime="0.00" timeLoss="15.52" rerouteNo="0" devices="tripinfo_flow_route_127_duration_20250327_2150.8" vType="car" speedFactor="1.00" vaporized=""/>
    <tripinfo id="flow_route_122_duration_20250327_2150.0" depart="1.00" departLane="799091563#0_0" departPos="17.54" departSpeed="0.00" departDelay="1.00" arrival="92.00" arrivalLane="688883939#0_2" arrivalPos="62.20" arrivalSpeed="13.76" duration="91.00" routeLength="483.30" waitingTime="37.00" waitingCount="1" stopTime="0.00" timeLoss="61.37" rerouteNo="0" devices="tripinfo_flow_route_122_duration_20250327_2150.0" vType="car" speedFactor="1.03" vaporized=""/>
    <tripinfo id="flow_route_122_duration_20250327_2150.3" depart="36.00" departLane="799091563#0_0" departPos="370.92" departSpeed="0.00" departDelay="0.00" arrival="93.00" arrivalLane="688883939#0_2" arrivalPos="61.68" arrivalSpeed="13.54" duration="57.00" routeLength="129.40" waitingTime="38.00" waitingCount="1" stopTime="0.00" timeLoss="48.35" rerouteNo="0" devices="tripinfo_flow_route_122_duration_20250327_2150.3" vType="car" speedFactor="0.90" vaporized=""/>
    <tripinfo id="flow_route_132_duration_20250327_2150.14" depart="49.00" departLane="714011134#0_0" departPos="36.31" departSpeed="0.00" departDelay="4.80" arrival="95.00" arrivalLane="189240000#0-AddedOnRampEdge_2" arrivalPos="67.24" arrivalSpeed="16.32" duration="46.00" routeLength="447.07" waitingTime="0.00" waitingCount="0" stopTime="0.00" timeLoss="18.14" rerouteNo="0" devices="tripinfo_flow_route_132_duration_20250327_2150.14" vType="car" speedFactor="1.00" vaporized=""/>
    <tripinfo id="flow_route_122_duration_20250327_2150.1" depart="12.00" departLane="799091563#0_0" departPos="49.13" departSpeed="0.00" departDelay="0.00" arrival="96.00" arrivalLane="688883939#0_2" arrivalPos="72.23" arrivalSpeed="15.51" duration="84.00" routeLength="461.74" waitingTime="31.00" waitingCount="1" stopTime="0.00" timeLoss="53.83" rerouteNo="0" devices="tripinfo_flow_route_122_duration_20250327_2150.1" vType="car" speedFactor="0.94" vaporized=""/>
    <tripinfo id="flow_route_122_duration_20250327_2150.2" depart="25.00" departLane="799091563#0_0" departPos="10.57" departSpeed="0.00" departDelay="1.00" arrival="96.00" arrivalLane="688883939#0_2" arrivalPos="17.75" arrivalSpeed="12.56" duration="71.00" routeLength="445.82" waitingTime="19.00" waitingCount="1" stopTime="0.00" timeLoss="43.84" rerouteNo="0" devices="tripinfo_flow_route_122_duration_20250327_2150.2" vType="car" speedFactor="1.13" vaporized=""/>
    <tripinfo id="flow_route_132_duration_20250327_2150.13" depart="45.00" departLane="714011134#0_0" departPos="13.10" departSpeed="0.00" departDelay="3.96" arrival="97.00" arrivalLane="189240000#0-AddedOnRampEdge_1" arrivalPos="66.04" arrivalSpeed="14.35" duration="52.00" routeLength="469.08" waitingTime="0.00" waitingCount="0" stopTime="0.00" timeLoss="23.09" rerouteNo="0" devices="tripinfo_flow_route_132_duration_20250327_2150.13" vType="car" speedFactor="1.04" vaporized=""/>
    <tripinfo id="flow_route_132_duration_20250327_2150.15" depart="52.00" departLane="714011134#0_0" departPos="62.46" departSpeed="0.00" departDelay="4.65" arrival="97.00" arrivalLane="189240000#0-AddedOnRampEdge_1" arrivalPos="92.35" arrivalSpeed="13.83" duration="45.00" routeLength="446.03" waitingTime="0.00" waitingCount="0" stopTime="0.00" timeLoss="13.17" rerouteNo="0" devices="tripinfo_flow_route_132_duration_20250327_2150.15" vType="car" speedFactor="0.85" vaporized=""/>
    <tripinfo id="flow_route_122_duration_20250327_2150.4" depart="48.00" departLane="799091563#0_0" departPos="343.43" departSpeed="0.00" departDelay="0.00" arrival="98.00" arrivalLane="688883939#0_2" arrivalPos="71.20" arrivalSpeed="13.70" duration="50.00" routeLength="166.41" waitingTime="21.00" waitingCount="2" stopTime="0.00" timeLoss="37.88" rerouteNo="0" devices="tripinfo_flow_route_122_duration_20250327_2150.4" vType="car" speedFactor="0.85" vaporized=""/>
    <tripinfo id="flow_route_121_duration_20250327_2150.2" depart="20.00" departLane="799091563#0_0" departPos="226.40" departSpeed="0.00" departDelay="0.00" arrival="101.00" arrivalLane="134194079#0_0" arrivalPos="197.11" arrivalSpeed="14.70" duration="81.00" routeLength="359.87" waitingTime="33.00" waitingCount="1" stopTime="0.00" timeLoss="54.69" rerouteNo="0" devices="tripinfo_flow_route_121_duration_20250327_2150.2" vType="car" speedFactor="0.89" vaporized=""/>
    <tripinfo id="flow_route_121_duration_20250327_2150.3" depart="32.00" departLane="799091563#0_0" departPos="133.60" departSpeed="0.00" departDelay="2.00" arrival="101.00" arrivalLane="134194079#0_0" arrivalPos="167.32" arrivalSpeed="16.09" duration="69.00" routeLength="422.88" waitingTime="12.00" waitingCount="1" stopTime="0.00" timeLoss="41.40" rerouteNo="0" devices="tripinfo_flow_route_121_duration_20250327_2150.3" vType="car" speedFactor="0.99" vaporized=""/>
    <tripinfo id="flow_route_132_duration_20250327_2150.18" depart="57.00" departLane="714011134#0_0" departPos="36.45" departSpeed="0.00" departDelay="0.17" arrival="101.00" arrivalLane="189240000#0-AddedOnRampEdge_1" arrivalPos="85.29" arrivalSpeed="14.98" duration="44.00" routeLength="464.98" waitingTime="0.00" waitingCount="0" stopTime="0.00" timeLoss="12.11" rerouteNo="0" devices="tripinfo_flow_route_132_duration_20250327_2150.18" vType="car" speedFactor="0.90" vaporized=""/>
    <tripinfo id="flow_route_121_duration_20250327_2150.5" depart="50.00" departLane="799091563#0_0" departPos="105.29" departSpeed="0.00" departDelay="0.00" arrival="102.00" arrivalLane="134194079#0_0" arrivalPos="127.11" arrivalSpeed="14.63" duration="52.00" routeLength="410.98" waitingTime="0.00" waitingCount="0" stopTime="0.00" timeLoss="26.52" rerouteNo="0" devices="tripinfo_flow_route_121_duration_20250327_2150.5" vType="car" speedFactor="1.17" vaporized=""/>
    <tripinfo id="flow_route_121_duration_20250327_2150.4" depart="42.00" departLane="799091563#0_0" departPos="38.55" departSpeed="0.00" departDelay="2.00" arrival="106.00" arrivalLane="134194079#0_0" arrivalPos="134.46" arrivalSpeed="14.54" duration="64.00" routeLength="485.07" waitingTime="0.00" waitingCount="0" stopTime="0.00" timeLoss="33.25" rerouteNo="0" devices="tripinfo_flow_route_121_duration_20250327_2150.4" vType="car" speedFactor="1.09" vaporized=""/>
    <tripinfo id="flow_route_120_duration_20250327_2150.0" depart="0.00" departLane="799091563#0_0" departPos="177.01" departSpeed="0.00" departDelay="0.00" arrival="111.00" arrivalLane="138000492#0_1" arrivalPos="19.14" arrivalSpeed="10.15" duration="111.00" routeLength="440.29" waitingTime="51.00" waitingCount="2" stopTime="0.00" timeLoss="84.22" rerouteNo="0" devices="tripinfo_flow_route_120_duration_20250327_2150.0" vType="car" speedFactor="1.01" vaporized=""/>
    <tripinfo id="flow_route_120_duration_20250327_2150.1" depart="9.00" departLane="799091563#0_0" departPos="89.89" departSpeed="0.00" departDelay="1.50" arrival="114.00" arrivalLane="138000492#0_0" arrivalPos="166.90" arrivalSpeed="16.14" duration="105.00" routeLength="675.17" waitingTime="35.00" waitingCount="1" stopTime="0.00" timeLoss="63.36" rerouteNo="0" devices="tripinfo_flow_route_120_duration_20250327_2150.1" vType="car" speedFactor="1.12" vaporized=""/>
    <tripinfo id="flow_route_120_duration_20250327_2150.2" depart="15.00" departLane="799091563#0_0" departPos="63.77" departSpeed="0.00" departDelay="0.00" arrival="124.00" arrivalLane="138000492#0_2" arrivalPos="93.90" arrivalSpeed="16.28" duration="109.00" routeLength="628.29" waitingTime="22.00" waitingCount="1" stopTime="0.00" timeLoss="70.09" rerouteNo="0" devices="tripinfo_flow_route_120_duration_20250327_2150.2" vType="car" speedFactor="1.02" vaporized=""/>
    <tripinfo id="flow_route_120_duration_20250327_2150.4" depart="30.00" departLane="799091563#0_0" departPos="68.60" departSpeed="0.00" departDelay="0.00" arrival="124.00" arrivalLane="138000492#0_2" arrivalPos="36.20" arrivalSpeed="11.37" duration="94.00" routeLength="565.76" waitingTime="9.00" waitingCount="2" stopTime="0.00" timeLoss="59.76" rerouteNo="0" devices="tripinfo_flow_route_120_duration_20250327_2150.4" vType="car" speedFactor="1.17" vaporized=""/>
    <tripinfo id="flow_route_120_duration_20250327_2150.7" depart="53.00" departLane="799091563#0_0" departPos="243.45" departSpeed="0.00" departDelay="0.50" arrival="127.00" arrivalLane="138000492#0_1" arrivalPos="43.29" arrivalSpeed="12.00" duration="74.00" routeLength="398.01" waitingTime="2.00" waitingCount="1" stopTime="0.00" timeLoss="49.84" rerouteNo="0" devices="tripinfo_flow_route_120_duration_20250327_2150.7" vType="car" speedFactor="1.10" vaporized=""/>
    <tripinfo id="flow_route_120_duration_20250327_2150.6" depart="45.00" departLane="799091563#0_0" departPos="270.85" departSpeed="0.00" departDelay="0.00" arrival="129.00" arrivalLane="138000492#0_1" arrivalPos="118.34" arrivalSpeed="14.96" duration="84.00" routeLength="445.66" waitingTime="15.00" waitingCount="1" stopTime="0.00" timeLoss="56.35" rerouteNo="0" devices="tripinfo_flow_route_120_duration_20250327_2150.6" vType="car" speedFactor="1.09" vaporized=""/>
    <tripinfo id="flow_route_120_duration_20250327_2150.5" depart="38.00" departLane="799091563#0_0" departPos="187.08" departSpeed="0.00" departDelay="0.50" arrival="133.00" arrivalLane="138000492#0_2" arrivalPos="368.46" arrivalSpeed="16.34" duration="95.00" routeLength="779.54" waitingTime="7.00" waitingCount="1" stopTime="0.00" timeLoss="47.82" rerouteNo="0" devices="tripinfo_flow_route_120_duration_20250327_2150.5" vType="car" speedFactor="1.03" vaporized=""/>
    <tripinfo id="flow_route_120_duration_20250327_2150.3" depart="23.00" departLane="799091563#0_0" departPos="116.87" departSpeed="0.00" departDelay="0.50" arrival="146.00" arrivalLane="138000492#0_0" arrivalPos="393.51" arrivalSpeed="14.18" duration="123.00" routeLength="874.80" waitingTime="25.00" waitingCount="2" stopTime="0.00" timeLoss="62.85" rerouteNo="0" devices="tripinfo_flow_route_120_duration_20250327_2150.3" vType="car" speedFactor="0.87" vaporized=""/>
    <tripinfo id="flow_route_116_duration_20250327_2150.1" depart="30.00" departLane="177211987#1_0" departPos="30.32" departSpeed="0.00" departDelay="0.00" arrival="164.00" arrivalLane="688883939#0_0" arrivalPos="35.74" arrivalSpeed="11.62" duration="134.00" routeLength="360.44" waitingTime="89.00" waitingCount="1" stopTime="0.00" timeLoss="111.90" rerouteNo="0" devices="tripinfo_flow_route_116_duration_20250327_2150.1" vType="car" speedFactor="1.01" vaporized=""/>
    <tripinfo id="flow_route_117_duration_20250327_2150.1" depart="12.00" departLane="177211987#1_0" departPos="48.49" departSpeed="0.00" departDelay="0.00" arrival="176.00" arrivalLane="138000492#0_1" arrivalPos="12.55" arrivalSpeed="10.99" duration="164.00" routeLength="464.32" waitingTime="108.00" waitingCount="1" stopTime="0.00" timeLoss="131.80" rerouteNo="0" devices="tripinfo_flow_route_117_duration_20250327_2150.1" vType="car" speedFactor="0.88" vaporized=""/>
    <tripinfo id="flow_route_132_duration_20250327_2150.17" depart="57.00" departLane="714011134#0_0" departPos="17.65" departSpeed="0.00" departDelay="3.33" arrival="184.00" arrivalLane="189240000#0-AddedOnRampEdge_1" arrivalPos="89.20" arrivalSpeed="16.29" duration="127.00" routeLength="487.68" waitingTime="73.00" waitingCount="1" stopTime="0.00" timeLoss="96.79" rerouteNo="0" devices="tripinfo_flow_route_132_duration_20250327_2150.17" vType="car" speedFactor="1.00" vaporized=""/>
    <tripinfo id="flow_route_117_duration_20250327_2150.2" depart="24.00" departLane="177211987#1_0" departPos="26.84" departSpeed="0.00" departDelay="0.00" arrival="195.00" arrivalLane="138000492#0_2" arrivalPos="244.12" arrivalSpeed="15.38" duration="171.00" routeLength="717.54" waitingTime="96.00" waitingCount="1" stopTime="0.00" timeLoss="124.86" rerouteNo="0" devices="tripinfo_flow_route_117_duration_20250327_2150.2" vType="car" speedFactor="0.95" vaporized=""/>
    <tripinfo id="flow_route_117_duration_20250327_2150.4" depart="48.00" departLane="177211987#1_0" departPos="22.48" departSpeed="0.00" departDelay="0.00" arrival="196.00" arrivalLane="138000492#0_1" arrivalPos="164.41" arrivalSpeed="14.61" duration="148.00" routeLength="642.19" waitingTime="75.00" waitingCount="1" stopTime="0.00" timeLoss="102.80" rerouteNo="0" devices="tripinfo_flow_route_117_duration_20250327_2150.4" vType="car" speedFactor="0.88" vaporized=""/>
    <tripinfo id="flow_route_117_duration_20250327_2150.3" depart="37.00" departLane="177211987#1_0" departPos="15.33" departSpeed="0.00" departDelay="1.00" arrival="200.00" arrivalLane="138000492#0_1" arrivalPos="347.42" arrivalSpeed="16.19" duration="163.00" routeLength="832.35" waitingTime="84.00" waitingCount="1" stopTime="0.00" timeLoss="112.51" rerouteNo="0" devices="tripinfo_flow_route_117_duration_20250327_2150.3" vType="car" speedFactor="1.10" vaporized=""/>
</tripinfos>
