<?xml version="1.0" encoding="UTF-8"?>

<!-- generated on 2025-05-06 21:08:52 by Eclipse SUMO sumo Version 1.20.0
<configuration xmlns:xsi="http://www.w3.org/2001/XMLSchema-instance" xsi:noNamespaceSchemaLocation="http://sumo.dlr.de/xsd/sumoConfiguration.xsd">

    <input>
        <net-file value="osm.net.xml"/>
        <route-files value="xml/route_rl_GS_cluster_4854142864_4854142865_7.rou.xml"/>
    </input>

    <output>
        <tripinfo-output value="xml/tripinfo_rl_GS_cluster_4854142864_4854142865_7.xml"/>
    </output>

    <traci_server>
        <remote-port value="42519"/>
    </traci_server>

</configuration>
-->

<tripinfos xmlns:xsi="http://www.w3.org/2001/XMLSchema-instance" xsi:noNamespaceSchemaLocation="http://sumo.dlr.de/xsd/tripinfo_file.xsd">
    <tripinfo id="flow_route_39_duration_20250327_1920.0" depart="0.00" departLane="133126030#0_0" departPos="101.03" departSpeed="0.00" departDelay="0.00" arrival="28.00" arrivalLane="1328664748#0_0" arrivalPos="158.52" arrivalSpeed="15.14" duration="28.00" routeLength="263.70" waitingTime="0.00" waitingCount="0" stopTime="0.00" timeLoss="10.74" rerouteNo="0" devices="tripinfo_flow_route_39_duration_20250327_1920.0" vType="car" speedFactor="0.94" vaporized=""/>
    <tripinfo id="flow_route_38_duration_20250327_1920.0" depart="0.00" departLane="133126030#0_0" departPos="45.86" departSpeed="0.00" departDelay="0.00" arrival="35.00" arrivalLane="134193294#0_0" arrivalPos="152.84" arrivalSpeed="16.29" duration="35.00" routeLength="301.86" waitingTime="0.00" waitingCount="0" stopTime="0.00" timeLoss="15.84" rerouteNo="0" devices="tripinfo_flow_route_38_duration_20250327_1920.0" vType="car" speedFactor="1.06" vaporized=""/>
    <tripinfo id="flow_route_38_duration_20250327_1920.1" depart="5.00" departLane="133126030#0_0" departPos="43.86" departSpeed="0.00" departDelay="0.00" arrival="40.00" arrivalLane="134193294#0_0" arrivalPos="141.40" arrivalSpeed="16.27" duration="35.00" routeLength="292.42" waitingTime="0.00" waitingCount="0" stopTime="0.00" timeLoss="15.91" rerouteNo="0" devices="tripinfo_flow_route_38_duration_20250327_1920.1" vType="car" speedFactor="1.05" vaporized=""/>
    <tripinfo id="flow_route_43_duration_20250327_1920.4" depart="11.00" departLane="1328664744#0_0" departPos="121.30" departSpeed="0.00" departDelay="0.09" arrival="50.00" arrivalLane="134193294#0_3" arrivalPos="31.45" arrivalSpeed="9.43" duration="39.00" routeLength="150.22" waitingTime="7.00" waitingCount="1" stopTime="0.00" timeLoss="29.18" rerouteNo="0" devices="tripinfo_flow_route_43_duration_20250327_1920.4" vType="car" speedFactor="1.13" vaporized=""/>
    <tripinfo id="flow_route_43_duration_20250327_1920.3" depart="9.00" departLane="1328664744#0_0" departPos="153.43" departSpeed="0.00" departDelay="0.82" arrival="55.00" arrivalLane="134193294#0_3" arrivalPos="139.24" arrivalSpeed="15.26" duration="46.00" routeLength="225.88" waitingTime="11.00" waitingCount="1" stopTime="0.00" timeLoss="31.08" rerouteNo="0" devices="tripinfo_flow_route_43_duration_20250327_1920.3" vType="car" speedFactor="1.01" vaporized=""/>
    <tripinfo id="flow_route_43_duration_20250327_1920.1" depart="3.00" departLane="1328664744#0_0" departPos="113.80" departSpeed="0.00" departDelay="0.27" arrival="58.00" arrivalLane="134193294#0_3" arrivalPos="150.20" arrivalSpeed="15.59" duration="55.00" routeLength="276.47" waitingTime="7.00" waitingCount="1" stopTime="0.00" timeLoss="35.94" rerouteNo="0" devices="tripinfo_flow_route_43_duration_20250327_1920.1" vType="car" speedFactor="0.94" vaporized=""/>
    <tripinfo id="flow_route_43_duration_20250327_1920.0" depart="0.00" departLane="1328664744#0_0" departPos="1.34" departSpeed="0.00" departDelay="0.00" arrival="63.00" arrivalLane="134193294#0_3" arrivalPos="84.30" arrivalSpeed="13.74" duration="63.00" routeLength="323.03" waitingTime="10.00" waitingCount="2" stopTime="0.00" timeLoss="42.13" rerouteNo="0" devices="tripinfo_flow_route_43_duration_20250327_1920.0" vType="car" speedFactor="1.08" vaporized=""/>
    <tripinfo id="flow_route_43_duration_20250327_1920.10" depart="28.00" departLane="1328664744#0_0" departPos="196.83" departSpeed="0.00" departDelay="0.73" arrival="63.00" arrivalLane="134193294#0_3" arrivalPos="140.85" arrivalSpeed="14.66" duration="35.00" routeLength="184.09" waitingTime="8.00" waitingCount="1" stopTime="0.00" timeLoss="21.26" rerouteNo="0" devices="tripinfo_flow_route_43_duration_20250327_1920.10" vType="car" speedFactor="0.91" vaporized=""/>
    <tripinfo id="flow_route_43_duration_20250327_1920.17" depart="47.00" departLane="1328664744#0_0" departPos="207.98" departSpeed="0.00" departDelay="0.64" arrival="70.00" arrivalLane="134193294#0_3" arrivalPos="51.87" arrivalSpeed="10.16" duration="23.00" routeLength="83.95" waitingTime="2.00" waitingCount="1" stopTime="0.00" timeLoss="16.44" rerouteNo="0" devices="tripinfo_flow_route_43_duration_20250327_1920.17" vType="car" speedFactor="0.93" vaporized=""/>
    <tripinfo id="flow_route_43_duration_20250327_1920.11" depart="30.00" departLane="1328664744#0_0" departPos="201.69" departSpeed="0.00" departDelay="0.00" arrival="71.00" arrivalLane="134193294#0_3" arrivalPos="136.88" arrivalSpeed="14.95" duration="41.00" routeLength="175.26" waitingTime="16.00" waitingCount="2" stopTime="0.00" timeLoss="28.34" rerouteNo="0" devices="tripinfo_flow_route_43_duration_20250327_1920.11" vType="car" speedFactor="0.94" vaporized=""/>
    <tripinfo id="flow_route_46_duration_20250327_1920.1" depart="3.00" departLane="791826085_0" departPos="306.25" departSpeed="0.00" departDelay="0.00" arrival="81.00" arrivalLane="1328664748#0_1" arrivalPos="10.28" arrivalSpeed="7.25" duration="78.00" routeLength="52.82" waitingTime="62.00" waitingCount="1" stopTime="0.00" timeLoss="73.96" rerouteNo="0" devices="tripinfo_flow_route_46_duration_20250327_1920.1" vType="car" speedFactor="1.03" vaporized=""/>
    <tripinfo id="flow_route_43_duration_20250327_1920.6" depart="19.00" departLane="1328664744#0_0" departPos="109.30" departSpeed="0.00" departDelay="2.64" arrival="83.00" arrivalLane="134193294#0_3" arrivalPos="141.61" arrivalSpeed="14.89" duration="64.00" routeLength="272.38" waitingTime="5.00" waitingCount="2" stopTime="0.00" timeLoss="45.95" rerouteNo="0" devices="tripinfo_flow_route_43_duration_20250327_1920.6" vType="car" speedFactor="0.96" vaporized=""/>
    <tripinfo id="flow_route_43_duration_20250327_1920.2" depart="6.00" departLane="1328664744#0_0" departPos="28.70" departSpeed="0.00" departDelay="0.55" arrival="85.00" arrivalLane="134193294#0_3" arrivalPos="131.14" arrivalSpeed="14.41" duration="79.00" routeLength="342.51" waitingTime="4.00" waitingCount="1" stopTime="0.00" timeLoss="54.11" rerouteNo="0" devices="tripinfo_flow_route_43_duration_20250327_1920.2" vType="car" speedFactor="0.88" vaporized=""/>
    <tripinfo id="flow_route_45_duration_20250327_1920.0" depart="0.00" departLane="791826085_0" departPos="152.03" departSpeed="0.00" departDelay="0.00" arrival="87.00" arrivalLane="485211947#0_0" arrivalPos="8.08" arrivalSpeed="6.50" duration="87.00" routeLength="191.81" waitingTime="48.00" waitingCount="1" stopTime="0.00" timeLoss="72.23" rerouteNo="0" devices="tripinfo_flow_route_45_duration_20250327_1920.0" vType="car" speedFactor="0.83" vaporized=""/>
    <tripinfo id="flow_route_44_duration_20250327_1920.2" depart="3.00" departLane="791826085_0" departPos="100.14" departSpeed="0.00" departDelay="0.27" arrival="88.00" arrivalLane="134193294#0_1" arrivalPos="55.23" arrivalSpeed="12.84" duration="85.00" routeLength="309.46" waitingTime="43.00" waitingCount="1" stopTime="0.00" timeLoss="62.80" rerouteNo="0" devices="tripinfo_flow_route_44_duration_20250327_1920.2" vType="car" speedFactor="0.86" vaporized=""/>
    <tripinfo id="flow_route_44_duration_20250327_1920.4" depart="7.00" departLane="791826085_0" departPos="86.12" departSpeed="0.00" departDelay="1.55" arrival="88.00" arrivalLane="134193294#0_1" arrivalPos="27.29" arrivalSpeed="10.96" duration="81.00" routeLength="295.54" waitingTime="41.00" waitingCount="1" stopTime="0.00" timeLoss="61.82" rerouteNo="0" devices="tripinfo_flow_route_44_duration_20250327_1920.4" vType="car" speedFactor="0.94" vaporized=""/>
    <tripinfo id="flow_route_45_duration_20250327_1920.2" depart="7.00" departLane="791826085_0" departPos="314.57" departSpeed="0.00" departDelay="2.72" arrival="89.00" arrivalLane="485211947#0_0" arrivalPos="100.86" arrivalSpeed="12.26" duration="82.00" routeLength="122.05" waitingTime="59.00" waitingCount="1" stopTime="0.00" timeLoss="72.98" rerouteNo="0" devices="tripinfo_flow_route_45_duration_20250327_1920.2" vType="car" speedFactor="0.93" vaporized=""/>
    <tripinfo id="flow_route_44_duration_20250327_1920.0" depart="0.00" departLane="791826085_0" departPos="219.49" departSpeed="0.00" departDelay="0.00" arrival="90.00" arrivalLane="134193294#0_0" arrivalPos="101.20" arrivalSpeed="13.76" duration="90.00" routeLength="236.08" waitingTime="53.00" waitingCount="1" stopTime="0.00" timeLoss="75.61" rerouteNo="0" devices="tripinfo_flow_route_44_duration_20250327_1920.0" vType="car" speedFactor="1.03" vaporized=""/>
    <tripinfo id="flow_route_44_duration_20250327_1920.3" depart="6.00" departLane="791826085_0" departPos="223.42" departSpeed="0.00" departDelay="1.91" arrival="90.00" arrivalLane="134193294#0_0" arrivalPos="68.03" arrivalSpeed="12.48" duration="84.00" routeLength="198.98" waitingTime="49.00" waitingCount="1" stopTime="0.00" timeLoss="71.49" rerouteNo="0" devices="tripinfo_flow_route_44_duration_20250327_1920.3" vType="car" speedFactor="0.99" vaporized=""/>
    <tripinfo id="flow_route_44_duration_20250327_1920.5" depart="7.00" departLane="791826085_0" departPos="54.77" departSpeed="0.00" departDelay="0.19" arrival="90.00" arrivalLane="134193294#0_1" arrivalPos="21.51" arrivalSpeed="10.41" duration="83.00" routeLength="321.10" waitingTime="37.00" waitingCount="1" stopTime="0.00" timeLoss="63.38" rerouteNo="0" devices="tripinfo_flow_route_44_duration_20250327_1920.5" vType="car" speedFactor="1.16" vaporized=""/>
    <tripinfo id="flow_route_44_duration_20250327_1920.1" depart="2.00" departLane="791826085_0" departPos="19.65" departSpeed="0.00" departDelay="0.64" arrival="92.00" arrivalLane="134193294#0_2" arrivalPos="45.37" arrivalSpeed="11.96" duration="90.00" routeLength="380.09" waitingTime="36.00" waitingCount="1" stopTime="0.00" timeLoss="63.74" rerouteNo="0" devices="tripinfo_flow_route_44_duration_20250327_1920.1" vType="car" speedFactor="0.89" vaporized=""/>
    <tripinfo id="flow_route_45_duration_20250327_1920.1" depart="3.00" departLane="791826085_0" departPos="206.60" departSpeed="0.00" departDelay="0.86" arrival="94.00" arrivalLane="485211947#0_0" arrivalPos="126.67" arrivalSpeed="14.99" duration="91.00" routeLength="255.83" waitingTime="49.00" waitingCount="1" stopTime="0.00" timeLoss="74.80" rerouteNo="0" devices="tripinfo_flow_route_45_duration_20250327_1920.1" vType="car" speedFactor="1.09" vaporized=""/>
    <tripinfo id="flow_route_44_duration_20250327_1920.11" depart="32.00" departLane="791826085_0" departPos="277.63" departSpeed="0.00" departDelay="17.01" arrival="95.00" arrivalLane="134193294#0_1" arrivalPos="60.36" arrivalSpeed="13.00" duration="63.00" routeLength="137.09" waitingTime="36.00" waitingCount="1" stopTime="0.00" timeLoss="54.41" rerouteNo="0" devices="tripinfo_flow_route_44_duration_20250327_1920.11" vType="car" speedFactor="1.10" vaporized=""/>
    <tripinfo id="flow_route_45_duration_20250327_1920.3" depart="10.00" departLane="791826085_0" departPos="160.64" departSpeed="0.00" departDelay="3.57" arrival="96.00" arrivalLane="485211947#0_0" arrivalPos="76.22" arrivalSpeed="12.56" duration="86.00" routeLength="251.34" waitingTime="44.00" waitingCount="1" stopTime="0.00" timeLoss="69.37" rerouteNo="0" devices="tripinfo_flow_route_45_duration_20250327_1920.3" vType="car" speedFactor="1.02" vaporized=""/>
    <tripinfo id="flow_route_44_duration_20250327_1920.6" depart="11.00" departLane="791826085_0" departPos="9.08" departSpeed="0.00" departDelay="2.82" arrival="96.00" arrivalLane="134193294#0_2" arrivalPos="15.27" arrivalSpeed="11.80" duration="85.00" routeLength="360.56" waitingTime="33.00" waitingCount="1" stopTime="0.00" timeLoss="62.22" rerouteNo="0" devices="tripinfo_flow_route_44_duration_20250327_1920.6" vType="car" speedFactor="0.97" vaporized=""/>
    <tripinfo id="flow_route_46_duration_20250327_1920.0" depart="1.00" departLane="791826085_0" departPos="184.68" departSpeed="0.00" departDelay="1.00" arrival="97.00" arrivalLane="1328664748#0_1" arrivalPos="165.37" arrivalSpeed="16.29" duration="96.00" routeLength="329.48" waitingTime="53.00" waitingCount="1" stopTime="0.00" timeLoss="74.52" rerouteNo="0" devices="tripinfo_flow_route_46_duration_20250327_1920.0" vType="car" speedFactor="1.05" vaporized=""/>
    <tripinfo id="flow_route_44_duration_20250327_1920.9" depart="26.00" departLane="791826085_0" departPos="193.29" departSpeed="0.00" departDelay="13.73" arrival="97.00" arrivalLane="134193294#0_1" arrivalPos="53.84" arrivalSpeed="13.50" duration="71.00" routeLength="214.92" waitingTime="32.00" waitingCount="1" stopTime="0.00" timeLoss="57.35" rerouteNo="0" devices="tripinfo_flow_route_44_duration_20250327_1920.9" vType="car" speedFactor="1.01" vaporized=""/>
    <tripinfo id="flow_route_45_duration_20250327_1920.7" depart="32.00" departLane="791826085_0" departPos="267.21" departSpeed="0.00" departDelay="17.01" arrival="97.00" arrivalLane="485211947#0_0" arrivalPos="53.74" arrivalSpeed="10.87" duration="65.00" routeLength="122.29" waitingTime="36.00" waitingCount="1" stopTime="0.00" timeLoss="55.60" rerouteNo="0" devices="tripinfo_flow_route_45_duration_20250327_1920.7" vType="car" speedFactor="0.90" vaporized=""/>
    <tripinfo id="flow_route_44_duration_20250327_1920.7" depart="24.00" departLane="791826085_0" departPos="156.55" departSpeed="0.00" departDelay="14.46" arrival="98.00" arrivalLane="134193294#0_1" arrivalPos="52.80" arrivalSpeed="13.24" duration="74.00" routeLength="250.62" waitingTime="31.00" waitingCount="1" stopTime="0.00" timeLoss="58.15" rerouteNo="0" devices="tripinfo_flow_route_44_duration_20250327_1920.7" vType="car" speedFactor="0.95" vaporized=""/>
    <tripinfo id="flow_route_44_duration_20250327_1920.13" depart="35.00" departLane="791826085_0" departPos="119.53" departSpeed="0.00" departDelay="17.28" arrival="98.00" arrivalLane="134193294#0_2" arrivalPos="4.09" arrivalSpeed="11.65" duration="63.00" routeLength="238.93" waitingTime="23.00" waitingCount="1" stopTime="0.00" timeLoss="48.32" rerouteNo="0" devices="tripinfo_flow_route_44_duration_20250327_1920.13" vType="car" speedFactor="1.04" vaporized=""/>
    <tripinfo id="flow_route_46_duration_20250327_1920.5" depart="32.00" departLane="791826085_0" departPos="128.32" departSpeed="0.00" departDelay="17.00" arrival="99.00" arrivalLane="1328664748#0_1" arrivalPos="47.25" arrivalSpeed="13.68" duration="67.00" routeLength="267.72" waitingTime="27.00" waitingCount="1" stopTime="0.00" timeLoss="50.07" rerouteNo="0" devices="tripinfo_flow_route_46_duration_20250327_1920.5" vType="car" speedFactor="1.03" vaporized=""/>
    <tripinfo id="flow_route_45_duration_20250327_1920.8" depart="35.00" departLane="791826085_0" departPos="261.47" departSpeed="0.00" departDelay="17.86" arrival="99.00" arrivalLane="485211947#0_0" arrivalPos="56.09" arrivalSpeed="10.99" duration="64.00" routeLength="130.38" waitingTime="35.00" waitingCount="1" stopTime="0.00" timeLoss="55.14" rerouteNo="0" devices="tripinfo_flow_route_45_duration_20250327_1920.8" vType="car" speedFactor="1.04" vaporized=""/>
    <tripinfo id="flow_route_45_duration_20250327_1920.5" depart="24.00" departLane="791826085_0" departPos="127.41" departSpeed="0.00" departDelay="13.29" arrival="100.00" arrivalLane="485211947#0_0" arrivalPos="28.13" arrivalSpeed="9.59" duration="76.00" routeLength="236.49" waitingTime="34.00" waitingCount="1" stopTime="0.00" timeLoss="60.47" rerouteNo="0" devices="tripinfo_flow_route_45_duration_20250327_1920.5" vType="car" speedFactor="1.18" vaporized=""/>
    <tripinfo id="flow_route_44_duration_20250327_1920.10" depart="30.00" departLane="791826085_0" departPos="214.80" departSpeed="0.00" departDelay="16.37" arrival="100.00" arrivalLane="134193294#0_0" arrivalPos="35.54" arrivalSpeed="12.27" duration="70.00" routeLength="175.11" waitingTime="36.00" waitingCount="1" stopTime="0.00" timeLoss="59.07" rerouteNo="0" devices="tripinfo_flow_route_44_duration_20250327_1920.10" vType="car" speedFactor="1.02" vaporized=""/>
    <tripinfo id="flow_route_46_duration_20250327_1920.6" depart="35.00" departLane="791826085_0" departPos="51.40" departSpeed="0.00" departDelay="17.00" arrival="101.00" arrivalLane="1328664748#0_1" arrivalPos="23.30" arrivalSpeed="12.38" duration="66.00" routeLength="320.69" waitingTime="21.00" waitingCount="1" stopTime="0.00" timeLoss="45.91" rerouteNo="0" devices="tripinfo_flow_route_46_duration_20250327_1920.6" vType="car" speedFactor="1.09" vaporized=""/>
    <tripinfo id="flow_route_46_duration_20250327_1920.2" depart="7.00" departLane="791826085_0" departPos="72.77" departSpeed="0.00" departDelay="1.00" arrival="102.00" arrivalLane="1328664748#0_1" arrivalPos="212.83" arrivalSpeed="15.58" duration="95.00" routeLength="488.85" waitingTime="40.00" waitingCount="1" stopTime="0.00" timeLoss="61.80" rerouteNo="0" devices="tripinfo_flow_route_46_duration_20250327_1920.2" vType="car" speedFactor="0.94" vaporized=""/>
    <tripinfo id="flow_route_46_duration_20250327_1920.7" depart="44.00" departLane="791826085_0" departPos="35.77" departSpeed="0.00" departDelay="23.00" arrival="103.00" arrivalLane="1328664748#0_1" arrivalPos="22.59" arrivalSpeed="11.92" duration="59.00" routeLength="335.61" waitingTime="15.00" waitingCount="1" stopTime="0.00" timeLoss="37.91" rerouteNo="0" devices="tripinfo_flow_route_46_duration_20250327_1920.7" vType="car" speedFactor="1.02" vaporized=""/>
    <tripinfo id="flow_route_44_duration_20250327_1920.8" depart="24.00" departLane="791826085_0" departPos="13.89" departSpeed="0.00" departDelay="13.10" arrival="104.00" arrivalLane="134193294#0_1" arrivalPos="110.07" arrivalSpeed="15.16" duration="80.00" routeLength="450.55" waitingTime="27.00" waitingCount="1" stopTime="0.00" timeLoss="50.35" rerouteNo="0" devices="tripinfo_flow_route_44_duration_20250327_1920.8" vType="car" speedFactor="0.93" vaporized=""/>
    <tripinfo id="flow_route_46_duration_20250327_1920.4" depart="24.00" departLane="791826085_0" departPos="220.25" departSpeed="0.00" departDelay="12.00" arrival="104.00" arrivalLane="1328664748#0_1" arrivalPos="206.49" arrivalSpeed="16.32" duration="80.00" routeLength="335.04" waitingTime="34.00" waitingCount="1" stopTime="0.00" timeLoss="59.39" rerouteNo="0" devices="tripinfo_flow_route_46_duration_20250327_1920.4" vType="car" speedFactor="1.15" vaporized=""/>
    <tripinfo id="flow_route_46_duration_20250327_1920.3" depart="12.00" departLane="791826085_0" departPos="58.37" departSpeed="0.00" departDelay="3.00" arrival="105.00" arrivalLane="1328664748#0_1" arrivalPos="159.20" arrivalSpeed="13.53" duration="93.00" routeLength="449.62" waitingTime="33.00" waitingCount="1" stopTime="0.00" timeLoss="58.55" rerouteNo="0" devices="tripinfo_flow_route_46_duration_20250327_1920.3" vType="car" speedFactor="0.83" vaporized=""/>
    <tripinfo id="flow_route_44_duration_20250327_1920.18" depart="53.00" departLane="791826085_0" departPos="212.99" departSpeed="0.00" departDelay="28.47" arrival="105.00" arrivalLane="134193294#0_1" arrivalPos="59.11" arrivalSpeed="14.84" duration="52.00" routeLength="200.49" waitingTime="17.00" waitingCount="1" stopTime="0.00" timeLoss="39.21" rerouteNo="0" devices="tripinfo_flow_route_44_duration_20250327_1920.18" vType="car" speedFactor="1.02" vaporized=""/>
    <tripinfo id="flow_route_44_duration_20250327_1920.12" depart="35.00" departLane="791826085_0" departPos="145.00" departSpeed="0.00" departDelay="18.64" arrival="106.00" arrivalLane="134193294#0_1" arrivalPos="100.35" arrivalSpeed="16.13" duration="71.00" routeLength="309.73" waitingTime="24.00" waitingCount="1" stopTime="0.00" timeLoss="51.67" rerouteNo="0" devices="tripinfo_flow_route_44_duration_20250327_1920.12" vType="car" speedFactor="1.09" vaporized=""/>
    <tripinfo id="flow_route_44_duration_20250327_1920.17" depart="49.00" departLane="791826085_0" departPos="10.28" departSpeed="0.00" departDelay="25.83" arrival="107.00" arrivalLane="134193294#0_1" arrivalPos="24.21" arrivalSpeed="14.14" duration="58.00" routeLength="368.30" waitingTime="1.00" waitingCount="1" stopTime="0.00" timeLoss="33.28" rerouteNo="0" devices="tripinfo_flow_route_44_duration_20250327_1920.17" vType="car" speedFactor="0.90" vaporized=""/>
    <tripinfo id="flow_route_45_duration_20250327_1920.4" depart="12.00" departLane="791826085_0" departPos="21.84" departSpeed="0.00" departDelay="3.43" arrival="111.00" arrivalLane="485211947#0_0" arrivalPos="123.80" arrivalSpeed="14.33" duration="99.00" routeLength="437.71" waitingTime="34.00" waitingCount="1" stopTime="0.00" timeLoss="68.81" rerouteNo="0" devices="tripinfo_flow_route_45_duration_20250327_1920.4" vType="car" speedFactor="0.89" vaporized=""/>
    <tripinfo id="flow_route_44_duration_20250327_1920.15" depart="40.00" departLane="791826085_0" departPos="11.29" departSpeed="0.00" departDelay="19.56" arrival="111.00" arrivalLane="134193294#0_2" arrivalPos="119.99" arrivalSpeed="16.43" duration="71.00" routeLength="463.07" waitingTime="13.00" waitingCount="1" stopTime="0.00" timeLoss="42.89" rerouteNo="0" devices="tripinfo_flow_route_44_duration_20250327_1920.15" vType="car" speedFactor="1.17" vaporized=""/>
    <tripinfo id="flow_route_45_duration_20250327_1920.10" depart="46.00" departLane="791826085_0" departPos="113.08" departSpeed="0.00" departDelay="24.58" arrival="111.00" arrivalLane="485211947#0_0" arrivalPos="52.10" arrivalSpeed="11.31" duration="65.00" routeLength="274.79" waitingTime="18.00" waitingCount="1" stopTime="0.00" timeLoss="47.39" rerouteNo="0" devices="tripinfo_flow_route_45_duration_20250327_1920.10" vType="car" speedFactor="1.00" vaporized=""/>
    <tripinfo id="flow_route_46_duration_20250327_1920.8" depart="52.00" departLane="791826085_0" departPos="50.09" departSpeed="0.00" departDelay="28.00" arrival="112.00" arrivalLane="1328664748#0_1" arrivalPos="82.68" arrivalSpeed="15.39" duration="60.00" routeLength="381.38" waitingTime="9.00" waitingCount="1" stopTime="0.00" timeLoss="35.49" rerouteNo="0" devices="tripinfo_flow_route_46_duration_20250327_1920.8" vType="car" speedFactor="1.02" vaporized=""/>
    <tripinfo id="flow_route_44_duration_20250327_1920.19" depart="58.00" departLane="791826085_0" departPos="78.46" departSpeed="0.00" departDelay="32.10" arrival="112.00" arrivalLane="134193294#0_1" arrivalPos="65.09" arrivalSpeed="15.97" duration="54.00" routeLength="341.00" waitingTime="0.00" waitingCount="0" stopTime="0.00" timeLoss="32.94" rerouteNo="0" devices="tripinfo_flow_route_44_duration_20250327_1920.19" vType="car" speedFactor="0.99" vaporized=""/>
    <tripinfo id="flow_route_45_duration_20250327_1920.6" depart="28.00" departLane="791826085_0" departPos="4.77" departSpeed="0.00" departDelay="15.15" arrival="113.00" arrivalLane="485211947#0_0" arrivalPos="62.82" arrivalSpeed="11.44" duration="85.00" routeLength="393.81" waitingTime="19.00" waitingCount="1" stopTime="0.00" timeLoss="60.40" rerouteNo="0" devices="tripinfo_flow_route_45_duration_20250327_1920.6" vType="car" speedFactor="1.17" vaporized=""/>
    <tripinfo id="flow_route_44_duration_20250327_1920.14" depart="39.00" departLane="791826085_0" departPos="71.95" departSpeed="0.00" departDelay="19.92" arrival="113.00" arrivalLane="134193294#0_1" arrivalPos="149.90" arrivalSpeed="14.11" duration="74.00" routeLength="432.32" waitingTime="15.00" waitingCount="1" stopTime="0.00" timeLoss="43.02" rerouteNo="0" devices="tripinfo_flow_route_44_duration_20250327_1920.14" vType="car" speedFactor="0.85" vaporized=""/>
    <tripinfo id="flow_route_45_duration_20250327_1920.9" depart="40.00" departLane="791826085_0" departPos="185.76" departSpeed="0.00" departDelay="20.72" arrival="113.00" arrivalLane="485211947#0_0" arrivalPos="106.29" arrivalSpeed="13.87" duration="73.00" routeLength="256.29" waitingTime="28.00" waitingCount="1" stopTime="0.00" timeLoss="53.60" rerouteNo="0" devices="tripinfo_flow_route_45_duration_20250327_1920.9" vType="car" speedFactor="0.85" vaporized=""/>
    <tripinfo id="flow_route_44_duration_20250327_1920.23" depart="75.00" departLane="791826085_0" departPos="81.34" departSpeed="0.00" departDelay="43.65" arrival="113.00" arrivalLane="134193294#0_1" arrivalPos="19.61" arrivalSpeed="15.03" duration="38.00" routeLength="292.64" waitingTime="0.00" waitingCount="0" stopTime="0.00" timeLoss="19.59" rerouteNo="0" devices="tripinfo_flow_route_44_duration_20250327_1920.23" vType="car" speedFactor="1.03" vaporized=""/>
    <tripinfo id="flow_route_44_duration_20250327_1920.16" depart="46.00" departLane="791826085_0" departPos="61.31" departSpeed="0.00" departDelay="24.19" arrival="114.00" arrivalLane="134193294#0_1" arrivalPos="133.97" arrivalSpeed="15.18" duration="68.00" routeLength="427.03" waitingTime="10.00" waitingCount="1" stopTime="0.00" timeLoss="41.37" rerouteNo="0" devices="tripinfo_flow_route_44_duration_20250327_1920.16" vType="car" speedFactor="1.00" vaporized=""/>
    <tripinfo id="flow_route_38_duration_20250327_1920.3" depart="17.00" departLane="133126030#0_0" departPos="67.66" departSpeed="0.00" departDelay="2.00" arrival="119.00" arrivalLane="134193294#0_0" arrivalPos="13.72" arrivalSpeed="6.19" duration="102.00" routeLength="140.94" waitingTime="75.00" waitingCount="1" stopTime="0.00" timeLoss="92.46" rerouteNo="0" devices="tripinfo_flow_route_38_duration_20250327_1920.3" vType="car" speedFactor="0.97" vaporized=""/>
    <tripinfo id="flow_route_44_duration_20250327_1920.24" depart="83.00" departLane="791826085_0" departPos="194.38" departSpeed="0.00" departDelay="50.29" arrival="120.00" arrivalLane="134193294#0_1" arrivalPos="160.59" arrivalSpeed="16.25" duration="37.00" routeLength="320.58" waitingTime="0.00" waitingCount="0" stopTime="0.00" timeLoss="17.00" rerouteNo="0" devices="tripinfo_flow_route_44_duration_20250327_1920.24" vType="car" speedFactor="1.01" vaporized=""/>
    <tripinfo id="flow_route_45_duration_20250327_1920.12" depart="63.00" departLane="791826085_0" departPos="186.03" departSpeed="0.00" departDelay="37.30" arrival="121.00" arrivalLane="485211947#0_0" arrivalPos="126.15" arrivalSpeed="14.60" duration="58.00" routeLength="275.89" waitingTime="12.00" waitingCount="1" stopTime="0.00" timeLoss="38.90" rerouteNo="0" devices="tripinfo_flow_route_45_duration_20250327_1920.12" vType="car" speedFactor="0.94" vaporized=""/>
    <tripinfo id="flow_route_44_duration_20250327_1920.20" depart="67.00" departLane="791826085_0" departPos="5.35" departSpeed="0.00" departDelay="39.74" arrival="122.00" arrivalLane="134193294#0_2" arrivalPos="162.07" arrivalSpeed="15.12" duration="55.00" routeLength="511.09" waitingTime="0.00" waitingCount="0" stopTime="0.00" timeLoss="21.27" rerouteNo="0" devices="tripinfo_flow_route_44_duration_20250327_1920.20" vType="car" speedFactor="0.91" vaporized=""/>
    <tripinfo id="flow_route_46_duration_20250327_1920.9" depart="63.00" departLane="791826085_0" departPos="106.82" departSpeed="0.00" departDelay="36.00" arrival="123.00" arrivalLane="1328664748#0_1" arrivalPos="190.58" arrivalSpeed="14.48" duration="60.00" routeLength="432.55" waitingTime="5.00" waitingCount="1" stopTime="0.00" timeLoss="29.30" rerouteNo="0" devices="tripinfo_flow_route_46_duration_20250327_1920.9" vType="car" speedFactor="0.88" vaporized=""/>
    <tripinfo id="flow_route_38_duration_20250327_1920.4" depart="20.00" departLane="133126030#0_0" departPos="54.91" departSpeed="0.00" departDelay="0.00" arrival="130.00" arrivalLane="134193294#0_0" arrivalPos="72.92" arrivalSpeed="11.73" duration="110.00" routeLength="212.90" waitingTime="72.00" waitingCount="2" stopTime="0.00" timeLoss="95.91" rerouteNo="0" devices="tripinfo_flow_route_38_duration_20250327_1920.4" vType="car" speedFactor="1.00" vaporized=""/>
    <tripinfo id="flow_route_38_duration_20250327_1920.7" depart="35.00" departLane="133126030#0_0" departPos="23.99" departSpeed="0.00" departDelay="0.00" arrival="132.00" arrivalLane="134193294#0_0" arrivalPos="26.30" arrivalSpeed="9.41" duration="97.00" routeLength="197.19" waitingTime="60.00" waitingCount="1" stopTime="0.00" timeLoss="83.66" rerouteNo="0" devices="tripinfo_flow_route_38_duration_20250327_1920.7" vType="car" speedFactor="1.00" vaporized=""/>
    <tripinfo id="flow_route_38_duration_20250327_1920.2" depart="10.00" departLane="133126030#0_0" departPos="31.20" departSpeed="0.00" departDelay="0.00" arrival="134.00" arrivalLane="134193294#0_0" arrivalPos="160.40" arrivalSpeed="14.12" duration="124.00" routeLength="324.08" waitingTime="73.00" waitingCount="1" stopTime="0.00" timeLoss="100.70" rerouteNo="0" devices="tripinfo_flow_route_38_duration_20250327_1920.2" vType="car" speedFactor="0.87" vaporized=""/>
    <tripinfo id="flow_route_38_duration_20250327_1920.6" depart="30.00" departLane="133126030#0_0" departPos="2.16" departSpeed="0.00" departDelay="0.00" arrival="135.00" arrivalLane="134193294#0_0" arrivalPos="28.73" arrivalSpeed="9.23" duration="105.00" routeLength="221.45" waitingTime="60.00" waitingCount="1" stopTime="0.00" timeLoss="90.05" rerouteNo="0" devices="tripinfo_flow_route_38_duration_20250327_1920.6" vType="car" speedFactor="1.02" vaporized=""/>