<?xml version="1.0" encoding="UTF-8"?>

<!-- generated on 2025-05-06 21:08:23 by Eclipse SUMO sumo Version 1.20.0
<configuration xmlns:xsi="http://www.w3.org/2001/XMLSchema-instance" xsi:noNamespaceSchemaLocation="http://sumo.dlr.de/xsd/sumoConfiguration.xsd">

    <input>
        <net-file value="osm.net.xml"/>
        <route-files value="xml/route_rl_cluster_2271368471_4779869278_4.rou.xml"/>
    </input>

    <output>
        <tripinfo-output value="xml/tripinfo_rl_cluster_2271368471_4779869278_4.xml"/>
    </output>

    <traci_server>
        <remote-port value="40671"/>
    </traci_server>

</configuration>
-->

<tripinfos xmlns:xsi="http://www.w3.org/2001/XMLSchema-instance" xsi:noNamespaceSchemaLocation="http://sumo.dlr.de/xsd/tripinfo_file.xsd">
    <tripinfo id="flow_route_36_duration_20250327_2200.0" depart="0.00" departLane="485211947#0_0" departPos="162.24" departSpeed="0.00" departDelay="0.00" arrival="23.00" arrivalLane="137415945#0_0" arrivalPos="6.94" arrivalSpeed="15.19" duration="23.00" routeLength="189.23" waitingTime="0.00" waitingCount="0" stopTime="0.00" timeLoss="10.24" rerouteNo="0" devices="tripinfo_flow_route_36_duration_20250327_2200.0" vType="car" speedFactor="0.94" vaporized=""/>
    <tripinfo id="flow_route_35_duration_20250327_2200.0" depart="0.00" departLane="485211947#0_0" departPos="11.17" departSpeed="0.00" departDelay="0.00" arrival="33.00" arrivalLane="1369578054_0" arrivalPos="74.16" arrivalSpeed="12.84" duration="33.00" routeLength="260.46" waitingTime="0.00" waitingCount="0" stopTime="0.00" timeLoss="13.70" rerouteNo="0" devices="tripinfo_flow_route_35_duration_20250327_2200.0" vType="car" speedFactor="0.89" vaporized=""/>
    <tripinfo id="flow_route_37_duration_20250327_2200.0" depart="0.00" departLane="485211947#0_0" departPos="59.66" departSpeed="0.00" departDelay="0.00" arrival="33.00" arrivalLane="-430406005#1_1" arrivalPos="133.07" arrivalSpeed="16.05" duration="33.00" routeLength="286.39" waitingTime="0.00" waitingCount="0" stopTime="0.00" timeLoss="12.84" rerouteNo="0" devices="tripinfo_flow_route_37_duration_20250327_2200.0" vType="car" speedFactor="0.86" vaporized=""/>
    <tripinfo id="flow_route_30_duration_20250327_2200.0" depart="0.00" departLane="1235147073.116_0" departPos="7.14" departSpeed="0.00" departDelay="0.00" arrival="47.00" arrivalLane="133126030#0_0" arrivalPos="8.43" arrivalSpeed="7.41" duration="47.00" routeLength="175.81" waitingTime="17.00" waitingCount="1" stopTime="0.00" timeLoss="36.11" rerouteNo="0" devices="tripinfo_flow_route_30_duration_20250327_2200.0" vType="car" speedFactor="1.01" vaporized=""/>
    <tripinfo id="flow_route_31_duration_20250327_2200.0" depart="2.00" departLane="1235147073.116_0" departPos="0.71" departSpeed="0.00" departDelay="2.00" arrival="55.00" arrivalLane="-430406005#1_0" arrivalPos="87.77" arrivalSpeed="12.85" duration="53.00" routeLength="250.02" waitingTime="15.00" waitingCount="1" stopTime="0.00" timeLoss="37.27" rerouteNo="0" devices="tripinfo_flow_route_31_duration_20250327_2200.0" vType="car" speedFactor="1.08" vaporized=""/>
    <tripinfo id="flow_route_32_duration_20250327_2200.1" depart="15.00" departLane="1235147073.116_0" departPos="4.62" departSpeed="0.00" departDelay="0.00" arrival="55.00" arrivalLane="1369578054_1" arrivalPos="70.93" arrivalSpeed="11.62" duration="40.00" routeLength="246.04" waitingTime="3.00" waitingCount="1" stopTime="0.00" timeLoss="24.37" rerouteNo="0" devices="tripinfo_flow_route_32_duration_20250327_2200.1" vType="car" speedFactor="1.03" vaporized=""/>
    <tripinfo id="flow_route_30_duration_20250327_2200.1" depart="30.00" departLane="1235147073.116_0" departPos="3.42" departSpeed="0.00" departDelay="0.00" arrival="59.00" arrivalLane="133126030#0_0" arrivalPos="126.94" arrivalSpeed="15.38" duration="29.00" routeLength="298.04" waitingTime="0.00" waitingCount="0" stopTime="0.00" timeLoss="9.19" rerouteNo="0" devices="tripinfo_flow_route_30_duration_20250327_2200.1" vType="car" speedFactor="0.93" vaporized=""/>
    <tripinfo id="flow_route_32_duration_20250327_2200.0" depart="8.00" departLane="1235147073.116_0" departPos="6.07" departSpeed="0.00" departDelay="8.00" arrival="60.00" arrivalLane="1369578054_1" arrivalPos="176.77" arrivalSpeed="16.55" duration="52.00" routeLength="350.43" waitingTime="9.00" waitingCount="1" stopTime="0.00" timeLoss="29.59" rerouteNo="0" devices="tripinfo_flow_route_32_duration_20250327_2200.0" vType="car" speedFactor="1.03" vaporized=""/>
    <tripinfo id="flow_route_31_duration_20250327_2200.1" depart="36.00" departLane="1235147073.116_0" departPos="10.59" departSpeed="0.00" departDelay="6.00" arrival="65.00" arrivalLane="-430406005#1_0" arrivalPos="59.17" arrivalSpeed="11.41" duration="29.00" routeLength="211.54" waitingTime="0.00" waitingCount="0" stopTime="0.00" timeLoss="13.78" rerouteNo="0" devices="tripinfo_flow_route_31_duration_20250327_2200.1" vType="car" speedFactor="0.88" vaporized=""/>
    <tripinfo id="flow_route_32_duration_20250327_2200.2" depart="38.00" departLane="1235147073.116_0" departPos="4.71" departSpeed="0.00" departDelay="8.00" arrival="67.00" arrivalLane="1369578054_1" arrivalPos="38.77" arrivalSpeed="12.76" duration="29.00" routeLength="213.78" waitingTime="1.00" waitingCount="1" stopTime="0.00" timeLoss="14.07" rerouteNo="0" devices="tripinfo_flow_route_32_duration_20250327_2200.2" vType="car" speedFactor="0.94" vaporized=""/>
    <tripinfo id="flow_route_33_duration_20250327_2200.0" depart="0.00" departLane="133126008#0_0" departPos="101.07" departSpeed="0.00" departDelay="0.00" arrival="84.00" arrivalLane="1369578054_0" arrivalPos="13.07" arrivalSpeed="8.31" duration="84.00" routeLength="125.36" waitingTime="57.00" waitingCount="1" stopTime="0.00" timeLoss="76.18" rerouteNo="0" devices="tripinfo_flow_route_33_duration_20250327_2200.0" vType="car" speedFactor="0.83" vaporized=""/>
    <tripinfo id="flow_route_33_duration_20250327_2200.1" depart="30.00" departLane="133126008#0_0" departPos="102.02" departSpeed="0.00" departDelay="0.00" arrival="87.00" arrivalLane="1369578054_0" arrivalPos="37.57" arrivalSpeed="10.55" duration="57.00" routeLength="148.91" waitingTime="27.00" waitingCount="1" stopTime="0.00" timeLoss="47.48" rerouteNo="0" devices="tripinfo_flow_route_33_duration_20250327_2200.1" vType="car" speedFactor="0.94" vaporized=""/>
    <tripinfo id="flow_route_32_duration_20250327_2200.3" depart="45.00" departLane="1235147073.116_0" departPos="9.82" departSpeed="0.00" departDelay="0.00" arrival="87.00" arrivalLane="1369578054_1" arrivalPos="286.13" arrivalSpeed="16.18" duration="42.00" routeLength="456.03" waitingTime="0.00" waitingCount="0" stopTime="0.00" timeLoss="12.88" rerouteNo="0" devices="tripinfo_flow_route_32_duration_20250327_2200.3" vType="car" speedFactor="0.97" vaporized=""/>
    <tripinfo id="flow_route_28_duration_20250327_2200.3" depart="45.00" departLane="-422986370#2_0" departPos="54.92" departSpeed="0.00" departDelay="0.00" arrival="90.00" arrivalLane="-430406005#1_1" arrivalPos="30.07" arrivalSpeed="10.50" duration="45.00" routeLength="309.58" waitingTime="2.00" waitingCount="1" stopTime="0.00" timeLoss="26.21" rerouteNo="0" devices="tripinfo_flow_route_28_duration_20250327_2200.3" vType="car" speedFactor="1.01" vaporized=""/>
    <tripinfo id="flow_route_34_duration_20250327_2200.1" depart="30.00" departLane="133126008#0_0" departPos="43.08" departSpeed="0.00" departDelay="0.00" arrival="92.00" arrivalLane="133126030#0_0" arrivalPos="76.22" arrivalSpeed="12.14" duration="62.00" routeLength="220.66" waitingTime="26.00" waitingCount="1" stopTime="0.00" timeLoss="47.65" rerouteNo="0" devices="tripinfo_flow_route_34_duration_20250327_2200.1" vType="car" speedFactor="1.16" vaporized=""/>
    <tripinfo id="flow_route_29_duration_20250327_2200.0" depart="0.00" departLane="-422986370#2_0" departPos="201.60" departSpeed="0.00" departDelay="0.00" arrival="93.00" arrivalLane="137415945#0_0" arrivalPos="9.07" arrivalSpeed="15.60" duration="93.00" routeLength="253.29" waitingTime="55.00" waitingCount="1" stopTime="0.00" timeLoss="75.18" rerouteNo="0" devices="tripinfo_flow_route_29_duration_20250327_2200.0" vType="car" speedFactor="0.94" vaporized=""/>
    <tripinfo id="flow_route_28_duration_20250327_2200.1" depart="15.00" departLane="-422986370#2_0" departPos="9.71" departSpeed="0.00" departDelay="0.00" arrival="94.00" arrivalLane="-430406005#1_1" arrivalPos="97.21" arrivalSpeed="13.73" duration="79.00" routeLength="421.93" waitingTime="28.00" waitingCount="1" stopTime="0.00" timeLoss="53.19" rerouteNo="0" devices="tripinfo_flow_route_28_duration_20250327_2200.1" vType="car" speedFactor="1.09" vaporized=""/>
    <tripinfo id="flow_route_34_duration_20250327_2200.0" depart="0.00" departLane="133126008#0_0" departPos="47.21" departSpeed="0.00" departDelay="0.00" arrival="95.00" arrivalLane="133126030#0_0" arrivalPos="137.72" arrivalSpeed="15.47" duration="95.00" routeLength="278.03" waitingTime="54.00" waitingCount="1" stopTime="0.00" timeLoss="76.74" rerouteNo="0" devices="tripinfo_flow_route_34_duration_20250327_2200.0" vType="car" speedFactor="1.05" vaporized=""/>
    <tripinfo id="flow_route_28_duration_20250327_2200.0" depart="0.00" departLane="-422986370#2_0" departPos="1.81" departSpeed="0.00" departDelay="0.00" arrival="96.00" arrivalLane="-430406005#1_1" arrivalPos="159.13" arrivalSpeed="16.36" duration="96.00" routeLength="491.75" waitingTime="43.00" waitingCount="1" stopTime="0.00" timeLoss="65.91" rerouteNo="0" devices="tripinfo_flow_route_28_duration_20250327_2200.0" vType="car" speedFactor="1.06" vaporized=""/>
    <tripinfo id="flow_route_29_duration_20250327_2200.1" depart="30.00" departLane="-422986370#2_0" departPos="79.10" departSpeed="0.00" departDelay="0.00" arrival="97.00" arrivalLane="137415945#0_0" arrivalPos="0.38" arrivalSpeed="14.63" duration="67.00" routeLength="367.10" waitingTime="20.00" waitingCount="1" stopTime="0.00" timeLoss="43.17" rerouteNo="0" devices="tripinfo_flow_route_29_duration_20250327_2200.1" vType="car" speedFactor="0.99" vaporized=""/>
    <tripinfo id="flow_route_28_duration_20250327_2200.2" depart="30.00" departLane="-422986370#2_0" departPos="288.93" departSpeed="0.00" departDelay="0.00" arrival="98.00" arrivalLane="-430406005#1_0" arrivalPos="170.84" arrivalSpeed="16.41" duration="68.00" routeLength="216.34" waitingTime="41.00" waitingCount="1" stopTime="0.00" timeLoss="54.05" rerouteNo="0" devices="tripinfo_flow_route_28_duration_20250327_2200.2" vType="car" speedFactor="1.12" vaporized=""/>
    <tripinfo id="flow_route_35_duration_20250327_2200.2" depart="40.00" departLane="485211947#0_0" departPos="107.48" departSpeed="0.00" departDelay="0.00" arrival="132.00" arrivalLane="1369578054_0" arrivalPos="147.59" arrivalSpeed="16.12" duration="92.00" routeLength="237.57" waitingTime="56.00" waitingCount="1" stopTime="0.00" timeLoss="76.60" rerouteNo="0" devices="tripinfo_flow_route_35_duration_20250327_2200.2" vType="car" speedFactor="1.02" vaporized=""/>
    <tripinfo id="flow_route_35_duration_20250327_2200.1" depart="20.00" departLane="485211947#0_0" departPos="29.48" departSpeed="0.00" departDelay="0.00" arrival="135.00" arrivalLane="1369578054_0" arrivalPos="229.08" arrivalSpeed="16.52" duration="115.00" routeLength="397.05" waitingTime="65.00" waitingCount="1" stopTime="0.00" timeLoss="89.98" rerouteNo="0" devices="tripinfo_flow_route_35_duration_20250327_2200.1" vType="car" speedFactor="1.05" vaporized=""/>
</tripinfos>
