<?xml version="1.0" encoding="UTF-8"?>

<!-- generated on 2025-05-06 21:08:33 by Eclipse SUMO sumo Version 1.20.0
<configuration xmlns:xsi="http://www.w3.org/2001/XMLSchema-instance" xsi:noNamespaceSchemaLocation="http://sumo.dlr.de/xsd/sumoConfiguration.xsd">

    <input>
        <net-file value="osm.net.xml"/>
        <route-files value="xml/route_rl_cluster_2271368471_4779869278_5.rou.xml"/>
    </input>

    <output>
        <tripinfo-output value="xml/tripinfo_rl_cluster_2271368471_4779869278_5.xml"/>
    </output>

    <traci_server>
        <remote-port value="43839"/>
    </traci_server>

</configuration>
-->

<tripinfos xmlns:xsi="http://www.w3.org/2001/XMLSchema-instance" xsi:noNamespaceSchemaLocation="http://sumo.dlr.de/xsd/tripinfo_file.xsd">
    <tripinfo id="flow_route_36_duration_20250327_2100.0" depart="0.00" departLane="485211947#0_0" departPos="162.24" departSpeed="0.00" departDelay="0.00" arrival="23.00" arrivalLane="137415945#0_0" arrivalPos="6.94" arrivalSpeed="15.63" duration="23.00" routeLength="189.23" waitingTime="0.00" waitingCount="0" stopTime="0.00" timeLoss="10.54" rerouteNo="0" devices="tripinfo_flow_route_36_duration_20250327_2100.0" vType="car" speedFactor="0.94" vaporized=""/>
    <tripinfo id="flow_route_35_duration_20250327_2100.1" depart="3.00" departLane="485211947#0_0" departPos="152.74" departSpeed="0.00" departDelay="0.27" arrival="29.00" arrivalLane="1369578054_0" arrivalPos="189.81" arrivalSpeed="16.34" duration="26.00" routeLength="234.54" waitingTime="0.00" waitingCount="0" stopTime="0.00" timeLoss="10.89" rerouteNo="0" devices="tripinfo_flow_route_35_duration_20250327_2100.1" vType="car" speedFactor="1.03" vaporized=""/>
    <tripinfo id="flow_route_37_duration_20250327_2100.1" depart="6.00" departLane="485211947#0_0" departPos="61.39" departSpeed="0.00" departDelay="0.55" arrival="31.00" arrivalLane="-430406005#1_1" arrivalPos="28.41" arrivalSpeed="10.19" duration="25.00" routeLength="180.01" waitingTime="0.00" waitingCount="0" stopTime="0.00" timeLoss="11.79" rerouteNo="0" devices="tripinfo_flow_route_37_duration_20250327_2100.1" vType="car" speedFactor="0.88" vaporized=""/>
    <tripinfo id="flow_route_37_duration_20250327_2100.0" depart="0.00" departLane="485211947#0_0" departPos="59.66" departSpeed="0.00" departDelay="0.00" arrival="33.00" arrivalLane="-430406005#1_1" arrivalPos="133.07" arrivalSpeed="16.32" duration="33.00" routeLength="286.39" waitingTime="0.00" waitingCount="0" stopTime="0.00" timeLoss="12.72" rerouteNo="0" devices="tripinfo_flow_route_37_duration_20250327_2100.0" vType="car" speedFactor="0.86" vaporized=""/>
    <tripinfo id="flow_route_36_duration_20250327_2100.1" depart="5.00" departLane="485211947#0_0" departPos="43.86" departSpeed="0.00" departDelay="0.72" arrival="35.00" arrivalLane="137415945#0_1" arrivalPos="5.05" arrivalSpeed="16.50" duration="30.00" routeLength="305.72" waitingTime="0.00" waitingCount="0" stopTime="0.00" timeLoss="11.22" rerouteNo="0" devices="tripinfo_flow_route_36_duration_20250327_2100.1" vType="car" speedFactor="1.05" vaporized=""/>
    <tripinfo id="flow_route_35_duration_20250327_2100.3" depart="11.00" departLane="485211947#0_0" departPos="118.89" departSpeed="0.00" departDelay="2.82" arrival="37.00" arrivalLane="1369578054_0" arrivalPos="72.33" arrivalSpeed="12.47" duration="26.00" routeLength="150.90" waitingTime="0.00" waitingCount="0" stopTime="0.00" timeLoss="15.65" rerouteNo="0" devices="tripinfo_flow_route_35_duration_20250327_2100.3" vType="car" speedFactor="1.01" vaporized=""/>
    <tripinfo id="flow_route_35_duration_20250327_2100.2" depart="6.00" departLane="485211947#0_0" departPos="126.94" departSpeed="0.00" departDelay="0.55" arrival="39.00" arrivalLane="1369578054_0" arrivalPos="229.08" arrivalSpeed="15.20" duration="33.00" routeLength="299.60" waitingTime="0.00" waitingCount="0" stopTime="0.00" timeLoss="11.95" rerouteNo="0" devices="tripinfo_flow_route_35_duration_20250327_2100.2" vType="car" speedFactor="0.93" vaporized=""/>
    <tripinfo id="flow_route_35_duration_20250327_2100.0" depart="0.00" departLane="485211947#0_0" departPos="11.17" departSpeed="0.00" departDelay="0.00" arrival="42.00" arrivalLane="1369578054_0" arrivalPos="74.16" arrivalSpeed="12.89" duration="42.00" routeLength="260.46" waitingTime="0.00" waitingCount="0" stopTime="0.00" timeLoss="22.62" rerouteNo="0" devices="tripinfo_flow_route_35_duration_20250327_2100.0" vType="car" speedFactor="0.89" vaporized=""/>
    <tripinfo id="flow_route_36_duration_20250327_2100.3" depart="16.00" departLane="485211947#0_0" departPos="113.97" departSpeed="0.00" departDelay="3.15" arrival="42.00" arrivalLane="137415945#0_0" arrivalPos="12.63" arrivalSpeed="16.15" duration="26.00" routeLength="243.19" waitingTime="0.00" waitingCount="0" stopTime="0.00" timeLoss="10.73" rerouteNo="0" devices="tripinfo_flow_route_36_duration_20250327_2100.3" vType="car" speedFactor="1.13" vaporized=""/>
    <tripinfo id="flow_route_36_duration_20250327_2100.2" depart="11.00" departLane="485211947#0_0" departPos="28.13" departSpeed="0.00" departDelay="2.43" arrival="44.00" arrivalLane="137415945#0_1" arrivalPos="10.33" arrivalSpeed="16.03" duration="33.00" routeLength="326.73" waitingTime="0.00" waitingCount="0" stopTime="0.00" timeLoss="11.97" rerouteNo="0" devices="tripinfo_flow_route_36_duration_20250327_2100.2" vType="car" speedFactor="0.97" vaporized=""/>
    <tripinfo id="flow_route_35_duration_20250327_2100.6" depart="18.00" departLane="485211947#0_0" departPos="171.38" departSpeed="0.00" departDelay="1.64" arrival="46.00" arrivalLane="1369578054_0" arrivalPos="247.36" arrivalSpeed="16.49" duration="28.00" routeLength="273.45" waitingTime="0.00" waitingCount="0" stopTime="0.00" timeLoss="10.60" rerouteNo="0" devices="tripinfo_flow_route_35_duration_20250327_2100.6" vType="car" speedFactor="0.99" vaporized=""/>
    <tripinfo id="flow_route_30_duration_20250327_2100.0" depart="0.00" departLane="1235147073.116_0" departPos="7.14" departSpeed="0.00" departDelay="0.00" arrival="47.00" arrivalLane="133126030#0_0" arrivalPos="8.43" arrivalSpeed="7.22" duration="47.00" routeLength="175.81" waitingTime="17.00" waitingCount="1" stopTime="0.00" timeLoss="36.14" rerouteNo="0" devices="tripinfo_flow_route_30_duration_20250327_2100.0" vType="car" speedFactor="1.01" vaporized=""/>
    <tripinfo id="flow_route_37_duration_20250327_2100.2" depart="15.00" departLane="485211947#0_0" departPos="53.74" departSpeed="0.00" departDelay="4.09" arrival="47.00" arrivalLane="-430406005#1_1" arrivalPos="103.59" arrivalSpeed="15.18" duration="32.00" routeLength="262.83" waitingTime="0.00" waitingCount="0" stopTime="0.00" timeLoss="13.47" rerouteNo="0" devices="tripinfo_flow_route_37_duration_20250327_2100.2" vType="car" speedFactor="0.92" vaporized=""/>
    <tripinfo id="flow_route_32_duration_20250327_2100.2" depart="11.00" departLane="1235147073.116_0" departPos="14.62" departSpeed="0.00" departDelay="5.55" arrival="49.00" arrivalLane="1369578054_1" arrivalPos="9.71" arrivalSpeed="8.02" duration="38.00" routeLength="174.82" waitingTime="7.00" waitingCount="1" stopTime="0.00" timeLoss="26.91" rerouteNo="0" devices="tripinfo_flow_route_32_duration_20250327_2100.2" vType="car" speedFactor="1.12" vaporized=""/>
    <tripinfo id="flow_route_30_duration_20250327_2100.1" depart="15.00" departLane="1235147073.116_0" departPos="11.05" departSpeed="0.00" departDelay="6.43" arrival="49.00" arrivalLane="133126030#0_1" arrivalPos="31.12" arrivalSpeed="9.37" duration="34.00" routeLength="194.59" waitingTime="0.00" waitingCount="0" stopTime="0.00" timeLoss="22.03" rerouteNo="0" devices="tripinfo_flow_route_30_duration_20250327_2100.1" vType="car" speedFactor="1.16" vaporized=""/>
    <tripinfo id="flow_route_35_duration_20250327_2100.5" depart="17.00" departLane="485211947#0_0" departPos="67.66" departSpeed="0.00" departDelay="3.37" arrival="50.00" arrivalLane="1369578054_0" arrivalPos="169.94" arrivalSpeed="16.45" duration="33.00" routeLength="299.74" waitingTime="0.00" waitingCount="0" stopTime="0.00" timeLoss="13.54" rerouteNo="0" devices="tripinfo_flow_route_35_duration_20250327_2100.5" vType="car" speedFactor="1.18" vaporized=""/>
    <tripinfo id="flow_route_31_duration_20250327_2100.1" depart="28.00" departLane="1235147073.116_0" departPos="7.20" departSpeed="0.00" departDelay="13.00" arrival="51.00" arrivalLane="-430406005#1_0" arrivalPos="14.29" arrivalSpeed="8.83" duration="23.00" routeLength="170.05" waitingTime="0.00" waitingCount="0" stopTime="0.00" timeLoss="11.97" rerouteNo="0" devices="tripinfo_flow_route_31_duration_20250327_2100.1" vType="car" speedFactor="1.01" vaporized=""/>
    <tripinfo id="flow_route_31_duration_20250327_2100.0" depart="2.00" departLane="1235147073.116_0" departPos="0.71" departSpeed="0.00" departDelay="2.00" arrival="55.00" arrivalLane="-430406005#1_0" arrivalPos="87.77" arrivalSpeed="12.70" duration="53.00" routeLength="250.02" waitingTime="15.00" waitingCount="1" stopTime="0.00" timeLoss="37.11" rerouteNo="0" devices="tripinfo_flow_route_31_duration_20250327_2100.0" vType="car" speedFactor="1.08" vaporized=""/>
    <tripinfo id="flow_route_32_duration_20250327_2100.1" depart="11.00" departLane="1235147073.116_0" departPos="2.58" departSpeed="0.00" departDelay="8.27" arrival="58.00" arrivalLane="1369578054_1" arrivalPos="92.01" arrivalSpeed="14.42" duration="47.00" routeLength="269.16" waitingTime="6.00" waitingCount="1" stopTime="0.00" timeLoss="29.91" rerouteNo="0" devices="tripinfo_flow_route_32_duration_20250327_2100.1" vType="car" speedFactor="1.09" vaporized=""/>
    <tripinfo id="flow_route_32_duration_20250327_2100.5" depart="26.00" departLane="1235147073.116_0" departPos="12.57" departSpeed="0.00" departDelay="12.37" arrival="59.00" arrivalLane="1369578054_1" arrivalPos="25.77" arrivalSpeed="10.65" duration="33.00" routeLength="192.93" waitingTime="0.00" waitingCount="0" stopTime="0.00" timeLoss="19.61" rerouteNo="0" devices="tripinfo_flow_route_32_duration_20250327_2100.5" vType="car" speedFactor="0.93" vaporized=""/>
    <tripinfo id="flow_route_30_duration_20250327_2100.2" depart="33.00" departLane="1235147073.116_0" departPos="1.98" departSpeed="0.00" departDelay="15.86" arrival="59.00" arrivalLane="133126030#0_0" arrivalPos="56.09" arrivalSpeed="16.14" duration="26.00" routeLength="228.63" waitingTime="0.00" waitingCount="0" stopTime="0.00" timeLoss="11.43" rerouteNo="0" devices="tripinfo_flow_route_30_duration_20250327_2100.2" vType="car" speedFactor="1.18" vaporized=""/>
    <tripinfo id="flow_route_32_duration_20250327_2100.0" depart="7.00" departLane="1235147073.116_0" departPos="1.98" departSpeed="0.00" departDelay="7.00" arrival="60.00" arrivalLane="1369578054_1" arrivalPos="176.77" arrivalSpeed="16.35" duration="53.00" routeLength="354.52" waitingTime="9.00" waitingCount="1" stopTime="0.00" timeLoss="30.93" rerouteNo="0" devices="tripinfo_flow_route_32_duration_20250327_2100.0" vType="car" speedFactor="1.03" vaporized=""/>
    <tripinfo id="flow_route_32_duration_20250327_2100.4" depart="22.00" departLane="1235147073.116_0" departPos="7.35" departSpeed="0.00" departDelay="11.09" arrival="63.00" arrivalLane="1369578054_1" arrivalPos="92.22" arrivalSpeed="13.46" duration="41.00" routeLength="264.61" waitingTime="0.00" waitingCount="0" stopTime="0.00" timeLoss="20.40" rerouteNo="0" devices="tripinfo_flow_route_32_duration_20250327_2100.4" vType="car" speedFactor="0.83" vaporized=""/>
    <tripinfo id="flow_route_32_duration_20250327_2100.3" depart="19.00" departLane="1235147073.116_0" departPos="6.98" departSpeed="0.00" departDelay="10.82" arrival="65.00" arrivalLane="1369578054_1" arrivalPos="171.28" arrivalSpeed="16.29" duration="46.00" routeLength="344.03" waitingTime="2.00" waitingCount="1" stopTime="0.00" timeLoss="24.21" rerouteNo="0" devices="tripinfo_flow_route_32_duration_20250327_2100.3" vType="car" speedFactor="1.02" vaporized=""/>
    <tripinfo id="flow_route_32_duration_20250327_2100.7" depart="37.00" departLane="1235147073.116_0" departPos="0.53" departSpeed="0.00" departDelay="17.91" arrival="71.00" arrivalLane="1369578054_1" arrivalPos="88.79" arrivalSpeed="14.79" duration="34.00" routeLength="267.99" waitingTime="0.00" waitingCount="0" stopTime="0.00" timeLoss="16.37" rerouteNo="0" devices="tripinfo_flow_route_32_duration_20250327_2100.7" vType="car" speedFactor="1.03" vaporized=""/>
    <tripinfo id="flow_route_32_duration_20250327_2100.6" depart="29.00" departLane="1235147073.116_0" departPos="0.18" departSpeed="0.00" departDelay="12.64" arrival="72.00" arrivalLane="1369578054_1" arrivalPos="153.66" arrivalSpeed="16.19" duration="43.00" routeLength="333.21" waitingTime="1.00" waitingCount="1" stopTime="0.00" timeLoss="21.83" rerouteNo="0" devices="tripinfo_flow_route_32_duration_20250327_2100.6" vType="car" speedFactor="1.17" vaporized=""/>
    <tripinfo id="flow_route_32_duration_20250327_2100.10" depart="44.00" departLane="1235147073.116_0" departPos="3.09" departSpeed="0.00" departDelay="16.73" arrival="72.00" arrivalLane="1369578054_1" arrivalPos="50.19" arrivalSpeed="13.81" duration="28.00" routeLength="226.83" waitingTime="0.00" waitingCount="0" stopTime="0.00" timeLoss="13.11" rerouteNo="0" devices="tripinfo_flow_route_32_duration_20250327_2100.10" vType="car" speedFactor="1.00" vaporized=""/>
    <tripinfo id="flow_route_30_duration_20250327_2100.3" depart="44.00" departLane="1235147073.116_0" departPos="14.06" departSpeed="0.00" departDelay="18.29" arrival="74.00" arrivalLane="133126030#0_0" arrivalPos="158.71" arrivalSpeed="16.27" duration="30.00" routeLength="319.17" waitingTime="0.00" waitingCount="0" stopTime="0.00" timeLoss="10.67" rerouteNo="0" devices="tripinfo_flow_route_30_duration_20250327_2100.3" vType="car" speedFactor="1.02" vaporized=""/>
    <tripinfo id="flow_route_32_duration_20250327_2100.9" depart="40.00" departLane="1235147073.116_0" departPos="0.18" departSpeed="0.00" departDelay="15.46" arrival="79.00" arrivalLane="1369578054_1" arrivalPos="83.09" arrivalSpeed="13.69" duration="39.00" routeLength="262.64" waitingTime="0.00" waitingCount="0" stopTime="0.00" timeLoss="19.14" rerouteNo="0" devices="tripinfo_flow_route_32_duration_20250327_2100.9" vType="car" speedFactor="0.85" vaporized=""/>
    <tripinfo id="flow_route_32_duration_20250327_2100.8" depart="40.00" departLane="1235147073.116_0" departPos="8.09" departSpeed="0.00" departDelay="18.18" arrival="80.00" arrivalLane="1369578054_1" arrivalPos="213.73" arrivalSpeed="16.19" duration="40.00" routeLength="385.37" waitingTime="0.00" waitingCount="0" stopTime="0.00" timeLoss="15.74" rerouteNo="0" devices="tripinfo_flow_route_32_duration_20250327_2100.8" vType="car" speedFactor="1.04" vaporized=""/>
    <tripinfo id="flow_route_31_duration_20250327_2100.2" depart="49.00" departLane="1235147073.116_0" departPos="11.32" departSpeed="0.00" departDelay="19.00" arrival="82.00" arrivalLane="-430406005#1_0" arrivalPos="152.03" arrivalSpeed="16.43" duration="33.00" routeLength="303.67" waitingTime="0.00" waitingCount="0" stopTime="0.00" timeLoss="14.03" rerouteNo="0" devices="tripinfo_flow_route_31_duration_20250327_2100.2" vType="car" speedFactor="1.02" vaporized=""/>
    <tripinfo id="flow_route_33_duration_20250327_2100.0" depart="0.00" departLane="133126008#0_0" departPos="101.07" departSpeed="0.00" departDelay="0.00" arrival="85.00" arrivalLane="1369578054_0" arrivalPos="13.07" arrivalSpeed="8.30" duration="85.00" routeLength="125.36" waitingTime="57.00" waitingCount="1" stopTime="0.00" timeLoss="76.93" rerouteNo="0" devices="tripinfo_flow_route_33_duration_20250327_2100.0" vType="car" speedFactor="0.83" vaporized=""/>
    <tripinfo id="flow_route_28_duration_20250327_2100.2" depart="15.00" departLane="-422986370#2_0" departPos="203.30" departSpeed="0.00" departDelay="0.00" arrival="88.00" arrivalLane="-430406005#1_0" arrivalPos="8.37" arrivalSpeed="8.94" duration="73.00" routeLength="139.50" waitingTime="44.00" waitingCount="1" stopTime="0.00" timeLoss="64.53" rerouteNo="0" devices="tripinfo_flow_route_28_duration_20250327_2100.2" vType="car" speedFactor="1.15" vaporized=""/>
    <tripinfo id="flow_route_33_duration_20250327_2100.3" depart="18.00" departLane="133126008#0_0" departPos="126.85" departSpeed="0.00" departDelay="0.00" arrival="88.00" arrivalLane="1369578054_1" arrivalPos="31.38" arrivalSpeed="10.84" duration="70.00" routeLength="117.88" waitingTime="44.00" waitingCount="1" stopTime="0.00" timeLoss="62.77" rerouteNo="0" devices="tripinfo_flow_route_33_duration_20250327_2100.3" vType="car" speedFactor="1.10" vaporized=""/>
    <tripinfo id="flow_route_34_duration_20250327_2100.1" depart="10.00" departLane="133126008#0_0" departPos="171.33" departSpeed="0.00" departDelay="0.00" arrival="90.00" arrivalLane="133126030#0_0" arrivalPos="110.47" arrivalSpeed="13.23" duration="80.00" routeLength="126.66" waitingTime="57.00" waitingCount="1" stopTime="0.00" timeLoss="70.62" rerouteNo="0" devices="tripinfo_flow_route_34_duration_20250327_2100.1" vType="car" speedFactor="0.89" vaporized=""/>
    <tripinfo id="flow_route_28_duration_20250327_2100.4" depart="30.00" departLane="-422986370#2_0" departPos="99.70" departSpeed="0.00" departDelay="0.00" arrival="92.00" arrivalLane="-430406005#1_1" arrivalPos="20.42" arrivalSpeed="10.34" duration="62.00" routeLength="255.15" waitingTime="23.00" waitingCount="1" stopTime="0.00" timeLoss="46.35" rerouteNo="0" devices="tripinfo_flow_route_28_duration_20250327_2100.4" vType="car" speedFactor="1.14" vaporized=""/>
    <tripinfo id="flow_route_34_duration_20250327_2100.2" depart="20.00" departLane="133126008#0_0" departPos="139.39" departSpeed="0.00" departDelay="0.00" arrival="93.00" arrivalLane="133126030#0_0" arrivalPos="76.17" arrivalSpeed="11.57" duration="73.00" routeLength="124.30" waitingTime="47.00" waitingCount="1" stopTime="0.00" timeLoss="64.25" rerouteNo="0" devices="tripinfo_flow_route_34_duration_20250327_2100.2" vType="car" speedFactor="0.96" vaporized=""/>
    <tripinfo id="flow_route_29_duration_20250327_2100.0" depart="0.00" departLane="-422986370#2_0" departPos="201.60" departSpeed="0.00" departDelay="0.00" arrival="94.00" arrivalLane="137415945#0_0" arrivalPos="9.07" arrivalSpeed="15.64" duration="94.00" routeLength="253.29" waitingTime="54.00" waitingCount="1" stopTime="0.00" timeLoss="76.41" rerouteNo="0" devices="tripinfo_flow_route_29_duration_20250327_2100.0" vType="car" speedFactor="0.94" vaporized=""/>
    <tripinfo id="flow_route_28_duration_20250327_2100.1" depart="8.00" departLane="-422986370#2_0" departPos="79.10" departSpeed="0.00" departDelay="0.50" arrival="94.00" arrivalLane="-430406005#1_1" arrivalPos="73.46" arrivalSpeed="13.41" duration="86.00" routeLength="328.79" waitingTime="40.00" waitingCount="1" stopTime="0.00" timeLoss="65.27" rerouteNo="0" devices="tripinfo_flow_route_28_duration_20250327_2100.1" vType="car" speedFactor="0.94" vaporized=""/>
    <tripinfo id="flow_route_34_duration_20250327_2100.0" depart="0.00" departLane="133126008#0_0" departPos="47.21" departSpeed="0.00" departDelay="0.00" arrival="95.00" arrivalLane="133126030#0_0" arrivalPos="137.72" arrivalSpeed="14.94" duration="95.00" routeLength="278.03" waitingTime="54.00" waitingCount="1" stopTime="0.00" timeLoss="76.95" rerouteNo="0" devices="tripinfo_flow_route_34_duration_20250327_2100.0" vType="car" speedFactor="1.05" vaporized=""/>
    <tripinfo id="flow_route_33_duration_20250327_2100.1" depart="6.00" departLane="133126008#0_0" departPos="5.32" departSpeed="0.00" departDelay="0.00" arrival="96.00" arrivalLane="1369578054_1" arrivalPos="90.42" arrivalSpeed="14.55" duration="90.00" routeLength="298.46" waitingTime="44.00" waitingCount="1" stopTime="0.00" timeLoss="71.25" rerouteNo="0" devices="tripinfo_flow_route_33_duration_20250327_2100.1" vType="car" speedFactor="0.99" vaporized=""/>
    <tripinfo id="flow_route_29_duration_20250327_2100.1" depart="9.00" departLane="-422986370#2_0" departPos="200.14" departSpeed="0.00" departDelay="0.43" arrival="96.00" arrivalLane="137415945#0_0" arrivalPos="2.84" arrivalSpeed="14.90" duration="87.00" routeLength="248.52" waitingTime="49.00" waitingCount="1" stopTime="0.00" timeLoss="69.69" rerouteNo="0" devices="tripinfo_flow_route_29_duration_20250327_2100.1" vType="car" speedFactor="0.94" vaporized=""/>
    <tripinfo id="flow_route_28_duration_20250327_2100.3" depart="23.00" departLane="-422986370#2_0" departPos="270.92" departSpeed="0.00" departDelay="0.50" arrival="96.00" arrivalLane="-430406005#1_1" arrivalPos="174.70" arrivalSpeed="16.12" duration="73.00" routeLength="238.21" waitingTime="41.00" waitingCount="1" stopTime="0.00" timeLoss="58.42" rerouteNo="0" devices="tripinfo_flow_route_28_duration_20250327_2100.3" vType="car" speedFactor="0.90" vaporized=""/>
    <tripinfo id="flow_route_28_duration_20250327_2100.0" depart="0.00" departLane="-422986370#2_0" departPos="1.81" departSpeed="0.00" departDelay="0.00" arrival="98.00" arrivalLane="-430406005#1_1" arrivalPos="159.13" arrivalSpeed="16.26" duration="98.00" routeLength="491.75" waitingTime="40.00" waitingCount="1" stopTime="0.00" timeLoss="67.77" rerouteNo="0" devices="tripinfo_flow_route_28_duration_20250327_2100.0" vType="car" speedFactor="1.06" vaporized=""/>
    <tripinfo id="flow_route_33_duration_20250327_2100.7" depart="42.00" departLane="133126008#0_0" departPos="135.83" departSpeed="0.00" departDelay="0.00" arrival="98.00" arrivalLane="1369578054_1" arrivalPos="103.89" arrivalSpeed="15.17" duration="56.00" routeLength="181.43" waitingTime="25.00" waitingCount="1" stopTime="0.00" timeLoss="44.77" rerouteNo="0" devices="tripinfo_flow_route_33_duration_20250327_2100.7" vType="car" speedFactor="1.00" vaporized=""/>
    <tripinfo id="flow_route_28_duration_20250327_2100.7" depart="53.00" departLane="-422986370#2_0" departPos="236.64" departSpeed="0.00" departDelay="0.50" arrival="98.00" arrivalLane="-430406005#1_0" arrivalPos="58.49" arrivalSpeed="14.35" duration="45.00" routeLength="156.28" waitingTime="16.00" waitingCount="1" stopTime="0.00" timeLoss="34.88" rerouteNo="0" devices="tripinfo_flow_route_28_duration_20250327_2100.7" vType="car" speedFactor="0.95" vaporized=""/>
    <tripinfo id="flow_route_29_duration_20250327_2100.2" depart="22.00" departLane="-422986370#2_0" departPos="117.02" departSpeed="0.00" departDelay="4.86" arrival="99.00" arrivalLane="137415945#0_0" arrivalPos="0.30" arrivalSpeed="16.10" duration="77.00" routeLength="329.10" waitingTime="31.00" waitingCount="1" stopTime="0.00" timeLoss="55.20" rerouteNo="0" devices="tripinfo_flow_route_29_duration_20250327_2100.2" vType="car" speedFactor="0.97" vaporized=""/>
    <tripinfo id="flow_route_28_duration_20250327_2100.5" depart="39.00" departLane="-422986370#2_0" departPos="118.15" departSpeed="0.00" departDelay="1.50" arrival="99.00" arrivalLane="-430406005#1_1" arrivalPos="81.38" arrivalSpeed="14.92" duration="60.00" routeLength="297.66" waitingTime="16.00" waitingCount="1" stopTime="0.00" timeLoss="41.22" rerouteNo="0" devices="tripinfo_flow_route_28_duration_20250327_2100.5" vType="car" speedFactor="1.06" vaporized=""/>
    <tripinfo id="flow_route_34_duration_20250327_2100.4" depart="41.00" departLane="133126008#0_0" departPos="33.55" departSpeed="0.00" departDelay="1.00" arrival="99.00" arrivalLane="133126030#0_0" arrivalPos="20.32" arrivalSpeed="8.45" duration="58.00" routeLength="174.29" waitingTime="22.00" waitingCount="1" stopTime="0.00" timeLoss="46.53" rerouteNo="0" devices="tripinfo_flow_route_34_duration_20250327_2100.4" vType="car" speedFactor="1.01" vaporized=""/>
    <tripinfo id="flow_route_33_duration_20250327_2100.8" depart="50.00" departLane="133126008#0_0" departPos="94.50" departSpeed="0.00" departDelay="2.00" arrival="99.00" arrivalLane="1369578054_1" arrivalPos="72.36" arrivalSpeed="13.82" duration="49.00" routeLength="191.23" waitingTime="16.00" waitingCount="1" stopTime="0.00" timeLoss="36.42" rerouteNo="0" devices="tripinfo_flow_route_33_duration_20250327_2100.8" vType="car" speedFactor="0.83" vaporized=""/>
    <tripinfo id="flow_route_33_duration_20250327_2100.4" depart="26.00" departLane="133126008#0_0" departPos="2.61" departSpeed="0.00" departDelay="2.00" arrival="100.00" arrivalLane="1369578054_1" arrivalPos="103.24" arrivalSpeed="14.54" duration="74.00" routeLength="313.99" waitingTime="24.00" waitingCount="1" stopTime="0.00" timeLoss="53.49" rerouteNo="0" devices="tripinfo_flow_route_33_duration_20250327_2100.4" vType="car" speedFactor="0.88" vaporized=""/>
    <tripinfo id="flow_route_29_duration_20250327_2100.3" depart="29.00" departLane="-422986370#2_0" departPos="123.37" departSpeed="0.00" departDelay="3.29" arrival="101.00" arrivalLane="137415945#0_0" arrivalPos="1.31" arrivalSpeed="16.01" duration="72.00" routeLength="323.76" waitingTime="26.00" waitingCount="1" stopTime="0.00" timeLoss="51.12" rerouteNo="0" devices="tripinfo_flow_route_29_duration_20250327_2100.3" vType="car" speedFactor="1.17" vaporized=""/>
    <tripinfo id="flow_route_33_duration_20250327_2100.2" depart="12.00" departLane="133126008#0_0" departPos="31.94" departSpeed="0.00" departDelay="0.00" arrival="102.00" arrivalLane="1369578054_0" arrivalPos="163.83" arrivalSpeed="15.58" duration="90.00" routeLength="345.25" waitingTime="45.00" waitingCount="1" stopTime="0.00" timeLoss="68.37" rerouteNo="0" devices="tripinfo_flow_route_33_duration_20250327_2100.2" vType="car" speedFactor="0.95" vaporized=""/>
    <tripinfo id="flow_route_33_duration_20250327_2100.5" depart="30.00" departLane="133126008#0_0" departPos="37.04" departSpeed="0.00" departDelay="0.00" arrival="103.00" arrivalLane="1369578054_0" arrivalPos="117.90" arrivalSpeed="16.24" duration="73.00" routeLength="294.22" waitingTime="29.00" waitingCount="1" stopTime="0.00" timeLoss="54.85" rerouteNo="0" devices="tripinfo_flow_route_33_duration_20250327_2100.5" vType="car" speedFactor="1.08" vaporized=""/>
    <tripinfo id="flow_route_28_duration_20250327_2100.6" depart="47.00" departLane="-422986370#2_0" departPos="195.63" departSpeed="0.00" departDelay="2.00" arrival="104.00" arrivalLane="-430406005#1_1" arrivalPos="141.98" arrivalSpeed="16.19" duration="57.00" routeLength="280.78" waitingTime="14.00" waitingCount="1" stopTime="0.00" timeLoss="39.94" rerouteNo="0" devices="tripinfo_flow_route_28_duration_20250327_2100.6" vType="car" speedFactor="1.01" vaporized=""/>
    <tripinfo id="flow_route_29_duration_20250327_2100.6" depart="52.00" departLane="-422986370#2_0" departPos="170.86" departSpeed="0.00" departDelay="0.57" arrival="106.00" arrivalLane="137415945#0_0" arrivalPos="11.41" arrivalSpeed="16.53" duration="54.00" routeLength="286.36" waitingTime="11.00" waitingCount="1" stopTime="0.00" timeLoss="34.69" rerouteNo="0" devices="tripinfo_flow_route_29_duration_20250327_2100.6" vType="car" speedFactor="1.12" vaporized=""/>
    <tripinfo id="flow_route_34_duration_20250327_2100.3" depart="30.00" departLane="133126008#0_0" departPos="27.37" departSpeed="0.00" departDelay="0.00" arrival="109.00" arrivalLane="133126030#0_0" arrivalPos="184.69" arrivalSpeed="16.22" duration="79.00" routeLength="344.84" waitingTime="28.00" waitingCount="1" stopTime="0.00" timeLoss="56.24" rerouteNo="0" devices="tripinfo_flow_route_34_duration_20250327_2100.3" vType="car" speedFactor="1.12" vaporized=""/>
    <tripinfo id="flow_route_29_duration_20250327_2100.4" depart="36.00" departLane="-422986370#2_0" departPos="25.34" departSpeed="0.00" departDelay="1.72" arrival="109.00" arrivalLane="137415945#0_0" arrivalPos="11.71" arrivalSpeed="15.03" duration="73.00" routeLength="432.19" waitingTime="9.00" waitingCount="1" stopTime="0.00" timeLoss="43.23" rerouteNo="0" devices="tripinfo_flow_route_29_duration_20250327_2100.4" vType="car" speedFactor="0.91" vaporized=""/>
    <tripinfo id="flow_route_33_duration_20250327_2100.9" depart="56.00" departLane="133126008#0_0" departPos="7.69" departSpeed="0.00" departDelay="2.00" arrival="109.00" arrivalLane="1369578054_1" arrivalPos="181.07" arrivalSpeed="14.60" duration="53.00" routeLength="386.73" waitingTime="3.00" waitingCount="1" stopTime="0.00" timeLoss="27.62" rerouteNo="0" devices="tripinfo_flow_route_33_duration_20250327_2100.9" vType="car" speedFactor="0.89" vaporized=""/>
    <tripinfo id="flow_route_33_duration_20250327_2100.6" depart="36.00" departLane="133126008#0_0" departPos="101.66" departSpeed="0.00" departDelay="0.00" arrival="111.00" arrivalLane="1369578054_0" arrivalPos="275.07" arrivalSpeed="16.02" duration="75.00" routeLength="386.78" waitingTime="29.00" waitingCount="1" stopTime="0.00" timeLoss="50.87" rerouteNo="0" devices="tripinfo_flow_route_33_duration_20250327_2100.6" vType="car" speedFactor="0.97" vaporized=""/>
    <tripinfo id="flow_route_29_duration_20250327_2100.5" depart="44.00" departLane="-422986370#2_0" departPos="11.85" departSpeed="0.00" departDelay="1.15" arrival="111.00" arrivalLane="137415945#0_0" arrivalPos="10.54" arrivalSpeed="15.81" duration="67.00" routeLength="444.52" waitingTime="9.00" waitingCount="1" stopTime="0.00" timeLoss="39.08" rerouteNo="0" devices="tripinfo_flow_route_29_duration_20250327_2100.5" vType="car" speedFactor="1.02" vaporized=""/>
    <tripinfo id="flow_route_34_duration_20250327_2100.5" depart="51.00" departLane="133126008#0_0" departPos="42.94" departSpeed="0.00" departDelay="1.00" arrival="111.00" arrivalLane="133126030#0_0" arrivalPos="147.89" arrivalSpeed="15.91" duration="60.00" routeLength="292.47" waitingTime="16.00" waitingCount="1" stopTime="0.00" timeLoss="41.37" rerouteNo="0" devices="tripinfo_flow_route_34_duration_20250327_2100.5" vType="car" speedFactor="1.06" vaporized=""/>