<?xml version="1.0" encoding="UTF-8"?>

<!-- generated on 2025-05-06 21:08:55 by Eclipse SUMO sumo Version 1.20.0
<configuration xmlns:xsi="http://www.w3.org/2001/XMLSchema-instance" xsi:noNamespaceSchemaLocation="http://sumo.dlr.de/xsd/sumoConfiguration.xsd">

    <input>
        <net-file value="osm.net.xml"/>
        <route-files value="xml/route_static_cluster10852700972_12154751993_7.rou.xml"/>
    </input>

    <output>
        <tripinfo-output value="xml/tripinfo_static_cluster10852700972_12154751993_7.xml"/>
    </output>

    <traci_server>
        <remote-port value="38433"/>
    </traci_server>

</configuration>
-->

<tripinfos xmlns:xsi="http://www.w3.org/2001/XMLSchema-instance" xsi:noNamespaceSchemaLocation="http://sumo.dlr.de/xsd/tripinfo_file.xsd">
    <tripinfo id="flow_route_61_duration_20250327_2020.0" depart="0.00" departLane="186407684#0_0" departPos="65.67" departSpeed="0.00" departDelay="0.00" arrival="24.00" arrivalLane="1341093416#0_1" arrivalPos="161.76" arrivalSpeed="16.18" duration="24.00" routeLength="210.27" waitingTime="0.00" waitingCount="0" stopTime="0.00" timeLoss="9.94" rerouteNo="0" devices="tripinfo_flow_route_61_duration_20250327_2020.0" vType="car" speedFactor="1.03" vaporized=""/>
    <tripinfo id="flow_route_60_duration_20250327_2020.0" depart="0.00" departLane="186407684#0_0" departPos="48.06" departSpeed="0.00" departDelay="0.00" arrival="25.00" arrivalLane="791826085_0" arrivalPos="160.28" arrivalSpeed="16.59" duration="25.00" routeLength="221.15" waitingTime="0.00" waitingCount="0" stopTime="0.00" timeLoss="11.02" rerouteNo="0" devices="tripinfo_flow_route_60_duration_20250327_2020.0" vType="car" speedFactor="1.08" vaporized=""/>
    <tripinfo id="flow_route_60_duration_20250327_2020.1" depart="9.00" departLane="186407684#0_0" departPos="23.31" departSpeed="0.00" departDelay="0.43" arrival="34.00" arrivalLane="791826085_0" arrivalPos="147.45" arrivalSpeed="14.59" duration="25.00" routeLength="233.07" waitingTime="0.00" waitingCount="0" stopTime="0.00" timeLoss="8.66" rerouteNo="0" devices="tripinfo_flow_route_60_duration_20250327_2020.1" vType="car" speedFactor="0.89" vaporized=""/>
    <tripinfo id="flow_route_56_duration_20250327_2020.0" depart="0.00" departLane="1341093415#0_0" departPos="44.11" departSpeed="0.00" departDelay="0.00" arrival="39.00" arrivalLane="409155823_0" arrivalPos="4.00" arrivalSpeed="6.53" duration="39.00" routeLength="164.73" waitingTime="10.00" waitingCount="1" stopTime="0.00" timeLoss="28.13" rerouteNo="0" devices="tripinfo_flow_route_56_duration_20250327_2020.0" vType="car" speedFactor="1.01" vaporized=""/>
    <tripinfo id="flow_route_55_duration_20250327_2020.1" depart="7.00" departLane="1341093415#0_0" departPos="119.96" departSpeed="0.00" departDelay="0.33" arrival="39.00" arrivalLane="791826085_0" arrivalPos="1.97" arrivalSpeed="5.34" duration="32.00" routeLength="71.72" waitingTime="11.00" waitingCount="1" stopTime="0.00" timeLoss="26.50" rerouteNo="0" devices="tripinfo_flow_route_55_duration_20250327_2020.1" vType="car" speedFactor="0.83" vaporized=""/>
    <tripinfo id="flow_route_54_duration_20250327_2020.1" depart="12.00" departLane="1341093415#0_0" departPos="156.06" departSpeed="0.00" departDelay="0.00" arrival="41.00" arrivalLane="1341093416#0_0" arrivalPos="16.52" arrivalSpeed="7.49" duration="29.00" routeLength="67.28" waitingTime="10.00" waitingCount="1" stopTime="0.00" timeLoss="24.92" rerouteNo="0" devices="tripinfo_flow_route_54_duration_20250327_2020.1" vType="car" speedFactor="0.94" vaporized=""/>
    <tripinfo id="flow_route_56_duration_20250327_2020.2" depart="18.00" departLane="1341093415#0_0" departPos="54.73" departSpeed="0.00" departDelay="0.86" arrival="44.00" arrivalLane="409155823_0" arrivalPos="4.07" arrivalSpeed="8.21" duration="26.00" routeLength="154.18" waitingTime="0.00" waitingCount="0" stopTime="0.00" timeLoss="15.67" rerouteNo="0" devices="tripinfo_flow_route_56_duration_20250327_2020.2" vType="car" speedFactor="1.09" vaporized=""/>
    <tripinfo id="flow_route_54_duration_20250327_2020.2" depart="24.00" departLane="1341093415#0_0" departPos="53.79" departSpeed="0.00" departDelay="0.00" arrival="45.00" arrivalLane="1341093416#0_1" arrivalPos="8.89" arrivalSpeed="15.58" duration="21.00" routeLength="161.92" waitingTime="0.00" waitingCount="0" stopTime="0.00" timeLoss="10.77" rerouteNo="0" devices="tripinfo_flow_route_54_duration_20250327_2020.2" vType="car" speedFactor="0.99" vaporized=""/>
    <tripinfo id="flow_route_56_duration_20250327_2020.1" depart="9.00" departLane="1341093415#0_0" departPos="100.93" departSpeed="0.00" departDelay="0.43" arrival="46.00" arrivalLane="409155823_0" arrivalPos="41.04" arrivalSpeed="10.18" duration="37.00" routeLength="144.94" waitingTime="8.00" waitingCount="1" stopTime="0.00" timeLoss="27.08" rerouteNo="0" devices="tripinfo_flow_route_56_duration_20250327_2020.1" vType="car" speedFactor="1.05" vaporized=""/>
    <tripinfo id="flow_route_55_duration_20250327_2020.2" depart="14.00" departLane="1341093415#0_0" departPos="121.85" departSpeed="0.00" departDelay="0.67" arrival="52.00" arrivalLane="791826085_0" arrivalPos="105.00" arrivalSpeed="14.07" duration="38.00" routeLength="172.87" waitingTime="6.00" waitingCount="1" stopTime="0.00" timeLoss="24.98" rerouteNo="0" devices="tripinfo_flow_route_55_duration_20250327_2020.2" vType="car" speedFactor="0.86" vaporized=""/>
    <tripinfo id="flow_route_56_duration_20250327_2020.4" depart="35.00" departLane="1341093415#0_0" departPos="144.68" departSpeed="0.00" departDelay="0.72" arrival="52.00" arrivalLane="409155823_0" arrivalPos="50.32" arrivalSpeed="12.30" duration="17.00" routeLength="110.48" waitingTime="0.00" waitingCount="0" stopTime="0.00" timeLoss="9.56" rerouteNo="0" devices="tripinfo_flow_route_56_duration_20250327_2020.4" vType="car" speedFactor="1.16" vaporized=""/>
    <tripinfo id="flow_route_55_duration_20250327_2020.0" depart="0.00" departLane="1341093415#0_0" departPos="132.48" departSpeed="0.00" departDelay="0.00" arrival="56.00" arrivalLane="791826085_0" arrivalPos="232.37" arrivalSpeed="15.49" duration="56.00" routeLength="289.60" waitingTime="18.00" waitingCount="1" stopTime="0.00" timeLoss="36.73" rerouteNo="0" devices="tripinfo_flow_route_55_duration_20250327_2020.0" vType="car" speedFactor="0.94" vaporized=""/>
    <tripinfo id="flow_route_56_duration_20250327_2020.3" depart="28.00" departLane="1341093415#0_0" departPos="23.06" departSpeed="0.00" departDelay="2.29" arrival="57.00" arrivalLane="409155823_0" arrivalPos="67.30" arrivalSpeed="13.61" duration="29.00" routeLength="249.08" waitingTime="0.00" waitingCount="0" stopTime="0.00" timeLoss="12.55" rerouteNo="0" devices="tripinfo_flow_route_56_duration_20250327_2020.3" vType="car" speedFactor="0.93" vaporized=""/>
    <tripinfo id="flow_route_54_duration_20250327_2020.0" depart="0.00" departLane="1341093415#0_0" departPos="7.77" departSpeed="0.00" departDelay="0.00" arrival="58.00" arrivalLane="1341093416#0_1" arrivalPos="244.31" arrivalSpeed="16.42" duration="58.00" routeLength="443.35" waitingTime="7.00" waitingCount="1" stopTime="0.00" timeLoss="31.23" rerouteNo="0" devices="tripinfo_flow_route_54_duration_20250327_2020.0" vType="car" speedFactor="1.06" vaporized=""/>
    <tripinfo id="flow_route_55_duration_20250327_2020.3" depart="20.00" departLane="1341093415#0_0" departPos="97.02" departSpeed="0.00" departDelay="0.00" arrival="64.00" arrivalLane="791826085_0" arrivalPos="268.83" arrivalSpeed="16.15" duration="44.00" routeLength="361.52" waitingTime="0.00" waitingCount="0" stopTime="0.00" timeLoss="20.79" rerouteNo="0" devices="tripinfo_flow_route_55_duration_20250327_2020.3" vType="car" speedFactor="1.05" vaporized=""/>
    <tripinfo id="flow_route_55_duration_20250327_2020.5" depart="34.00" departLane="1341093415#0_0" departPos="29.94" departSpeed="0.00" departDelay="0.67" arrival="64.00" arrivalLane="791826085_0" arrivalPos="72.77" arrivalSpeed="12.58" duration="30.00" routeLength="232.54" waitingTime="0.00" waitingCount="0" stopTime="0.00" timeLoss="14.35" rerouteNo="0" devices="tripinfo_flow_route_55_duration_20250327_2020.5" vType="car" speedFactor="0.94" vaporized=""/>
    <tripinfo id="flow_route_54_duration_20250327_2020.3" depart="37.00" departLane="1341093415#0_0" departPos="106.27" departSpeed="0.00" departDelay="1.00" arrival="64.00" arrivalLane="1341093416#0_0" arrivalPos="183.19" arrivalSpeed="16.28" duration="27.00" routeLength="283.74" waitingTime="0.00" waitingCount="0" stopTime="0.00" timeLoss="9.84" rerouteNo="0" devices="tripinfo_flow_route_54_duration_20250327_2020.3" vType="car" speedFactor="1.01" vaporized=""/>
    <tripinfo id="flow_route_55_duration_20250327_2020.4" depart="31.00" departLane="1341093415#0_0" departPos="47.07" departSpeed="0.00" departDelay="4.34" arrival="71.00" arrivalLane="791826085_0" arrivalPos="223.42" arrivalSpeed="15.55" duration="40.00" routeLength="366.06" waitingTime="0.00" waitingCount="0" stopTime="0.00" timeLoss="15.52" rerouteNo="0" devices="tripinfo_flow_route_55_duration_20250327_2020.4" vType="car" speedFactor="0.94" vaporized=""/>
    <tripinfo id="flow_route_55_duration_20250327_2020.6" depart="42.00" departLane="1341093415#0_0" departPos="30.02" departSpeed="0.00" departDelay="2.00" arrival="81.00" arrivalLane="791826085_0" arrivalPos="225.55" arrivalSpeed="15.76" duration="39.00" routeLength="385.25" waitingTime="0.00" waitingCount="0" stopTime="0.00" timeLoss="14.60" rerouteNo="0" devices="tripinfo_flow_route_55_duration_20250327_2020.6" vType="car" speedFactor="0.97" vaporized=""/>
    <tripinfo id="flow_route_60_duration_20250327_2020.3" depart="26.00" departLane="186407684#0_0" departPos="2.63" departSpeed="0.00" departDelay="0.29" arrival="82.00" arrivalLane="791826085_0" arrivalPos="51.89" arrivalSpeed="11.02" duration="56.00" routeLength="158.19" waitingTime="25.00" waitingCount="1" stopTime="0.00" timeLoss="44.48" rerouteNo="0" devices="tripinfo_flow_route_60_duration_20250327_2020.3" vType="car" speedFactor="0.88" vaporized=""/>
    <tripinfo id="flow_route_60_duration_20250327_2020.4" depart="35.00" departLane="186407684#0_0" departPos="7.85" departSpeed="0.00" departDelay="0.72" arrival="83.00" arrivalLane="791826085_1" arrivalPos="78.72" arrivalSpeed="12.57" duration="48.00" routeLength="179.81" waitingTime="16.00" waitingCount="1" stopTime="0.00" timeLoss="36.90" rerouteNo="0" devices="tripinfo_flow_route_60_duration_20250327_2020.4" vType="car" speedFactor="1.02" vaporized=""/>
    <tripinfo id="flow_route_60_duration_20250327_2020.5" depart="43.00" departLane="186407684#0_0" departPos="13.38" departSpeed="0.00" departDelay="0.15" arrival="84.00" arrivalLane="791826085_0" arrivalPos="59.80" arrivalSpeed="11.93" duration="41.00" routeLength="155.35" waitingTime="11.00" waitingCount="1" stopTime="0.00" timeLoss="29.92" rerouteNo="0" devices="tripinfo_flow_route_60_duration_20250327_2020.5" vType="car" speedFactor="0.87" vaporized=""/>
    <tripinfo id="flow_route_60_duration_20250327_2020.2" depart="20.00" departLane="186407684#0_0" departPos="34.95" departSpeed="0.00" departDelay="2.86" arrival="87.00" arrivalLane="791826085_0" arrivalPos="167.29" arrivalSpeed="16.52" duration="67.00" routeLength="241.27" waitingTime="33.00" waitingCount="1" stopTime="0.00" timeLoss="52.12" rerouteNo="0" devices="tripinfo_flow_route_60_duration_20250327_2020.2" vType="car" speedFactor="1.03" vaporized=""/>
    <tripinfo id="flow_route_60_duration_20250327_2020.6" depart="52.00" departLane="186407684#0_0" departPos="7.58" departSpeed="0.00" departDelay="0.57" arrival="88.00" arrivalLane="791826085_1" arrivalPos="102.36" arrivalSpeed="14.22" duration="36.00" routeLength="203.71" waitingTime="0.00" waitingCount="0" stopTime="0.00" timeLoss="22.11" rerouteNo="0" devices="tripinfo_flow_route_60_duration_20250327_2020.6" vType="car" speedFactor="0.93" vaporized=""/>
    <tripinfo id="flow_route_61_duration_20250327_2020.1" depart="20.00" departLane="186407684#0_0" departPos="20.86" departSpeed="0.00" departDelay="0.00" arrival="92.00" arrivalLane="1341093416#0_0" arrivalPos="243.38" arrivalSpeed="16.26" duration="72.00" routeLength="336.70" waitingTime="30.00" waitingCount="1" stopTime="0.00" timeLoss="50.63" rerouteNo="0" devices="tripinfo_flow_route_61_duration_20250327_2020.1" vType="car" speedFactor="1.12" vaporized=""/>
    <tripinfo id="flow_route_61_duration_20250327_2020.2" depart="41.00" departLane="186407684#0_0" departPos="51.12" departSpeed="0.00" departDelay="1.00" arrival="92.00" arrivalLane="1341093416#0_1" arrivalPos="256.38" arrivalSpeed="16.50" duration="51.00" routeLength="315.28" waitingTime="13.00" waitingCount="1" stopTime="0.00" timeLoss="31.00" rerouteNo="0" devices="tripinfo_flow_route_61_duration_20250327_2020.2" vType="car" speedFactor="0.89" vaporized=""/>
    <tripinfo id="flow_route_56_duration_20250327_2020.5" depart="44.00" departLane="1341093415#0_0" departPos="4.96" departSpeed="0.00" departDelay="1.15" arrival="114.00" arrivalLane="409155823_0" arrivalPos="84.06" arrivalSpeed="12.72" duration="70.00" routeLength="283.94" waitingTime="29.00" waitingCount="1" stopTime="0.00" timeLoss="49.80" rerouteNo="0" devices="tripinfo_flow_route_56_duration_20250327_2020.5" vType="car" speedFactor="0.83" vaporized=""/>
    <tripinfo id="flow_route_55_duration_20250327_2020.7" depart="48.00" departLane="1341093415#0_0" departPos="11.94" departSpeed="0.00" departDelay="1.34" arrival="115.00" arrivalLane="791826085_0" arrivalPos="90.94" arrivalSpeed="13.28" duration="67.00" routeLength="268.71" waitingTime="26.00" waitingCount="1" stopTime="0.00" timeLoss="48.79" rerouteNo="0" devices="tripinfo_flow_route_55_duration_20250327_2020.7" vType="car" speedFactor="0.92" vaporized=""/>
    <tripinfo id="flow_route_56_duration_20250327_2020.6" depart="52.00" departLane="1341093415#0_0" departPos="60.43" departSpeed="0.00" departDelay="0.57" arrival="116.00" arrivalLane="409155823_0" arrivalPos="87.35" arrivalSpeed="12.58" duration="64.00" routeLength="231.76" waitingTime="26.00" waitingCount="1" stopTime="0.00" timeLoss="49.53" rerouteNo="0" devices="tripinfo_flow_route_56_duration_20250327_2020.6" vType="car" speedFactor="1.13" vaporized=""/>
    <tripinfo id="flow_route_55_duration_20250327_2020.8" depart="56.00" departLane="1341093415#0_0" departPos="8.35" departSpeed="0.00" departDelay="2.67" arrival="123.00" arrivalLane="791826085_0" arrivalPos="184.96" arrivalSpeed="16.18" duration="67.00" routeLength="366.32" waitingTime="21.00" waitingCount="1" stopTime="0.00" timeLoss="44.19" rerouteNo="0" devices="tripinfo_flow_route_55_duration_20250327_2020.8" vType="car" speedFactor="1.18" vaporized=""/>
    <tripinfo id="flow_route_54_duration_20250327_2020.4" depart="48.00" departLane="1341093415#0_0" departPos="31.90" departSpeed="0.00" departDelay="0.00" arrival="124.00" arrivalLane="1341093416#0_0" arrivalPos="254.48" arrivalSpeed="16.52" duration="76.00" routeLength="429.40" waitingTime="26.00" waitingCount="1" stopTime="0.00" timeLoss="50.07" rerouteNo="0" devices="tripinfo_flow_route_54_duration_20250327_2020.4" vType="car" speedFactor="0.95" vaporized=""/>
</tripinfos>
