<?xml version="1.0" encoding="UTF-8"?>

<!-- generated on 2025-05-06 21:07:51 by Eclipse SUMO sumo Version 1.20.0
<configuration xmlns:xsi="http://www.w3.org/2001/XMLSchema-instance" xsi:noNamespaceSchemaLocation="http://sumo.dlr.de/xsd/sumoConfiguration.xsd">

    <input>
        <net-file value="osm.net.xml"/>
        <route-files value="xml/route_rl_J7_1.rou.xml"/>
    </input>

    <output>
        <tripinfo-output value="xml/tripinfo_rl_J7_1.xml"/>
    </output>

    <traci_server>
        <remote-port value="43361"/>
    </traci_server>

</configuration>
-->

<tripinfos xmlns:xsi="http://www.w3.org/2001/XMLSchema-instance" xsi:noNamespaceSchemaLocation="http://sumo.dlr.de/xsd/tripinfo_file.xsd">
    <tripinfo id="flow_route_131_duration_20250327_2130.0" depart="0.00" departLane="714011134#0_0" departPos="6.35" departSpeed="0.00" departDelay="0.00" arrival="26.00" arrivalLane="134194079#0_1" arrivalPos="73.02" arrivalSpeed="14.32" duration="26.00" routeLength="232.63" waitingTime="0.00" waitingCount="0" stopTime="0.00" timeLoss="9.80" rerouteNo="0" devices="tripinfo_flow_route_131_duration_20250327_2130.0" vType="car" speedFactor="0.89" vaporized=""/>
    <tripinfo id="flow_route_127_duration_20250327_2130.0" depart="0.00" departLane="-138000461_0" departPos="55.90" departSpeed="0.00" departDelay="0.00" arrival="31.00" arrivalLane="189240000#0-AddedOnRampEdge_0" arrivalPos="70.17" arrivalSpeed="14.55" duration="31.00" routeLength="273.38" waitingTime="0.00" waitingCount="0" stopTime="0.00" timeLoss="13.71" rerouteNo="0" devices="tripinfo_flow_route_127_duration_20250327_2130.0" vType="car" speedFactor="1.05" vaporized=""/>
    <tripinfo id="flow_route_132_duration_20250327_2130.0" depart="0.00" departLane="714011134#0_0" departPos="92.28" departSpeed="0.00" departDelay="0.00" arrival="34.00" arrivalLane="189240000#0-AddedOnRampEdge_1" arrivalPos="51.48" arrivalSpeed="15.25" duration="34.00" routeLength="375.34" waitingTime="0.00" waitingCount="0" stopTime="0.00" timeLoss="9.99" rerouteNo="0" devices="tripinfo_flow_route_132_duration_20250327_2130.0" vType="car" speedFactor="0.94" vaporized=""/>
    <tripinfo id="flow_route_121_duration_20250327_2130.0" depart="1.00" departLane="799091563#0_0" departPos="259.58" departSpeed="0.00" departDelay="1.00" arrival="35.00" arrivalLane="134194079#0_0" arrivalPos="144.99" arrivalSpeed="15.85" duration="34.00" routeLength="274.57" waitingTime="0.00" waitingCount="0" stopTime="0.00" timeLoss="16.17" rerouteNo="0" devices="tripinfo_flow_route_121_duration_20250327_2130.0" vType="car" speedFactor="1.08" vaporized=""/>
    <tripinfo id="flow_route_116_duration_20250327_2130.0" depart="0.00" departLane="177211987#1_0" departPos="0.88" departSpeed="0.00" departDelay="0.00" arrival="39.00" arrivalLane="688883939#0_1" arrivalPos="93.94" arrivalSpeed="16.42" duration="39.00" routeLength="448.08" waitingTime="0.00" waitingCount="0" stopTime="0.00" timeLoss="11.13" rerouteNo="0" devices="tripinfo_flow_route_116_duration_20250327_2130.0" vType="car" speedFactor="1.06" vaporized=""/>
    <tripinfo id="flow_route_127_duration_20250327_2130.1" depart="9.00" departLane="-138000461_0" departPos="50.03" departSpeed="0.00" departDelay="1.50" arrival="41.00" arrivalLane="189240000#0-AddedOnRampEdge_0" arrivalPos="88.65" arrivalSpeed="14.69" duration="32.00" routeLength="297.74" waitingTime="0.00" waitingCount="0" stopTime="0.00" timeLoss="13.75" rerouteNo="0" devices="tripinfo_flow_route_127_duration_20250327_2130.1" vType="car" speedFactor="1.05" vaporized=""/>
    <tripinfo id="flow_route_132_duration_20250327_2130.1" depart="8.00" departLane="714011134#0_0" departPos="86.87" departSpeed="0.00" departDelay="1.33" arrival="42.00" arrivalLane="189240000#0-AddedOnRampEdge_1" arrivalPos="48.43" arrivalSpeed="16.26" duration="34.00" routeLength="377.70" waitingTime="0.00" waitingCount="0" stopTime="0.00" timeLoss="10.68" rerouteNo="0" devices="tripinfo_flow_route_132_duration_20250327_2130.1" vType="car" speedFactor="1.09" vaporized=""/>
    <tripinfo id="flow_route_127_duration_20250327_2130.3" depart="24.00" departLane="-138000461_0" departPos="126.00" departSpeed="0.00" departDelay="1.50" arrival="44.00" arrivalLane="189240000#0-AddedOnRampEdge_0" arrivalPos="8.40" arrivalSpeed="10.00" duration="20.00" routeLength="141.51" waitingTime="0.00" waitingCount="0" stopTime="0.00" timeLoss="10.85" rerouteNo="0" devices="tripinfo_flow_route_127_duration_20250327_2130.3" vType="car" speedFactor="0.97" vaporized=""/>
    <tripinfo id="flow_route_132_duration_20250327_2130.2" depart="15.00" departLane="714011134#0_0" departPos="34.92" departSpeed="0.00" departDelay="1.67" arrival="50.00" arrivalLane="189240000#0-AddedOnRampEdge_1" arrivalPos="15.02" arrivalSpeed="15.20" duration="35.00" routeLength="396.24" waitingTime="0.00" waitingCount="0" stopTime="0.00" timeLoss="9.03" rerouteNo="0" devices="tripinfo_flow_route_132_duration_20250327_2130.2" vType="car" speedFactor="0.93" vaporized=""/>
    <tripinfo id="flow_route_127_duration_20250327_2130.2" depart="15.00" departLane="-138000461_0" departPos="26.50" departSpeed="0.00" departDelay="0.00" arrival="51.00" arrivalLane="189240000#0-AddedOnRampEdge_0" arrivalPos="64.68" arrivalSpeed="12.89" duration="36.00" routeLength="297.29" waitingTime="0.00" waitingCount="0" stopTime="0.00" timeLoss="16.32" rerouteNo="0" devices="tripinfo_flow_route_127_duration_20250327_2130.2" vType="car" speedFactor="0.94" vaporized=""/>
    <tripinfo id="flow_route_126_duration_20250327_2130.0" depart="0.00" departLane="-138000461_0" departPos="119.67" departSpeed="0.00" departDelay="0.00" arrival="52.00" arrivalLane="138000492#0_1" arrivalPos="18.35" arrivalSpeed="13.52" duration="52.00" routeLength="582.25" waitingTime="0.00" waitingCount="0" stopTime="0.00" timeLoss="9.13" rerouteNo="0" devices="tripinfo_flow_route_126_duration_20250327_2130.0" vType="car" speedFactor="0.83" vaporized=""/>
    <tripinfo id="flow_route_132_duration_20250327_2130.3" depart="20.00" departLane="714011134#0_0" departPos="25.44" departSpeed="0.00" departDelay="0.00" arrival="55.00" arrivalLane="189240000#0-AddedOnRampEdge_1" arrivalPos="15.86" arrivalSpeed="16.47" duration="35.00" routeLength="406.56" waitingTime="0.00" waitingCount="0" stopTime="0.00" timeLoss="9.92" rerouteNo="0" devices="tripinfo_flow_route_132_duration_20250327_2130.3" vType="car" speedFactor="1.02" vaporized=""/>
    <tripinfo id="flow_route_133_duration_20250327_2130.0" depart="0.00" departLane="714011134#0_0" departPos="33.93" departSpeed="0.00" departDelay="0.00" arrival="59.00" arrivalLane="138000492#0_0" arrivalPos="313.58" arrivalSpeed="13.96" duration="59.00" routeLength="604.48" waitingTime="0.00" waitingCount="0" stopTime="0.00" timeLoss="15.60" rerouteNo="0" devices="tripinfo_flow_route_133_duration_20250327_2130.0" vType="car" speedFactor="0.86" vaporized=""/>
    <tripinfo id="flow_route_117_duration_20250327_2130.0" depart="0.00" departLane="177211987#1_0" departPos="98.51" departSpeed="0.00" departDelay="0.00" arrival="62.00" arrivalLane="138000492#0_0" arrivalPos="299.85" arrivalSpeed="15.26" duration="62.00" routeLength="701.60" waitingTime="0.00" waitingCount="0" stopTime="0.00" timeLoss="16.67" rerouteNo="0" devices="tripinfo_flow_route_117_duration_20250327_2130.0" vType="car" speedFactor="0.94" vaporized=""/>
    <tripinfo id="flow_route_127_duration_20250327_2130.5" depart="40.00" departLane="-138000461_0" departPos="152.55" departSpeed="0.00" departDelay="2.50" arrival="62.00" arrivalLane="189240000#0-AddedOnRampEdge_0" arrivalPos="8.12" arrivalSpeed="10.18" duration="22.00" routeLength="114.68" waitingTime="0.00" waitingCount="0" stopTime="0.00" timeLoss="14.36" rerouteNo="0" devices="tripinfo_flow_route_127_duration_20250327_2130.5" vType="car" speedFactor="1.01" vaporized=""/>
    <tripinfo id="flow_route_127_duration_20250327_2130.6" depart="47.00" departLane="-138000461_0" departPos="206.43" departSpeed="0.00" departDelay="2.00" arrival="65.00" arrivalLane="189240000#0-AddedOnRampEdge_0" arrivalPos="58.07" arrivalSpeed="12.90" duration="18.00" routeLength="110.75" waitingTime="0.00" waitingCount="0" stopTime="0.00" timeLoss="10.41" rerouteNo="0" devices="tripinfo_flow_route_127_duration_20250327_2130.6" vType="car" speedFactor="1.18" vaporized=""/>
    <tripinfo id="flow_route_117_duration_20250327_2130.1" depart="10.00" departLane="177211987#1_0" departPos="111.90" departSpeed="0.00" departDelay="0.00" arrival="68.00" arrivalLane="138000492#0_0" arrivalPos="126.99" arrivalSpeed="14.51" duration="58.00" routeLength="515.35" waitingTime="4.00" waitingCount="1" stopTime="0.00" timeLoss="26.45" rerouteNo="0" devices="tripinfo_flow_route_117_duration_20250327_2130.1" vType="car" speedFactor="0.99" vaporized=""/>
    <tripinfo id="flow_route_127_duration_20250327_2130.4" depart="30.00" departLane="-138000461_0" departPos="5.88" departSpeed="0.00" departDelay="0.00" arrival="70.00" arrivalLane="189240000#0-AddedOnRampEdge_0" arrivalPos="90.15" arrivalSpeed="14.89" duration="40.00" routeLength="343.38" waitingTime="0.00" waitingCount="0" stopTime="0.00" timeLoss="18.93" rerouteNo="0" devices="tripinfo_flow_route_127_duration_20250327_2130.4" vType="car" speedFactor="1.13" vaporized=""/>
    <tripinfo id="flow_route_132_duration_20250327_2130.4" depart="27.00" departLane="714011134#0_0" departPos="32.44" departSpeed="0.00" departDelay="0.34" arrival="72.00" arrivalLane="189240000#0-AddedOnRampEdge_1" arrivalPos="90.63" arrivalSpeed="13.36" duration="45.00" routeLength="474.33" waitingTime="0.00" waitingCount="0" stopTime="0.00" timeLoss="9.66" rerouteNo="0" devices="tripinfo_flow_route_132_duration_20250327_2130.4" vType="car" speedFactor="0.83" vaporized=""/>
    <tripinfo id="flow_route_132_duration_20250327_2130.6" depart="40.00" departLane="714011134#0_0" departPos="30.57" departSpeed="0.00" departDelay="0.00" arrival="75.00" arrivalLane="189240000#0-AddedOnRampEdge_1" arrivalPos="7.55" arrivalSpeed="16.12" duration="35.00" routeLength="393.13" waitingTime="0.00" waitingCount="0" stopTime="0.00" timeLoss="10.56" rerouteNo="0" devices="tripinfo_flow_route_132_duration_20250327_2130.6" vType="car" speedFactor="0.99" vaporized=""/>
    <tripinfo id="flow_route_127_duration_20250327_2130.7" depart="53.00" departLane="-138000461_0" departPos="150.20" departSpeed="0.00" departDelay="0.50" arrival="75.00" arrivalLane="189240000#0-AddedOnRampEdge_0" arrivalPos="46.51" arrivalSpeed="13.34" duration="22.00" routeLength="155.42" waitingTime="0.00" waitingCount="0" stopTime="0.00" timeLoss="11.78" rerouteNo="0" devices="tripinfo_flow_route_127_duration_20250327_2130.7" vType="car" speedFactor="1.09" vaporized=""/>
    <tripinfo id="flow_route_132_duration_20250327_2130.5" depart="35.00" departLane="714011134#0_0" departPos="7.06" departSpeed="0.00" departDelay="1.67" arrival="79.00" arrivalLane="189240000#0-AddedOnRampEdge_1" arrivalPos="26.33" arrivalSpeed="15.11" duration="44.00" routeLength="435.41" waitingTime="0.00" waitingCount="0" stopTime="0.00" timeLoss="15.01" rerouteNo="0" devices="tripinfo_flow_route_132_duration_20250327_2130.5" vType="car" speedFactor="0.93" vaporized=""/>
    <tripinfo id="flow_route_122_duration_20250327_2130.1" depart="30.00" departLane="799091563#0_0" departPos="57.65" departSpeed="0.00" departDelay="0.00" arrival="90.00" arrivalLane="688883939#0_2" arrivalPos="17.75" arrivalSpeed="11.33" duration="60.00" routeLength="398.74" waitingTime="13.00" waitingCount="1" stopTime="0.00" timeLoss="34.48" rerouteNo="0" devices="tripinfo_flow_route_122_duration_20250327_2130.1" vType="car" speedFactor="0.95" vaporized=""/>
    <tripinfo id="flow_route_132_duration_20250327_2130.8" depart="54.00" departLane="714011134#0_0" departPos="60.46" departSpeed="0.00" departDelay="0.67" arrival="90.00" arrivalLane="189240000#0-AddedOnRampEdge_1" arrivalPos="43.03" arrivalSpeed="16.59" duration="36.00" routeLength="398.71" waitingTime="0.00" waitingCount="0" stopTime="0.00" timeLoss="11.14" rerouteNo="0" devices="tripinfo_flow_route_132_duration_20250327_2130.8" vType="car" speedFactor="1.04" vaporized=""/>
    <tripinfo id="flow_route_122_duration_20250327_2130.0" depart="1.00" departLane="799091563#0_0" departPos="17.54" departSpeed="0.00" departDelay="1.00" arrival="91.00" arrivalLane="688883939#0_2" arrivalPos="62.20" arrivalSpeed="13.49" duration="90.00" routeLength="483.30" waitingTime="37.00" waitingCount="1" stopTime="0.00" timeLoss="60.84" rerouteNo="0" devices="tripinfo_flow_route_122_duration_20250327_2130.0" vType="car" speedFactor="1.03" vaporized=""/>
    <tripinfo id="flow_route_132_duration_20250327_2130.7" depart="47.00" departLane="714011134#0_0" departPos="2.51" departSpeed="0.00" departDelay="0.34" arrival="91.00" arrivalLane="189240000#0-AddedOnRampEdge_1" arrivalPos="39.39" arrivalSpeed="16.47" duration="44.00" routeLength="453.01" waitingTime="0.00" waitingCount="0" stopTime="0.00" timeLoss="16.28" rerouteNo="0" devices="tripinfo_flow_route_132_duration_20250327_2130.7" vType="car" speedFactor="1.10" vaporized=""/>
    <tripinfo id="flow_route_121_duration_20250327_2130.1" depart="9.00" departLane="799091563#0_0" departPos="12.31" departSpeed="0.00" departDelay="0.43" arrival="99.00" arrivalLane="134194079#0_0" arrivalPos="160.58" arrivalSpeed="15.99" duration="90.00" routeLength="537.43" waitingTime="26.00" waitingCount="1" stopTime="0.00" timeLoss="56.31" rerouteNo="0" devices="tripinfo_flow_route_121_duration_20250327_2130.1" vType="car" speedFactor="1.12" vaporized=""/>
    <tripinfo id="flow_route_121_duration_20250327_2130.2" depart="19.00" departLane="799091563#0_0" departPos="100.27" departSpeed="0.00" departDelay="1.86" arrival="100.00" arrivalLane="134194079#0_0" arrivalPos="121.36" arrivalSpeed="14.30" duration="81.00" routeLength="410.24" waitingTime="25.00" waitingCount="1" stopTime="0.00" timeLoss="53.15" rerouteNo="0" devices="tripinfo_flow_route_121_duration_20250327_2130.2" vType="car" speedFactor="0.94" vaporized=""/>
    <tripinfo id="flow_route_121_duration_20250327_2130.3" depart="26.00" departLane="799091563#0_0" departPos="355.06" departSpeed="0.00" departDelay="0.29" arrival="100.00" arrivalLane="134194079#0_0" arrivalPos="204.04" arrivalSpeed="14.39" duration="74.00" routeLength="238.14" waitingTime="41.00" waitingCount="1" stopTime="0.00" timeLoss="56.74" rerouteNo="0" devices="tripinfo_flow_route_121_duration_20250327_2130.3" vType="car" speedFactor="0.89" vaporized=""/>
    <tripinfo id="flow_route_121_duration_20250327_2130.5" depart="43.00" departLane="799091563#0_0" departPos="257.71" departSpeed="0.00" departDelay="0.15" arrival="101.00" arrivalLane="134194079#0_0" arrivalPos="62.65" arrivalSpeed="11.52" duration="58.00" routeLength="194.10" waitingTime="17.00" waitingCount="1" stopTime="0.00" timeLoss="45.23" rerouteNo="0" devices="tripinfo_flow_route_121_duration_20250327_2130.5" vType="car" speedFactor="1.02" vaporized=""/>
    <tripinfo id="flow_route_120_duration_20250327_2130.0" depart="0.00" departLane="799091563#0_0" departPos="177.01" departSpeed="0.00" departDelay="0.00" arrival="110.00" arrivalLane="138000492#0_0" arrivalPos="19.14" arrivalSpeed="9.59" duration="110.00" routeLength="440.29" waitingTime="46.00" waitingCount="3" stopTime="0.00" timeLoss="83.04" rerouteNo="0" devices="tripinfo_flow_route_120_duration_20250327_2130.0" vType="car" speedFactor="1.01" vaporized=""/>
    <tripinfo id="flow_route_120_duration_20250327_2130.2" depart="15.00" departLane="799091563#0_0" departPos="49.13" departSpeed="0.00" departDelay="0.00" arrival="116.00" arrivalLane="138000492#0_1" arrivalPos="12.55" arrivalSpeed="12.03" duration="101.00" routeLength="561.58" waitingTime="25.00" waitingCount="1" stopTime="0.00" timeLoss="62.17" rerouteNo="0" devices="tripinfo_flow_route_120_duration_20250327_2130.2" vType="car" speedFactor="0.88" vaporized=""/>
    <tripinfo id="flow_route_121_duration_20250327_2130.6" depart="52.00" departLane="799091563#0_0" departPos="237.41" departSpeed="0.00" departDelay="0.57" arrival="117.00" arrivalLane="134194079#0_0" arrivalPos="258.30" arrivalSpeed="16.21" duration="65.00" routeLength="410.05" waitingTime="11.00" waitingCount="1" stopTime="0.00" timeLoss="38.15" rerouteNo="0" devices="tripinfo_flow_route_121_duration_20250327_2130.6" vType="car" speedFactor="1.03" vaporized=""/>
    <tripinfo id="flow_route_120_duration_20250327_2130.1" depart="8.00" departLane="799091563#0_0" departPos="337.05" departSpeed="0.00" departDelay="0.50" arrival="119.00" arrivalLane="138000492#0_1" arrivalPos="266.59" arrivalSpeed="16.51" duration="111.00" routeLength="527.70" waitingTime="56.00" waitingCount="1" stopTime="0.00" timeLoss="79.14" rerouteNo="0" devices="tripinfo_flow_route_120_duration_20250327_2130.1" vType="car" speedFactor="1.03" vaporized=""/>
    <tripinfo id="flow_route_121_duration_20250327_2130.4" depart="37.00" departLane="799091563#0_0" departPos="119.18" departSpeed="0.00" departDelay="2.72" arrival="119.00" arrivalLane="134194079#0_0" arrivalPos="273.81" arrivalSpeed="16.37" duration="82.00" routeLength="543.79" waitingTime="10.00" waitingCount="1" stopTime="0.00" timeLoss="48.32" rerouteNo="0" devices="tripinfo_flow_route_121_duration_20250327_2130.4" vType="car" speedFactor="1.18" vaporized=""/>
    <tripinfo id="flow_route_120_duration_20250327_2130.5" depart="38.00" departLane="799091563#0_0" departPos="215.36" departSpeed="0.00" departDelay="0.50" arrival="129.00" arrivalLane="138000492#0_1" arrivalPos="142.67" arrivalSpeed="16.14" duration="91.00" routeLength="525.47" waitingTime="20.00" waitingCount="1" stopTime="0.00" timeLoss="58.85" rerouteNo="0" devices="tripinfo_flow_route_120_duration_20250327_2130.5" vType="car" speedFactor="1.15" vaporized=""/>
    <tripinfo id="flow_route_120_duration_20250327_2130.6" depart="47.00" departLane="799091563#0_0" departPos="138.66" departSpeed="0.00" departDelay="2.00" arrival="131.00" arrivalLane="138000492#0_2" arrivalPos="178.11" arrivalSpeed="15.88" duration="84.00" routeLength="637.60" waitingTime="6.00" waitingCount="1" stopTime="0.00" timeLoss="44.38" rerouteNo="0" devices="tripinfo_flow_route_120_duration_20250327_2130.6" vType="car" speedFactor="0.97" vaporized=""/>
    <tripinfo id="flow_route_120_duration_20250327_2130.4" depart="30.00" departLane="799091563#0_0" departPos="243.64" departSpeed="0.00" departDelay="0.00" arrival="132.00" arrivalLane="138000492#0_2" arrivalPos="244.12" arrivalSpeed="14.97" duration="102.00" routeLength="598.63" waitingTime="26.00" waitingCount="1" stopTime="0.00" timeLoss="62.63" rerouteNo="0" devices="tripinfo_flow_route_120_duration_20250327_2130.4" vType="car" speedFactor="0.92" vaporized=""/>
    <tripinfo id="flow_route_120_duration_20250327_2130.3" depart="23.00" departLane="799091563#0_0" departPos="253.70" departSpeed="0.00" departDelay="0.50" arrival="134.00" arrivalLane="138000492#0_1" arrivalPos="341.60" arrivalSpeed="16.58" duration="111.00" routeLength="686.06" waitingTime="33.00" waitingCount="1" stopTime="0.00" timeLoss="68.63" rerouteNo="0" devices="tripinfo_flow_route_120_duration_20250327_2130.3" vType="car" speedFactor="1.01" vaporized=""/>
    <tripinfo id="flow_route_120_duration_20250327_2130.7" depart="54.00" departLane="799091563#0_0" departPos="331.81" departSpeed="0.00" departDelay="1.50" arrival="139.00" arrivalLane="138000492#0_0" arrivalPos="389.24" arrivalSpeed="15.78" duration="85.00" routeLength="655.59" waitingTime="17.00" waitingCount="1" stopTime="0.00" timeLoss="43.69" rerouteNo="0" devices="tripinfo_flow_route_120_duration_20250327_2130.7" vType="car" speedFactor="0.96" vaporized=""/>
    <tripinfo id="flow_route_117_duration_20250327_2130.4" depart="40.00" departLane="177211987#1_0" departPos="51.50" departSpeed="0.00" departDelay="0.00" arrival="179.00" arrivalLane="138000492#0_2" arrivalPos="19.71" arrivalSpeed="11.73" duration="139.00" routeLength="468.47" waitingTime="83.00" waitingCount="1" stopTime="0.00" timeLoss="110.58" rerouteNo="0" devices="tripinfo_flow_route_117_duration_20250327_2130.4" vType="car" speedFactor="1.17" vaporized=""/>
    <tripinfo id="flow_route_117_duration_20250327_2130.2" depart="20.00" departLane="177211987#1_0" departPos="83.67" departSpeed="0.00" departDelay="0.00" arrival="184.00" arrivalLane="138000492#0_1" arrivalPos="93.90" arrivalSpeed="13.87" duration="164.00" routeLength="510.50" waitingTime="102.00" waitingCount="1" stopTime="0.00" timeLoss="133.06" rerouteNo="0" devices="tripinfo_flow_route_117_duration_20250327_2130.2" vType="car" speedFactor="1.16" vaporized=""/>
    <tripinfo id="flow_route_117_duration_20250327_2130.5" depart="50.00" departLane="177211987#1_0" departPos="15.33" departSpeed="0.00" departDelay="0.00" arrival="190.00" arrivalLane="138000492#0_1" arrivalPos="127.40" arrivalSpeed="14.61" duration="140.00" routeLength="612.34" waitingTime="72.00" waitingCount="1" stopTime="0.00" timeLoss="98.20" rerouteNo="0" devices="tripinfo_flow_route_117_duration_20250327_2130.5" vType="car" speedFactor="0.90" vaporized=""/>
    <tripinfo id="flow_route_117_duration_20250327_2130.3" depart="30.00" departLane="177211987#1_0" departPos="26.84" departSpeed="0.00" departDelay="0.00" arrival="194.00" arrivalLane="138000492#0_2" arrivalPos="207.29" arrivalSpeed="14.11" duration="164.00" routeLength="680.72" waitingTime="89.00" waitingCount="1" stopTime="0.00" timeLoss="116.65" rerouteNo="0" devices="tripinfo_flow_route_117_duration_20250327_2130.3" vType="car" speedFactor="0.87" vaporized=""/>
</tripinfos>
