<?xml version="1.0" encoding="UTF-8"?>

<!-- generated on 2025-05-06 21:07:41 by Eclipse SUMO sumo Version 1.20.0
<configuration xmlns:xsi="http://www.w3.org/2001/XMLSchema-instance" xsi:noNamespaceSchemaLocation="http://sumo.dlr.de/xsd/sumoConfiguration.xsd">

    <input>
        <net-file value="osm.net.xml"/>
        <route-files value="xml/route_rl_cluster_11644940323_11644940324_3828703845_0.rou.xml"/>
    </input>

    <output>
        <tripinfo-output value="xml/tripinfo_rl_cluster_11644940323_11644940324_3828703845_0.xml"/>
    </output>

    <traci_server>
        <remote-port value="39957"/>
    </traci_server>

</configuration>
-->

<tripinfos xmlns:xsi="http://www.w3.org/2001/XMLSchema-instance" xsi:noNamespaceSchemaLocation="http://sumo.dlr.de/xsd/tripinfo_file.xsd">
    <tripinfo id="flow_route_3_duration_20250327_1920.0" depart="0.00" departLane="1318793173#0_0" departPos="80.53" departSpeed="0.00" departDelay="0.00" arrival="19.00" arrivalLane="291974733#0_1" arrivalPos="66.76" arrivalSpeed="13.56" duration="19.00" routeLength="123.20" waitingTime="0.00" waitingCount="0" stopTime="0.00" timeLoss="10.31" rerouteNo="0" devices="tripinfo_flow_route_3_duration_20250327_1920.0" vType="car" speedFactor="0.94" vaporized=""/>
    <tripinfo id="flow_route_2_duration_20250327_1920.2" depart="1.00" departLane="1318793173#0_0" departPos="104.24" departSpeed="0.00" departDelay="0.91" arrival="19.00" arrivalLane="189835257_0" arrivalPos="46.11" arrivalSpeed="12.83" duration="18.00" routeLength="121.81" waitingTime="0.00" waitingCount="0" stopTime="0.00" timeLoss="8.81" rerouteNo="0" devices="tripinfo_flow_route_2_duration_20250327_1920.2" vType="car" speedFactor="0.86" vaporized=""/>
    <tripinfo id="flow_route_16_duration_20250327_1920.1" depart="5.00" departLane="137406408#0_0" departPos="92.00" departSpeed="0.00" departDelay="2.50" arrival="19.00" arrivalLane="133126040#0_0" arrivalPos="45.98" arrivalSpeed="10.28" duration="14.00" routeLength="75.17" waitingTime="0.00" waitingCount="0" stopTime="0.00" timeLoss="9.24" rerouteNo="0" devices="tripinfo_flow_route_16_duration_20250327_1920.1" vType="car" speedFactor="0.97" vaporized=""/>
    <tripinfo id="flow_route_16_duration_20250327_1920.0" depart="0.00" departLane="137406408#0_0" departPos="52.27" departSpeed="0.00" departDelay="0.00" arrival="21.00" arrivalLane="133126040#0_1" arrivalPos="80.39" arrivalSpeed="15.10" duration="21.00" routeLength="149.31" waitingTime="0.00" waitingCount="0" stopTime="0.00" timeLoss="11.39" rerouteNo="0" devices="tripinfo_flow_route_16_duration_20250327_1920.0" vType="car" speedFactor="1.05" vaporized=""/>
    <tripinfo id="flow_route_2_duration_20250327_1920.6" depart="6.00" departLane="1318793173#0_0" departPos="101.66" departSpeed="0.00" departDelay="5.72" arrival="23.00" arrivalLane="189835257_0" arrivalPos="27.01" arrivalSpeed="12.43" duration="17.00" routeLength="105.29" waitingTime="0.00" waitingCount="0" stopTime="0.00" timeLoss="9.94" rerouteNo="0" devices="tripinfo_flow_route_2_duration_20250327_1920.6" vType="car" speedFactor="1.12" vaporized=""/>
    <tripinfo id="flow_route_2_duration_20250327_1920.4" depart="3.00" departLane="1318793173#0_0" departPos="76.81" departSpeed="0.00" departDelay="2.81" arrival="26.00" arrivalLane="189835257_0" arrivalPos="36.00" arrivalSpeed="12.89" duration="23.00" routeLength="139.13" waitingTime="0.00" waitingCount="0" stopTime="0.00" timeLoss="13.47" rerouteNo="0" devices="tripinfo_flow_route_2_duration_20250327_1920.4" vType="car" speedFactor="1.03" vaporized=""/>
    <tripinfo id="flow_route_2_duration_20250327_1920.1" depart="1.00" departLane="1318793173#0_0" departPos="44.45" departSpeed="0.00" departDelay="0.95" arrival="27.00" arrivalLane="189835257_0" arrivalPos="3.17" arrivalSpeed="12.53" duration="26.00" routeLength="138.66" waitingTime="0.00" waitingCount="0" stopTime="0.00" timeLoss="15.63" rerouteNo="0" devices="tripinfo_flow_route_2_duration_20250327_1920.1" vType="car" speedFactor="0.94" vaporized=""/>
    <tripinfo id="flow_route_2_duration_20250327_1920.0" depart="0.00" departLane="1318793173#0_0" departPos="58.93" departSpeed="0.00" departDelay="0.00" arrival="28.00" arrivalLane="189835257_0" arrivalPos="46.92" arrivalSpeed="13.79" duration="28.00" routeLength="167.93" waitingTime="0.00" waitingCount="0" stopTime="0.00" timeLoss="17.17" rerouteNo="0" devices="tripinfo_flow_route_2_duration_20250327_1920.0" vType="car" speedFactor="1.06" vaporized=""/>
    <tripinfo id="flow_route_2_duration_20250327_1920.3" depart="1.00" departLane="1318793173#0_0" departPos="28.54" departSpeed="0.00" departDelay="0.86" arrival="30.00" arrivalLane="189835257_0" arrivalPos="16.95" arrivalSpeed="13.41" duration="29.00" routeLength="168.36" waitingTime="0.00" waitingCount="0" stopTime="0.00" timeLoss="17.64" rerouteNo="0" devices="tripinfo_flow_route_2_duration_20250327_1920.3" vType="car" speedFactor="1.09" vaporized=""/>
    <tripinfo id="flow_route_2_duration_20250327_1920.5" depart="6.00" departLane="1318793173#0_0" departPos="25.77" departSpeed="0.00" departDelay="5.77" arrival="30.00" arrivalLane="189835257_0" arrivalPos="2.43" arrivalSpeed="12.57" duration="24.00" routeLength="156.61" waitingTime="0.00" waitingCount="0" stopTime="0.00" timeLoss="13.69" rerouteNo="0" devices="tripinfo_flow_route_2_duration_20250327_1920.5" vType="car" speedFactor="1.05" vaporized=""/>
    <tripinfo id="flow_route_16_duration_20250327_1920.3" depart="9.00" departLane="137406408#0_0" departPos="46.73" departSpeed="0.00" departDelay="1.50" arrival="30.00" arrivalLane="133126040#0_1" arrivalPos="86.15" arrivalSpeed="15.32" duration="21.00" routeLength="160.61" waitingTime="0.00" waitingCount="0" stopTime="0.00" timeLoss="11.15" rerouteNo="0" devices="tripinfo_flow_route_16_duration_20250327_1920.3" vType="car" speedFactor="1.07" vaporized=""/>
    <tripinfo id="flow_route_17_duration_20250327_1920.0" depart="0.00" departLane="137406408#0_0" departPos="24.41" departSpeed="0.00" departDelay="0.00" arrival="31.00" arrivalLane="1254771874#0_0" arrivalPos="63.27" arrivalSpeed="14.32" duration="31.00" routeLength="182.06" waitingTime="0.00" waitingCount="0" stopTime="0.00" timeLoss="18.47" rerouteNo="0" devices="tripinfo_flow_route_17_duration_20250327_1920.0" vType="car" speedFactor="0.89" vaporized=""/>
    <tripinfo id="flow_route_17_duration_20250327_1920.1" depart="10.00" departLane="137406408#0_0" departPos="82.36" departSpeed="0.00" departDelay="2.50" arrival="32.00" arrivalLane="1254771874#0_0" arrivalPos="122.44" arrivalSpeed="15.68" duration="22.00" routeLength="183.29" waitingTime="0.00" waitingCount="0" stopTime="0.00" timeLoss="10.53" rerouteNo="0" devices="tripinfo_flow_route_17_duration_20250327_1920.1" vType="car" speedFactor="1.07" vaporized=""/>
    <tripinfo id="flow_route_16_duration_20250327_1920.4" depart="10.00" departLane="137406408#0_0" departPos="20.35" departSpeed="0.00" departDelay="0.00" arrival="32.00" arrivalLane="133126040#0_1" arrivalPos="58.45" arrivalSpeed="14.27" duration="22.00" routeLength="159.29" waitingTime="0.00" waitingCount="0" stopTime="0.00" timeLoss="10.37" rerouteNo="0" devices="tripinfo_flow_route_16_duration_20250327_1920.4" vType="car" speedFactor="0.87" vaporized=""/>
    <tripinfo id="flow_route_16_duration_20250327_1920.2" depart="8.00" departLane="137406408#0_0" departPos="31.51" departSpeed="0.00" departDelay="3.00" arrival="33.00" arrivalLane="133126040#0_0" arrivalPos="88.62" arrivalSpeed="14.37" duration="25.00" routeLength="178.30" waitingTime="0.00" waitingCount="0" stopTime="0.00" timeLoss="13.54" rerouteNo="0" devices="tripinfo_flow_route_16_duration_20250327_1920.2" vType="car" speedFactor="1.02" vaporized=""/>
    <tripinfo id="flow_route_16_duration_20250327_1920.6" depart="18.00" departLane="137406408#0_0" departPos="70.07" departSpeed="0.00" departDelay="3.00" arrival="38.00" arrivalLane="133126040#0_0" arrivalPos="98.99" arrivalSpeed="15.12" duration="20.00" routeLength="150.11" waitingTime="0.00" waitingCount="0" stopTime="0.00" timeLoss="10.42" rerouteNo="0" devices="tripinfo_flow_route_16_duration_20250327_1920.6" vType="car" speedFactor="1.10" vaporized=""/>
    <tripinfo id="flow_route_16_duration_20250327_1920.9" depart="28.00" departLane="137406408#0_0" departPos="90.08" departSpeed="0.00" departDelay="5.50" arrival="39.00" arrivalLane="133126040#0_0" arrivalPos="9.04" arrivalSpeed="8.22" duration="11.00" routeLength="40.15" waitingTime="0.00" waitingCount="0" stopTime="0.00" timeLoss="8.21" rerouteNo="0" devices="tripinfo_flow_route_16_duration_20250327_1920.9" vType="car" speedFactor="1.11" vaporized=""/>
    <tripinfo id="flow_route_2_duration_20250327_1920.7" depart="13.00" departLane="1318793173#0_0" departPos="30.73" departSpeed="0.00" departDelay="12.67" arrival="40.00" arrivalLane="189835257_0" arrivalPos="16.17" arrivalSpeed="12.99" duration="27.00" routeLength="165.38" waitingTime="0.00" waitingCount="0" stopTime="0.00" timeLoss="15.71" rerouteNo="0" devices="tripinfo_flow_route_2_duration_20250327_1920.7" vType="car" speedFactor="0.99" vaporized=""/>
    <tripinfo id="flow_route_2_duration_20250327_1920.9" depart="21.00" departLane="1318793173#0_0" departPos="89.37" departSpeed="0.00" departDelay="20.58" arrival="40.00" arrivalLane="189835257_0" arrivalPos="49.45" arrivalSpeed="14.30" duration="19.00" routeLength="140.02" waitingTime="0.00" waitingCount="0" stopTime="0.00" timeLoss="8.30" rerouteNo="0" devices="tripinfo_flow_route_2_duration_20250327_1920.9" vType="car" speedFactor="0.88" vaporized=""/>
    <tripinfo id="flow_route_2_duration_20250327_1920.8" depart="13.00" departLane="1318793173#0_0" departPos="20.57" departSpeed="0.00" departDelay="12.62" arrival="43.00" arrivalLane="189835257_0" arrivalPos="33.36" arrivalSpeed="14.43" duration="30.00" routeLength="192.73" waitingTime="0.00" waitingCount="0" stopTime="0.00" timeLoss="16.25" rerouteNo="0" devices="tripinfo_flow_route_2_duration_20250327_1920.8" vType="car" speedFactor="0.93" vaporized=""/>
    <tripinfo id="flow_route_2_duration_20250327_1920.10" depart="23.00" departLane="1318793173#0_0" departPos="41.99" departSpeed="0.00" departDelay="22.53" arrival="46.00" arrivalLane="189835257_0" arrivalPos="43.41" arrivalSpeed="15.24" duration="23.00" routeLength="181.36" waitingTime="0.00" waitingCount="0" stopTime="0.00" timeLoss="10.92" rerouteNo="0" devices="tripinfo_flow_route_2_duration_20250327_1920.10" vType="car" speedFactor="0.94" vaporized=""/>
    <tripinfo id="flow_route_2_duration_20250327_1920.12" depart="24.00" departLane="1318793173#0_0" departPos="26.52" departSpeed="0.00" departDelay="23.44" arrival="46.00" arrivalLane="189835257_0" arrivalPos="20.88" arrivalSpeed="14.41" duration="22.00" routeLength="174.30" waitingTime="0.00" waitingCount="0" stopTime="0.00" timeLoss="11.18" rerouteNo="0" devices="tripinfo_flow_route_2_duration_20250327_1920.12" vType="car" speedFactor="1.16" vaporized=""/>
    <tripinfo id="flow_route_9_duration_20250327_1920.0" depart="0.00" departLane="1318793173#0_0" departPos="0.65" departSpeed="0.00" departDelay="0.00" arrival="49.00" arrivalLane="1254771874#0_1" arrivalPos="11.63" arrivalSpeed="9.06" duration="49.00" routeLength="169.44" waitingTime="19.00" waitingCount="1" stopTime="0.00" timeLoss="37.09" rerouteNo="0" devices="tripinfo_flow_route_9_duration_20250327_1920.0" vType="car" speedFactor="1.01" vaporized=""/>
    <tripinfo id="flow_route_2_duration_20250327_1920.15" depart="33.00" departLane="1318793173#0_0" departPos="51.59" departSpeed="0.00" departDelay="32.30" arrival="55.00" arrivalLane="189835257_0" arrivalPos="1.71" arrivalSpeed="11.85" duration="22.00" routeLength="130.06" waitingTime="0.00" waitingCount="0" stopTime="0.00" timeLoss="13.08" rerouteNo="0" devices="tripinfo_flow_route_2_duration_20250327_1920.15" vType="car" speedFactor="0.97" vaporized=""/>
    <tripinfo id="flow_route_2_duration_20250327_1920.17" depart="38.00" departLane="1318793173#0_0" departPos="93.11" departSpeed="0.00" departDelay="37.20" arrival="57.00" arrivalLane="189835257_0" arrivalPos="40.26" arrivalSpeed="13.33" duration="19.00" routeLength="127.09" waitingTime="0.00" waitingCount="0" stopTime="0.00" timeLoss="8.39" rerouteNo="0" devices="tripinfo_flow_route_2_duration_20250327_1920.17" vType="car" speedFactor="0.83" vaporized=""/>
    <tripinfo id="flow_route_2_duration_20250327_1920.13" depart="27.00" departLane="1318793173#0_0" departPos="20.89" departSpeed="0.00" departDelay="26.39" arrival="59.00" arrivalLane="189835257_0" arrivalPos="28.66" arrivalSpeed="13.99" duration="32.00" routeLength="187.71" waitingTime="0.00" waitingCount="0" stopTime="0.00" timeLoss="19.85" rerouteNo="0" devices="tripinfo_flow_route_2_duration_20250327_1920.13" vType="car" speedFactor="1.02" vaporized=""/>
    <tripinfo id="flow_route_2_duration_20250327_1920.11" depart="24.00" departLane="1318793173#0_0" departPos="5.56" departSpeed="0.00" departDelay="23.48" arrival="62.00" arrivalLane="189835257_0" arrivalPos="46.74" arrivalSpeed="14.98" duration="38.00" routeLength="221.13" waitingTime="0.00" waitingCount="0" stopTime="0.00" timeLoss="22.91" rerouteNo="0" devices="tripinfo_flow_route_2_duration_20250327_1920.11" vType="car" speedFactor="0.94" vaporized=""/>
    <tripinfo id="flow_route_2_duration_20250327_1920.14" depart="32.00" departLane="1318793173#0_0" departPos="12.52" departSpeed="0.00" departDelay="31.34" arrival="62.00" arrivalLane="189835257_0" arrivalPos="12.47" arrivalSpeed="13.76" duration="30.00" routeLength="179.89" waitingTime="0.00" waitingCount="0" stopTime="0.00" timeLoss="17.91" rerouteNo="0" devices="tripinfo_flow_route_2_duration_20250327_1920.14" vType="car" speedFactor="1.01" vaporized=""/>
    <tripinfo id="flow_route_2_duration_20250327_1920.16" depart="35.00" departLane="1318793173#0_0" departPos="8.28" departSpeed="0.00" departDelay="34.25" arrival="65.00" arrivalLane="189835257_0" arrivalPos="15.89" arrivalSpeed="13.37" duration="30.00" routeLength="187.55" waitingTime="0.00" waitingCount="0" stopTime="0.00" timeLoss="15.73" rerouteNo="0" devices="tripinfo_flow_route_2_duration_20250327_1920.16" vType="car" speedFactor="0.89" vaporized=""/>
    <tripinfo id="flow_route_2_duration_20250327_1920.20" depart="53.00" departLane="1318793173#0_0" departPos="77.61" departSpeed="0.00" departDelay="52.06" arrival="69.00" arrivalLane="189835257_0" arrivalPos="1.57" arrivalSpeed="12.65" duration="16.00" routeLength="103.90" waitingTime="0.00" waitingCount="0" stopTime="0.00" timeLoss="8.36" rerouteNo="0" devices="tripinfo_flow_route_2_duration_20250327_1920.20" vType="car" speedFactor="0.95" vaporized=""/>
    <tripinfo id="flow_route_2_duration_20250327_1920.18" depart="44.00" departLane="1318793173#0_0" departPos="5.41" departSpeed="0.00" departDelay="43.15" arrival="74.00" arrivalLane="189835257_0" arrivalPos="8.38" arrivalSpeed="13.27" duration="30.00" routeLength="182.91" waitingTime="0.00" waitingCount="0" stopTime="0.00" timeLoss="16.20" rerouteNo="0" devices="tripinfo_flow_route_2_duration_20250327_1920.18" vType="car" speedFactor="0.87" vaporized=""/>
    <tripinfo id="flow_route_2_duration_20250327_1920.19" depart="50.00" departLane="1318793173#0_0" departPos="58.43" departSpeed="0.00" departDelay="49.11" arrival="75.00" arrivalLane="189835257_0" arrivalPos="50.37" arrivalSpeed="15.10" duration="25.00" routeLength="171.88" waitingTime="0.00" waitingCount="0" stopTime="0.00" timeLoss="12.74" rerouteNo="0" devices="tripinfo_flow_route_2_duration_20250327_1920.19" vType="car" speedFactor="0.92" vaporized=""/>
    <tripinfo id="flow_route_3_duration_20250327_1920.1" depart="55.00" departLane="1318793173#0_0" departPos="22.13" departSpeed="0.00" departDelay="54.58" arrival="75.00" arrivalLane="291974733#0_1" arrivalPos="31.04" arrivalSpeed="15.14" duration="20.00" routeLength="145.87" waitingTime="0.00" waitingCount="0" stopTime="0.00" timeLoss="10.21" rerouteNo="0" devices="tripinfo_flow_route_3_duration_20250327_1920.1" vType="car" speedFactor="0.93" vaporized=""/>
    <tripinfo id="flow_route_2_duration_20250327_1920.22" depart="58.00" departLane="1318793173#0_0" departPos="49.71" departSpeed="0.00" departDelay="56.97" arrival="78.00" arrivalLane="189835257_0" arrivalPos="8.84" arrivalSpeed="14.32" duration="20.00" routeLength="139.07" waitingTime="0.00" waitingCount="0" stopTime="0.00" timeLoss="10.74" rerouteNo="0" devices="tripinfo_flow_route_2_duration_20250327_1920.22" vType="car" speedFactor="1.15" vaporized=""/>
    <tripinfo id="flow_route_2_duration_20250327_1920.26" depart="69.00" departLane="1318793173#0_0" departPos="88.56" departSpeed="0.00" departDelay="67.78" arrival="85.00" arrivalLane="189835257_0" arrivalPos="4.69" arrivalSpeed="12.59" duration="16.00" routeLength="96.07" waitingTime="0.00" waitingCount="0" stopTime="0.00" timeLoss="9.03" rerouteNo="0" devices="tripinfo_flow_route_2_duration_20250327_1920.26" vType="car" speedFactor="1.02" vaporized=""/>
    <tripinfo id="flow_route_2_duration_20250327_1920.24" depart="66.00" departLane="1318793173#0_0" departPos="62.59" departSpeed="0.00" departDelay="64.87" arrival="87.00" arrivalLane="189835257_0" arrivalPos="12.71" arrivalSpeed="12.90" duration="21.00" routeLength="130.06" waitingTime="0.00" waitingCount="0" stopTime="0.00" timeLoss="12.67" rerouteNo="0" devices="tripinfo_flow_route_2_duration_20250327_1920.24" vType="car" speedFactor="1.17" vaporized=""/>
    <tripinfo id="flow_route_13_duration_20250327_1920.0" depart="0.00" departLane="1252820503#0_0" departPos="99.64" departSpeed="0.00" departDelay="0.00" arrival="88.00" arrivalLane="291974733#0_0" arrivalPos="46.05" arrivalSpeed="9.65" duration="88.00" routeLength="103.57" waitingTime="58.00" waitingCount="1" stopTime="0.00" timeLoss="80.47" rerouteNo="0" devices="tripinfo_flow_route_13_duration_20250327_1920.0" vType="car" speedFactor="1.08" vaporized=""/>
    <tripinfo id="flow_route_15_duration_20250327_1920.2" depart="6.00" departLane="1252820503#0_0" departPos="135.91" departSpeed="0.00" departDelay="2.57" arrival="88.00" arrivalLane="133126040#0_1" arrivalPos="29.99" arrivalSpeed="10.12" duration="82.00" routeLength="73.26" waitingTime="62.00" waitingCount="2" stopTime="0.00" timeLoss="76.70" rerouteNo="0" devices="tripinfo_flow_route_15_duration_20250327_1920.2" vType="car" speedFactor="0.93" vaporized=""/>
    <tripinfo id="flow_route_15_duration_20250327_1920.0" depart="1.00" departLane="1252820503#0_0" departPos="18.56" departSpeed="0.00" departDelay="1.00" arrival="90.00" arrivalLane="133126040#0_1" arrivalPos="4.72" arrivalSpeed="9.69" duration="89.00" routeLength="165.33" waitingTime="55.00" waitingCount="1" stopTime="0.00" timeLoss="77.75" rerouteNo="0" devices="tripinfo_flow_route_15_duration_20250327_1920.0" vType="car" speedFactor="0.83" vaporized=""/>
    <tripinfo id="flow_route_2_duration_20250327_1920.23" depart="66.00" departLane="1318793173#0_0" departPos="54.85" departSpeed="0.00" departDelay="64.92" arrival="90.00" arrivalLane="189835257_0" arrivalPos="30.10" arrivalSpeed="14.42" duration="24.00" routeLength="155.19" waitingTime="0.00" waitingCount="0" stopTime="0.00" timeLoss="13.84" rerouteNo="0" devices="tripinfo_flow_route_2_duration_20250327_1920.23" vType="car" speedFactor="1.01" vaporized=""/>
    <tripinfo id="flow_route_2_duration_20250327_1920.21" depart="53.00" departLane="1318793173#0_0" departPos="7.44" departSpeed="0.00" departDelay="52.01" arrival="92.00" arrivalLane="189835257_0" arrivalPos="36.08" arrivalSpeed="14.41" duration="39.00" routeLength="208.58" waitingTime="0.00" waitingCount="0" stopTime="0.00" timeLoss="26.00" rerouteNo="0" devices="tripinfo_flow_route_2_duration_20250327_1920.21" vType="car" speedFactor="1.13" vaporized=""/>
    <tripinfo id="flow_route_13_duration_20250327_1920.1" depart="2.00" departLane="1252820503#0_0" departPos="50.19" departSpeed="0.00" departDelay="0.89" arrival="92.00" arrivalLane="291974733#0_0" arrivalPos="16.77" arrivalSpeed="7.56" duration="90.00" routeLength="123.74" waitingTime="56.00" waitingCount="1" stopTime="0.00" timeLoss="80.87" rerouteNo="0" devices="tripinfo_flow_route_13_duration_20250327_1920.1" vType="car" speedFactor="1.00" vaporized=""/>
    <tripinfo id="flow_route_15_duration_20250327_1920.1" depart="3.00" departLane="1252820503#0_0" departPos="129.37" departSpeed="0.00" departDelay="1.29" arrival="92.00" arrivalLane="133126040#0_1" arrivalPos="107.32" arrivalSpeed="14.02" duration="89.00" routeLength="157.13" waitingTime="62.00" waitingCount="1" stopTime="0.00" timeLoss="78.45" rerouteNo="0" devices="tripinfo_flow_route_15_duration_20250327_1920.1" vType="car" speedFactor="0.90" vaporized=""/>
    <tripinfo id="flow_route_13_duration_20250327_1920.3" depart="5.00" departLane="1252820503#0_0" departPos="72.17" departSpeed="0.00" departDelay="1.67" arrival="93.00" arrivalLane="291974733#0_0" arrivalPos="55.20" arrivalSpeed="10.21" duration="88.00" routeLength="140.19" waitingTime="57.00" waitingCount="1" stopTime="0.00" timeLoss="77.95" rerouteNo="0" devices="tripinfo_flow_route_13_duration_20250327_1920.3" vType="car" speedFactor="0.96" vaporized=""/>
    <tripinfo id="flow_route_2_duration_20250327_1920.27" depart="70.00" departLane="1318793173#0_0" departPos="34.80" departSpeed="0.00" departDelay="68.73" arrival="94.00" arrivalLane="189835257_0" arrivalPos="35.18" arrivalSpeed="15.29" duration="24.00" routeLength="180.33" waitingTime="0.00" waitingCount="0" stopTime="0.00" timeLoss="11.69" rerouteNo="0" devices="tripinfo_flow_route_2_duration_20250327_1920.27" vType="car" speedFactor="0.97" vaporized=""/>
    <tripinfo id="flow_route_13_duration_20250327_1920.2" depart="3.00" departLane="1252820503#0_0" departPos="84.93" departSpeed="0.00" departDelay="0.78" arrival="94.00" arrivalLane="291974733#0_0" arrivalPos="86.66" arrivalSpeed="12.46" duration="91.00" routeLength="158.89" waitingTime="58.00" waitingCount="1" stopTime="0.00" timeLoss="79.75" rerouteNo="0" devices="tripinfo_flow_route_13_duration_20250327_1920.2" vType="car" speedFactor="1.00" vaporized=""/>
    <tripinfo id="flow_route_14_duration_20250327_1920.1" depart="3.00" departLane="1252820503#0_0" departPos="143.83" departSpeed="0.00" departDelay="0.39" arrival="95.00" arrivalLane="1254771874#0_0" arrivalPos="125.94" arrivalSpeed="16.35" duration="92.00" routeLength="191.99" waitingTime="65.00" waitingCount="1" stopTime="0.00" timeLoss="80.28" rerouteNo="0" devices="tripinfo_flow_route_14_duration_20250327_1920.1" vType="car" speedFactor="1.02" vaporized=""/>
    <tripinfo id="flow_route_2_duration_20250327_1920.25" depart="69.00" departLane="1318793173#0_0" departPos="8.57" departSpeed="0.00" departDelay="67.83" arrival="96.00" arrivalLane="189835257_0" arrivalPos="42.74" arrivalSpeed="15.38" duration="27.00" routeLength="214.11" waitingTime="0.00" waitingCount="0" stopTime="0.00" timeLoss="13.23" rerouteNo="0" devices="tripinfo_flow_route_2_duration_20250327_1920.25" vType="car" speedFactor="0.99" vaporized=""/>
    <tripinfo id="flow_route_15_duration_20250327_1920.3" depart="21.00" departLane="1252820503#0_0" departPos="12.25" departSpeed="0.00" departDelay="15.86" arrival="96.00" arrivalLane="133126040#0_1" arrivalPos="20.61" arrivalSpeed="11.04" duration="75.00" routeLength="187.54" waitingTime="39.00" waitingCount="1" stopTime="0.00" timeLoss="63.33" rerouteNo="0" devices="tripinfo_flow_route_15_duration_20250327_1920.3" vType="car" speedFactor="1.13" vaporized=""/>
    <tripinfo id="flow_route_14_duration_20250327_1920.0" depart="0.00" departLane="1252820503#0_0" departPos="69.02" departSpeed="0.00" departDelay="0.00" arrival="100.00" arrivalLane="1254771874#0_1" arrivalPos="150.80" arrivalSpeed="16.17" duration="100.00" routeLength="291.67" waitingTime="60.00" waitingCount="1" stopTime="0.00" timeLoss="81.87" rerouteNo="0" devices="tripinfo_flow_route_14_duration_20250327_1920.0" vType="car" speedFactor="1.03" vaporized=""/>
    <tripinfo id="flow_route_2_duration_20250327_1920.29" depart="79.00" departLane="1318793173#0_0" departPos="43.85" departSpeed="0.00" departDelay="77.64" arrival="100.00" arrivalLane="189835257_0" arrivalPos="31.40" arrivalSpeed="15.42" duration="21.00" routeLength="167.49" waitingTime="0.00" waitingCount="0" stopTime="0.00" timeLoss="10.04" rerouteNo="0" devices="tripinfo_flow_route_2_duration_20250327_1920.29" vType="car" speedFactor="1.10" vaporized=""/>
    <tripinfo id="flow_route_13_duration_20250327_1920.4" depart="7.00" departLane="1252820503#0_0" departPos="32.86" departSpeed="0.00" departDelay="2.56" arrival="100.00" arrivalLane="291974733#0_0" arrivalPos="79.77" arrivalSpeed="12.92" duration="93.00" routeLength="204.07" waitingTime="55.00" waitingCount="1" stopTime="0.00" timeLoss="79.63" rerouteNo="0" devices="tripinfo_flow_route_13_duration_20250327_1920.4" vType="car" speedFactor="1.12" vaporized=""/>
    <tripinfo id="flow_route_15_duration_20250327_1920.4" depart="23.00" departLane="1252820503#0_0" departPos="84.38" departSpeed="0.00" departDelay="16.14" arrival="100.00" arrivalLane="133126040#0_1" arrivalPos="101.89" arrivalSpeed="15.52" duration="77.00" routeLength="196.70" waitingTime="44.00" waitingCount="1" stopTime="0.00" timeLoss="64.15" rerouteNo="0" devices="tripinfo_flow_route_15_duration_20250327_1920.4" vType="car" speedFactor="0.97" vaporized=""/>
    <tripinfo id="flow_route_2_duration_20250327_1920.28" depart="71.00" departLane="1318793173#0_0" departPos="3.44" departSpeed="0.00" departDelay="69.68" arrival="102.00" arrivalLane="189835257_0" arrivalPos="37.68" arrivalSpeed="16.27" duration="31.00" routeLength="214.18" waitingTime="0.00" waitingCount="0" stopTime="0.00" timeLoss="17.52" rerouteNo="0" devices="tripinfo_flow_route_2_duration_20250327_1920.28" vType="car" speedFactor="1.18" vaporized=""/>
    <tripinfo id="flow_route_13_duration_20250327_1920.7" depart="28.00" departLane="1252820503#0_0" departPos="83.74" departSpeed="0.00" departDelay="20.22" arrival="102.00" arrivalLane="291974733#0_0" arrivalPos="44.62" arrivalSpeed="10.46" duration="74.00" routeLength="118.04" waitingTime="45.00" waitingCount="1" stopTime="0.00" timeLoss="65.84" rerouteNo="0" devices="tripinfo_flow_route_13_duration_20250327_1920.7" vType="car" speedFactor="1.09" vaporized=""/>
    <tripinfo id="flow_route_13_duration_20250327_1920.5" depart="18.00" departLane="1252820503#0_0" departPos="56.27" departSpeed="0.00" departDelay="12.45" arrival="103.00" arrivalLane="291974733#0_0" arrivalPos="79.72" arrivalSpeed="12.36" duration="85.00" routeLength="180.61" waitingTime="51.00" waitingCount="1" stopTime="0.00" timeLoss="72.45" rerouteNo="0" devices="tripinfo_flow_route_13_duration_20250327_1920.5" vType="car" speedFactor="1.08" vaporized=""/>
    <tripinfo id="flow_route_15_duration_20250327_1920.6" depart="51.00" departLane="1252820503#0_0" departPos="57.37" departSpeed="0.00" departDelay="40.72" arrival="104.00" arrivalLane="133126040#0_1" arrivalPos="29.02" arrivalSpeed="13.85" duration="53.00" routeLength="150.83" waitingTime="23.00" waitingCount="1" stopTime="0.00" timeLoss="42.84" rerouteNo="0" devices="tripinfo_flow_route_15_duration_20250327_1920.6" vType="car" speedFactor="0.98" vaporized=""/>
    <tripinfo id="flow_route_13_duration_20250327_1920.9" depart="36.00" departLane="1252820503#0_0" departPos="12.55" departSpeed="0.00" departDelay="26.00" arrival="105.00" arrivalLane="291974733#0_0" arrivalPos="4.04" arrivalSpeed="5.98" duration="69.00" routeLength="148.65" waitingTime="33.00" waitingCount="1" stopTime="0.00" timeLoss="58.58" rerouteNo="0" devices="tripinfo_flow_route_13_duration_20250327_1920.9" vType="car" speedFactor="0.97" vaporized=""/>
    <tripinfo id="flow_route_2_duration_20250327_1920.30" depart="79.00" departLane="1318793173#0_0" departPos="4.45" departSpeed="0.00" departDelay="77.59" arrival="106.00" arrivalLane="189835257_0" arrivalPos="36.42" arrivalSpeed="14.02" duration="27.00" routeLength="211.91" waitingTime="0.00" waitingCount="0" stopTime="0.00" timeLoss="11.49" rerouteNo="0" devices="tripinfo_flow_route_2_duration_20250327_1920.30" vType="car" speedFactor="0.90" vaporized=""/>
    <tripinfo id="flow_route_14_duration_20250327_1920.2" depart="21.00" departLane="1252820503#0_0" departPos="23.79" departSpeed="0.00" departDelay="15.78" arrival="106.00" arrivalLane="1254771874#0_1" arrivalPos="119.07" arrivalSpeed="16.12" duration="85.00" routeLength="305.16" waitingTime="39.00" waitingCount="1" stopTime="0.00" timeLoss="66.59" rerouteNo="0" devices="tripinfo_flow_route_14_duration_20250327_1920.2" vType="car" speedFactor="0.99" vaporized=""/>
    <tripinfo id="flow_route_13_duration_20250327_1920.6" depart="21.00" departLane="1252820503#0_0" departPos="37.46" departSpeed="0.00" departDelay="14.33" arrival="106.00" arrivalLane="291974733#0_0" arrivalPos="51.13" arrivalSpeed="10.40" duration="85.00" routeLength="170.83" waitingTime="45.00" waitingCount="1" stopTime="0.00" timeLoss="72.71" rerouteNo="0" devices="tripinfo_flow_route_13_duration_20250327_1920.6" vType="car" speedFactor="0.97" vaporized=""/>
    <tripinfo id="flow_route_15_duration_20250327_1920.5" depart="33.00" departLane="1252820503#0_0" departPos="48.33" departSpeed="0.00" departDelay="24.43" arrival="107.00" arrivalLane="133126040#0_1" arrivalPos="100.14" arrivalSpeed="16.52" duration="74.00" routeLength="230.99" waitingTime="36.00" waitingCount="1" stopTime="0.00" timeLoss="59.01" rerouteNo="0" devices="tripinfo_flow_route_15_duration_20250327_1920.5" vType="car" speedFactor="1.02" vaporized=""/>