<?xml version="1.0" encoding="UTF-8"?>

<!-- generated on 2025-05-06 21:08:37 by Eclipse SUMO sumo Version 1.20.0
<configuration xmlns:xsi="http://www.w3.org/2001/XMLSchema-instance" xsi:noNamespaceSchemaLocation="http://sumo.dlr.de/xsd/sumoConfiguration.xsd">

    <input>
        <net-file value="osm.net.xml"/>
        <route-files value="xml/route_static_632031937_5.rou.xml"/>
    </input>

    <output>
        <tripinfo-output value="xml/tripinfo_static_632031937_5.xml"/>
    </output>

    <traci_server>
        <remote-port value="57593"/>
    </traci_server>

</configuration>
-->

<tripinfos xmlns:xsi="http://www.w3.org/2001/XMLSchema-instance" xsi:noNamespaceSchemaLocation="http://sumo.dlr.de/xsd/tripinfo_file.xsd">
    <tripinfo id="flow_route_66_duration_20250327_1930.0" depart="0.00" departLane="-138002002#2_0" departPos="85.87" departSpeed="0.00" departDelay="0.00" arrival="20.00" arrivalLane="-138002006#3_1" arrivalPos="3.87" arrivalSpeed="13.22" duration="20.00" routeLength="121.39" waitingTime="0.00" waitingCount="0" stopTime="0.00" timeLoss="10.56" rerouteNo="0" devices="tripinfo_flow_route_66_duration_20250327_1930.0" vType="car" speedFactor="0.83" vaporized=""/>
    <tripinfo id="flow_route_53_duration_20250327_1930.0" depart="0.00" departLane="138002006#0_0" departPos="48.40" departSpeed="0.00" departDelay="0.00" arrival="23.00" arrivalLane="1369578052#0_0" arrivalPos="131.33" arrivalSpeed="15.64" duration="23.00" routeLength="190.85" waitingTime="0.00" waitingCount="0" stopTime="0.00" timeLoss="9.85" rerouteNo="0" devices="tripinfo_flow_route_53_duration_20250327_1930.0" vType="car" speedFactor="0.94" vaporized=""/>
    <tripinfo id="flow_route_66_duration_20250327_1930.1" depart="10.00" departLane="-138002002#2_0" departPos="176.21" departSpeed="0.00" departDelay="0.00" arrival="26.00" arrivalLane="-138002006#3_0" arrivalPos="67.87" arrivalSpeed="12.10" duration="16.00" routeLength="95.05" waitingTime="0.00" waitingCount="0" stopTime="0.00" timeLoss="9.87" rerouteNo="0" devices="tripinfo_flow_route_66_duration_20250327_1930.1" vType="car" speedFactor="0.99" vaporized=""/>
    <tripinfo id="flow_route_53_duration_20250327_1930.3" depart="16.00" departLane="138002006#0_0" departPos="59.31" departSpeed="0.00" departDelay="4.75" arrival="28.00" arrivalLane="1369578052#0_0" arrivalPos="5.50" arrivalSpeed="9.22" duration="12.00" routeLength="54.11" waitingTime="0.00" waitingCount="0" stopTime="0.00" timeLoss="8.26" rerouteNo="0" devices="tripinfo_flow_route_53_duration_20250327_1930.3" vType="car" speedFactor="0.93" vaporized=""/>
    <tripinfo id="flow_route_53_duration_20250327_1930.1" depart="5.00" departLane="138002006#0_0" departPos="45.54" departSpeed="0.00" departDelay="1.25" arrival="30.00" arrivalLane="1369578052#0_0" arrivalPos="161.40" arrivalSpeed="15.49" duration="25.00" routeLength="223.78" waitingTime="0.00" waitingCount="0" stopTime="0.00" timeLoss="9.80" rerouteNo="0" devices="tripinfo_flow_route_53_duration_20250327_1930.1" vType="car" speedFactor="0.94" vaporized=""/>
    <tripinfo id="flow_route_67_duration_20250327_1930.1" depart="6.00" departLane="-138002002#2_0" departPos="151.85" departSpeed="0.00" departDelay="0.00" arrival="34.00" arrivalLane="380351865#0_0" arrivalPos="10.81" arrivalSpeed="11.87" duration="28.00" routeLength="192.02" waitingTime="0.00" waitingCount="0" stopTime="0.00" timeLoss="11.54" rerouteNo="0" devices="tripinfo_flow_route_67_duration_20250327_1930.1" vType="car" speedFactor="1.09" vaporized=""/>
    <tripinfo id="flow_route_67_duration_20250327_1930.0" depart="1.00" departLane="-138002002#2_0" departPos="104.31" departSpeed="0.00" departDelay="1.00" arrival="36.00" arrivalLane="380351865#0_0" arrivalPos="12.69" arrivalSpeed="11.57" duration="35.00" routeLength="241.42" waitingTime="0.00" waitingCount="0" stopTime="0.00" timeLoss="15.69" rerouteNo="0" devices="tripinfo_flow_route_67_duration_20250327_1930.0" vType="car" speedFactor="1.05" vaporized=""/>
    <tripinfo id="flow_route_53_duration_20250327_1930.4" depart="18.00" departLane="138002006#0_0" departPos="27.32" departSpeed="0.00" departDelay="3.00" arrival="36.00" arrivalLane="1369578052#0_0" arrivalPos="41.13" arrivalSpeed="13.41" duration="18.00" routeLength="121.73" waitingTime="0.00" waitingCount="0" stopTime="0.00" timeLoss="9.97" rerouteNo="0" devices="tripinfo_flow_route_53_duration_20250327_1930.4" vType="car" speedFactor="0.94" vaporized=""/>
    <tripinfo id="flow_route_53_duration_20250327_1930.5" depart="19.00" departLane="138002006#0_0" departPos="16.28" departSpeed="0.00" departDelay="0.25" arrival="37.00" arrivalLane="1369578052#0_0" arrivalPos="31.04" arrivalSpeed="12.65" duration="18.00" routeLength="122.68" waitingTime="0.00" waitingCount="0" stopTime="0.00" timeLoss="9.53" rerouteNo="0" devices="tripinfo_flow_route_53_duration_20250327_1930.5" vType="car" speedFactor="0.89" vaporized=""/>
    <tripinfo id="flow_route_53_duration_20250327_1930.2" depart="9.00" departLane="138002006#0_0" departPos="2.88" departSpeed="0.00" departDelay="1.50" arrival="40.00" arrivalLane="1369578052#0_1" arrivalPos="163.62" arrivalSpeed="16.19" duration="31.00" routeLength="268.66" waitingTime="0.00" waitingCount="0" stopTime="0.00" timeLoss="14.11" rerouteNo="0" devices="tripinfo_flow_route_53_duration_20250327_1930.2" vType="car" speedFactor="1.03" vaporized=""/>
    <tripinfo id="flow_route_52_duration_20250327_1930.0" depart="0.00" departLane="138002006#0_0" departPos="21.97" departSpeed="0.00" departDelay="0.00" arrival="43.00" arrivalLane="380351865#0_1" arrivalPos="15.21" arrivalSpeed="11.55" duration="43.00" routeLength="234.80" waitingTime="5.00" waitingCount="1" stopTime="0.00" timeLoss="23.15" rerouteNo="0" devices="tripinfo_flow_route_52_duration_20250327_1930.0" vType="car" speedFactor="1.06" vaporized=""/>
    <tripinfo id="flow_route_59_duration_20250327_1930.2" depart="6.00" departLane="186407685_0" departPos="166.28" departSpeed="0.00" departDelay="1.20" arrival="43.00" arrivalLane="1369578052#0_0" arrivalPos="8.52" arrivalSpeed="5.50" duration="37.00" routeLength="28.35" waitingTime="24.00" waitingCount="1" stopTime="0.00" timeLoss="34.08" rerouteNo="0" devices="tripinfo_flow_route_59_duration_20250327_1930.2" vType="car" speedFactor="0.86" vaporized=""/>
    <tripinfo id="flow_route_58_duration_20250327_1930.0" depart="0.00" departLane="186407685_0" departPos="1.07" departSpeed="0.00" departDelay="0.00" arrival="48.00" arrivalLane="-138002006#3_1" arrivalPos="43.63" arrivalSpeed="10.50" duration="48.00" routeLength="235.82" waitingTime="13.00" waitingCount="1" stopTime="0.00" timeLoss="32.78" rerouteNo="0" devices="tripinfo_flow_route_58_duration_20250327_1930.0" vType="car" speedFactor="1.08" vaporized=""/>
    <tripinfo id="flow_route_59_duration_20250327_1930.1" depart="4.00" departLane="186407685_0" departPos="57.01" departSpeed="0.00" departDelay="1.60" arrival="53.00" arrivalLane="1369578052#0_0" arrivalPos="48.76" arrivalSpeed="9.64" duration="49.00" routeLength="177.86" waitingTime="16.00" waitingCount="1" stopTime="0.00" timeLoss="36.55" rerouteNo="0" devices="tripinfo_flow_route_59_duration_20250327_1930.1" vType="car" speedFactor="0.89" vaporized=""/>
    <tripinfo id="flow_route_57_duration_20250327_1930.0" depart="0.00" departLane="186407685_0" departPos="131.94" departSpeed="0.00" departDelay="0.00" arrival="57.00" arrivalLane="380351865#0_0" arrivalPos="0.78" arrivalSpeed="10.75" duration="57.00" routeLength="205.45" waitingTime="23.00" waitingCount="1" stopTime="0.00" timeLoss="40.42" rerouteNo="0" devices="tripinfo_flow_route_57_duration_20250327_1930.0" vType="car" speedFactor="1.01" vaporized=""/>
    <tripinfo id="flow_route_59_duration_20250327_1930.0" depart="0.00" departLane="186407685_0" departPos="119.17" departSpeed="0.00" departDelay="0.00" arrival="57.00" arrivalLane="1369578052#0_0" arrivalPos="108.75" arrivalSpeed="13.31" duration="57.00" routeLength="175.69" waitingTime="23.00" waitingCount="1" stopTime="0.00" timeLoss="45.12" rerouteNo="0" devices="tripinfo_flow_route_59_duration_20250327_1930.0" vType="car" speedFactor="1.03" vaporized=""/>
    <tripinfo id="flow_route_59_duration_20250327_1930.3" depart="8.00" departLane="186407685_0" departPos="41.92" departSpeed="0.00" departDelay="0.80" arrival="58.00" arrivalLane="1369578052#0_0" arrivalPos="73.10" arrivalSpeed="11.71" duration="50.00" routeLength="217.30" waitingTime="12.00" waitingCount="1" stopTime="0.00" timeLoss="35.33" rerouteNo="0" devices="tripinfo_flow_route_59_duration_20250327_1930.3" vType="car" speedFactor="1.05" vaporized=""/>
    <tripinfo id="flow_route_59_duration_20250327_1930.4" depart="10.00" departLane="186407685_0" departPos="28.17" departSpeed="0.00" departDelay="0.40" arrival="58.00" arrivalLane="1369578052#0_0" arrivalPos="55.62" arrivalSpeed="10.72" duration="48.00" routeLength="213.56" waitingTime="11.00" waitingCount="1" stopTime="0.00" timeLoss="34.43" rerouteNo="0" devices="tripinfo_flow_route_59_duration_20250327_1930.4" vType="car" speedFactor="1.12" vaporized=""/>
    <tripinfo id="flow_route_57_duration_20250327_1930.1" depart="15.00" departLane="186407685_0" departPos="143.73" departSpeed="0.00" departDelay="0.00" arrival="59.00" arrivalLane="380351865#0_1" arrivalPos="2.87" arrivalSpeed="12.86" duration="44.00" routeLength="195.75" waitingTime="13.00" waitingCount="1" stopTime="0.00" timeLoss="28.82" rerouteNo="0" devices="tripinfo_flow_route_57_duration_20250327_1930.1" vType="car" speedFactor="1.16" vaporized=""/>
    <tripinfo id="flow_route_59_duration_20250327_1930.9" depart="29.00" departLane="186407685_0" departPos="103.59" departSpeed="0.00" departDelay="7.40" arrival="63.00" arrivalLane="1369578052#0_0" arrivalPos="32.99" arrivalSpeed="8.57" duration="34.00" routeLength="115.51" waitingTime="4.00" waitingCount="1" stopTime="0.00" timeLoss="25.27" rerouteNo="0" devices="tripinfo_flow_route_59_duration_20250327_1930.9" vType="car" speedFactor="0.92" vaporized=""/>
    <tripinfo id="flow_route_59_duration_20250327_1930.5" depart="12.00" departLane="186407685_0" departPos="22.20" departSpeed="0.00" departDelay="0.00" arrival="68.00" arrivalLane="1369578052#0_0" arrivalPos="126.28" arrivalSpeed="14.42" duration="56.00" routeLength="290.19" waitingTime="10.00" waitingCount="1" stopTime="0.00" timeLoss="36.50" rerouteNo="0" devices="tripinfo_flow_route_59_duration_20250327_1930.5" vType="car" speedFactor="0.88" vaporized=""/>
    <tripinfo id="flow_route_57_duration_20250327_1930.2" depart="39.00" departLane="186407685_0" departPos="85.00" departSpeed="0.00" departDelay="9.00" arrival="70.00" arrivalLane="380351865#0_1" arrivalPos="16.67" arrivalSpeed="10.89" duration="31.00" routeLength="268.29" waitingTime="0.00" waitingCount="0" stopTime="0.00" timeLoss="9.85" rerouteNo="0" devices="tripinfo_flow_route_57_duration_20250327_1930.2" vType="car" speedFactor="0.99" vaporized=""/>
    <tripinfo id="flow_route_66_duration_20250327_1930.3" depart="30.00" departLane="-138002002#2_0" departPos="170.38" departSpeed="0.00" departDelay="0.00" arrival="70.00" arrivalLane="-138002006#3_0" arrivalPos="2.12" arrivalSpeed="6.13" duration="40.00" routeLength="35.13" waitingTime="25.00" waitingCount="1" stopTime="0.00" timeLoss="37.55" rerouteNo="0" devices="tripinfo_flow_route_66_duration_20250327_1930.3" vType="car" speedFactor="1.02" vaporized=""/>
    <tripinfo id="flow_route_66_duration_20250327_1930.2" depart="21.00" departLane="-138002002#2_0" departPos="12.34" departSpeed="0.00" departDelay="1.00" arrival="71.00" arrivalLane="-138002006#3_1" arrivalPos="13.48" arrivalSpeed="7.44" duration="50.00" routeLength="204.53" waitingTime="16.00" waitingCount="1" stopTime="0.00" timeLoss="35.68" rerouteNo="0" devices="tripinfo_flow_route_66_duration_20250327_1930.2" vType="car" speedFactor="0.87" vaporized=""/>
    <tripinfo id="flow_route_59_duration_20250327_1930.8" depart="23.00" departLane="186407685_0" departPos="60.03" departSpeed="0.00" departDelay="3.80" arrival="72.00" arrivalLane="1369578052#0_0" arrivalPos="118.27" arrivalSpeed="13.37" duration="49.00" routeLength="244.35" waitingTime="3.00" waitingCount="1" stopTime="0.00" timeLoss="32.00" rerouteNo="0" devices="tripinfo_flow_route_59_duration_20250327_1930.8" vType="car" speedFactor="0.83" vaporized=""/>
    <tripinfo id="flow_route_53_duration_20250327_1930.7" depart="28.00" departLane="138002006#0_0" departPos="45.52" departSpeed="0.00" departDelay="1.75" arrival="74.00" arrivalLane="1369578052#0_1" arrivalPos="39.15" arrivalSpeed="9.15" duration="46.00" routeLength="101.54" waitingTime="22.00" waitingCount="1" stopTime="0.00" timeLoss="39.74" rerouteNo="0" devices="tripinfo_flow_route_53_duration_20250327_1930.7" vType="car" speedFactor="1.18" vaporized=""/>
    <tripinfo id="flow_route_66_duration_20250327_1930.5" depart="50.00" departLane="-138002002#2_0" departPos="75.87" departSpeed="0.00" departDelay="0.00" arrival="74.00" arrivalLane="-138002006#3_1" arrivalPos="1.04" arrivalSpeed="7.26" duration="24.00" routeLength="128.56" waitingTime="0.00" waitingCount="0" stopTime="0.00" timeLoss="16.15" rerouteNo="0" devices="tripinfo_flow_route_66_duration_20250327_1930.5" vType="car" speedFactor="1.00" vaporized=""/>
    <tripinfo id="flow_route_53_duration_20250327_1930.8" depart="31.00" departLane="138002006#0_0" departPos="63.09" departSpeed="0.00" departDelay="1.00" arrival="78.00" arrivalLane="1369578052#0_0" arrivalPos="67.31" arrivalSpeed="11.87" duration="47.00" routeLength="112.14" waitingTime="21.00" waitingCount="1" stopTime="0.00" timeLoss="39.61" rerouteNo="0" devices="tripinfo_flow_route_53_duration_20250327_1930.8" vType="car" speedFactor="1.17" vaporized=""/>
    <tripinfo id="flow_route_66_duration_20250327_1930.4" depart="41.00" departLane="-138002002#2_0" departPos="63.47" departSpeed="0.00" departDelay="1.00" arrival="78.00" arrivalLane="-138002006#3_1" arrivalPos="59.96" arrivalSpeed="11.34" duration="37.00" routeLength="199.88" waitingTime="4.00" waitingCount="1" stopTime="0.00" timeLoss="24.80" rerouteNo="0" devices="tripinfo_flow_route_66_duration_20250327_1930.4" vType="car" speedFactor="1.04" vaporized=""/>
    <tripinfo id="flow_route_53_duration_20250327_1930.6" depart="24.00" departLane="138002006#0_0" departPos="7.10" departSpeed="0.00" departDelay="1.50" arrival="79.00" arrivalLane="1369578052#0_0" arrivalPos="57.85" arrivalSpeed="11.02" duration="55.00" routeLength="158.67" waitingTime="21.00" waitingCount="1" stopTime="0.00" timeLoss="44.36" rerouteNo="0" devices="tripinfo_flow_route_53_duration_20250327_1930.6" vType="car" speedFactor="0.95" vaporized=""/>
    <tripinfo id="flow_route_53_duration_20250327_1930.13" depart="54.00" departLane="138002006#0_0" departPos="28.71" departSpeed="0.00" departDelay="5.25" arrival="79.00" arrivalLane="1369578052#0_0" arrivalPos="0.16" arrivalSpeed="8.19" duration="25.00" routeLength="79.37" waitingTime="2.00" waitingCount="1" stopTime="0.00" timeLoss="19.95" rerouteNo="0" devices="tripinfo_flow_route_53_duration_20250327_1930.13" vType="car" speedFactor="1.00" vaporized=""/>
    <tripinfo id="flow_route_53_duration_20250327_1930.11" depart="43.00" departLane="138002006#0_0" departPos="52.61" departSpeed="0.00" departDelay="1.75" arrival="85.00" arrivalLane="1369578052#0_0" arrivalPos="122.27" arrivalSpeed="14.91" duration="42.00" routeLength="177.57" waitingTime="14.00" waitingCount="1" stopTime="0.00" timeLoss="31.09" rerouteNo="0" devices="tripinfo_flow_route_53_duration_20250327_1930.11" vType="car" speedFactor="1.00" vaporized=""/>
    <tripinfo id="flow_route_53_duration_20250327_1930.14" depart="54.00" departLane="138002006#0_0" departPos="64.19" departSpeed="0.00" departDelay="1.50" arrival="85.00" arrivalLane="1369578052#0_0" arrivalPos="89.85" arrivalSpeed="14.29" duration="31.00" routeLength="133.58" waitingTime="10.00" waitingCount="1" stopTime="0.00" timeLoss="22.35" rerouteNo="0" devices="tripinfo_flow_route_53_duration_20250327_1930.14" vType="car" speedFactor="1.14" vaporized=""/>
    <tripinfo id="flow_route_67_duration_20250327_1930.4" depart="24.00" departLane="-138002002#2_0" departPos="132.98" departSpeed="0.00" departDelay="0.00" arrival="86.00" arrivalLane="380351865#0_0" arrivalPos="3.08" arrivalSpeed="10.08" duration="62.00" routeLength="203.16" waitingTime="24.00" waitingCount="1" stopTime="0.00" timeLoss="43.10" rerouteNo="0" devices="tripinfo_flow_route_67_duration_20250327_1930.4" vType="car" speedFactor="0.93" vaporized=""/>
    <tripinfo id="flow_route_53_duration_20250327_1930.9" depart="34.00" departLane="138002006#0_0" departPos="30.44" departSpeed="0.00" departDelay="0.25" arrival="86.00" arrivalLane="1369578052#0_1" arrivalPos="179.07" arrivalSpeed="16.42" duration="52.00" routeLength="256.56" waitingTime="17.00" waitingCount="1" stopTime="0.00" timeLoss="36.39" rerouteNo="0" devices="tripinfo_flow_route_53_duration_20250327_1930.9" vType="car" speedFactor="1.10" vaporized=""/>
    <tripinfo id="flow_route_53_duration_20250327_1930.10" depart="38.00" departLane="138002006#0_0" departPos="12.53" departSpeed="0.00" departDelay="0.50" arrival="86.00" arrivalLane="1369578052#0_1" arrivalPos="131.28" arrivalSpeed="15.74" duration="48.00" routeLength="226.67" waitingTime="12.00" waitingCount="1" stopTime="0.00" timeLoss="34.06" rerouteNo="0" devices="tripinfo_flow_route_53_duration_20250327_1930.10" vType="car" speedFactor="1.09" vaporized=""/>
    <tripinfo id="flow_route_53_duration_20250327_1930.12" depart="53.00" departLane="138002006#0_0" departPos="41.09" departSpeed="0.00" departDelay="8.00" arrival="87.00" arrivalLane="1369578052#0_1" arrivalPos="118.18" arrivalSpeed="13.86" duration="34.00" routeLength="185.01" waitingTime="3.00" waitingCount="1" stopTime="0.00" timeLoss="20.57" rerouteNo="0" devices="tripinfo_flow_route_53_duration_20250327_1930.12" vType="car" speedFactor="0.85" vaporized=""/>
    <tripinfo id="flow_route_67_duration_20250327_1930.3" depart="18.00" departLane="-138002002#2_0" departPos="106.85" departSpeed="0.00" departDelay="0.00" arrival="89.00" arrivalLane="380351865#0_0" arrivalPos="16.39" arrivalSpeed="10.36" duration="71.00" routeLength="242.58" waitingTime="24.00" waitingCount="1" stopTime="0.00" timeLoss="50.26" rerouteNo="0" devices="tripinfo_flow_route_67_duration_20250327_1930.3" vType="car" speedFactor="0.97" vaporized=""/>
    <tripinfo id="flow_route_67_duration_20250327_1930.2" depart="12.00" departLane="-138002002#2_0" departPos="75.77" departSpeed="0.00" departDelay="0.00" arrival="90.00" arrivalLane="380351865#0_0" arrivalPos="5.66" arrivalSpeed="9.98" duration="78.00" routeLength="262.93" waitingTime="23.00" waitingCount="1" stopTime="0.00" timeLoss="55.63" rerouteNo="0" devices="tripinfo_flow_route_67_duration_20250327_1930.2" vType="car" speedFactor="0.94" vaporized=""/>
    <tripinfo id="flow_route_53_duration_20250327_1930.15" depart="57.00" departLane="138002006#0_0" departPos="20.06" departSpeed="0.00" departDelay="0.75" arrival="90.00" arrivalLane="1369578052#0_1" arrivalPos="145.53" arrivalSpeed="16.37" duration="33.00" routeLength="233.39" waitingTime="0.00" waitingCount="0" stopTime="0.00" timeLoss="18.93" rerouteNo="0" devices="tripinfo_flow_route_53_duration_20250327_1930.15" vType="car" speedFactor="1.12" vaporized=""/>
    <tripinfo id="flow_route_67_duration_20250327_1930.6" depart="36.00" departLane="-138002002#2_0" departPos="143.87" departSpeed="0.00" departDelay="0.00" arrival="93.00" arrivalLane="380351865#0_0" arrivalPos="7.96" arrivalSpeed="10.55" duration="57.00" routeLength="197.14" waitingTime="22.00" waitingCount="1" stopTime="0.00" timeLoss="38.42" rerouteNo="0" devices="tripinfo_flow_route_67_duration_20250327_1930.6" vType="car" speedFactor="0.96" vaporized=""/>
    <tripinfo id="flow_route_67_duration_20250327_1930.5" depart="30.00" departLane="-138002002#2_0" departPos="90.76" departSpeed="0.00" departDelay="0.00" arrival="94.00" arrivalLane="380351865#0_0" arrivalPos="5.17" arrivalSpeed="10.72" duration="64.00" routeLength="247.46" waitingTime="22.00" waitingCount="1" stopTime="0.00" timeLoss="43.60" rerouteNo="0" devices="tripinfo_flow_route_67_duration_20250327_1930.5" vType="car" speedFactor="0.97" vaporized=""/>
    <tripinfo id="flow_route_67_duration_20250327_1930.7" depart="43.00" departLane="-138002002#2_0" departPos="105.61" departSpeed="0.00" departDelay="1.00" arrival="98.00" arrivalLane="380351865#0_0" arrivalPos="7.35" arrivalSpeed="9.56" duration="55.00" routeLength="234.79" waitingTime="14.00" waitingCount="1" stopTime="0.00" timeLoss="33.24" rerouteNo="0" devices="tripinfo_flow_route_67_duration_20250327_1930.7" vType="car" speedFactor="0.90" vaporized=""/>
    <tripinfo id="flow_route_67_duration_20250327_1930.8" depart="48.00" departLane="-138002002#2_0" departPos="62.42" departSpeed="0.00" departDelay="0.00" arrival="100.00" arrivalLane="380351865#0_0" arrivalPos="5.90" arrivalSpeed="11.15" duration="52.00" routeLength="276.53" waitingTime="4.00" waitingCount="1" stopTime="0.00" timeLoss="30.64" rerouteNo="0" devices="tripinfo_flow_route_67_duration_20250327_1930.8" vType="car" speedFactor="1.10" vaporized=""/>
    <tripinfo id="flow_route_59_duration_20250327_1930.6" depart="15.00" departLane="186407685_0" departPos="15.76" departSpeed="0.00" departDelay="0.60" arrival="116.00" arrivalLane="1369578052#0_0" arrivalPos="105.36" arrivalSpeed="13.59" duration="101.00" routeLength="275.71" waitingTime="41.00" waitingCount="2" stopTime="0.00" timeLoss="83.03" rerouteNo="0" devices="tripinfo_flow_route_59_duration_20250327_1930.6" vType="car" speedFactor="1.02" vaporized=""/>
    <tripinfo id="flow_route_59_duration_20250327_1930.10" depart="30.00" departLane="186407685_0" departPos="18.54" departSpeed="0.00" departDelay="6.00" arrival="117.00" arrivalLane="1369578052#0_0" arrivalPos="38.19" arrivalSpeed="10.64" duration="87.00" routeLength="205.76" waitingTime="36.00" waitingCount="1" stopTime="0.00" timeLoss="73.46" rerouteNo="0" devices="tripinfo_flow_route_59_duration_20250327_1930.10" vType="car" speedFactor="1.13" vaporized=""/>
    <tripinfo id="flow_route_59_duration_20250327_1930.7" depart="20.00" departLane="186407685_0" departPos="4.93" departSpeed="0.00" departDelay="3.20" arrival="119.00" arrivalLane="1369578052#0_0" arrivalPos="109.90" arrivalSpeed="14.05" duration="99.00" routeLength="291.08" waitingTime="41.00" waitingCount="2" stopTime="0.00" timeLoss="80.15" rerouteNo="0" devices="tripinfo_flow_route_59_duration_20250327_1930.7" vType="car" speedFactor="1.01" vaporized=""/>
    <tripinfo id="flow_route_59_duration_20250327_1930.19" depart="67.00" departLane="186407685_0" departPos="100.68" departSpeed="0.00" departDelay="21.40" arrival="122.00" arrivalLane="1369578052#0_0" arrivalPos="2.70" arrivalSpeed="6.76" duration="55.00" routeLength="88.13" waitingTime="30.00" waitingCount="1" stopTime="0.00" timeLoss="49.13" rerouteNo="0" devices="tripinfo_flow_route_59_duration_20250327_1930.19" vType="car" speedFactor="1.17" vaporized=""/>
    <tripinfo id="flow_route_59_duration_20250327_1930.12" depart="39.00" departLane="186407685_0" departPos="65.80" departSpeed="0.00" departDelay="10.20" arrival="124.00" arrivalLane="1369578052#0_0" arrivalPos="152.17" arrivalSpeed="16.19" duration="85.00" routeLength="272.48" waitingTime="36.00" waitingCount="1" stopTime="0.00" timeLoss="66.69" rerouteNo="0" devices="tripinfo_flow_route_59_duration_20250327_1930.12" vType="car" speedFactor="1.01" vaporized=""/>
    <tripinfo id="flow_route_57_duration_20250327_1930.3" depart="66.00" departLane="186407685_0" departPos="39.07" departSpeed="0.00" departDelay="21.00" arrival="124.00" arrivalLane="380351865#0_0" arrivalPos="14.02" arrivalSpeed="9.29" duration="58.00" routeLength="311.56" waitingTime="12.00" waitingCount="1" stopTime="0.00" timeLoss="31.87" rerouteNo="0" devices="tripinfo_flow_route_57_duration_20250327_1930.3" vType="car" speedFactor="0.85" vaporized=""/>
    <tripinfo id="flow_route_59_duration_20250327_1930.13" depart="39.00" departLane="186407685_0" departPos="7.54" departSpeed="0.00" departDelay="7.80" arrival="125.00" arrivalLane="1369578052#0_0" arrivalPos="84.01" arrivalSpeed="13.13" duration="86.00" routeLength="262.58" waitingTime="36.00" waitingCount="1" stopTime="0.00" timeLoss="69.51" rerouteNo="0" devices="tripinfo_flow_route_59_duration_20250327_1930.13" vType="car" speedFactor="1.18" vaporized=""/>
    <tripinfo id="flow_route_59_duration_20250327_1930.11" depart="38.00" departLane="186407685_0" departPos="22.01" departSpeed="0.00" departDelay="11.60" arrival="127.00" arrivalLane="1369578052#0_0" arrivalPos="125.10" arrivalSpeed="15.64" duration="89.00" routeLength="289.20" waitingTime="36.00" waitingCount="1" stopTime="0.00" timeLoss="70.17" rerouteNo="0" devices="tripinfo_flow_route_59_duration_20250327_1930.11" vType="car" speedFactor="1.15" vaporized=""/>
    <tripinfo id="flow_route_59_duration_20250327_1930.16" depart="55.00" departLane="186407685_0" departPos="64.90" departSpeed="0.00" departDelay="16.60" arrival="134.00" arrivalLane="1369578052#0_0" arrivalPos="162.58" arrivalSpeed="15.96" duration="79.00" routeLength="283.79" waitingTime="35.00" waitingCount="1" stopTime="0.00" timeLoss="60.70" rerouteNo="0" devices="tripinfo_flow_route_59_duration_20250327_1930.16" vType="car" speedFactor="1.04" vaporized=""/>
    <tripinfo id="flow_route_67_duration_20250327_1930.9" depart="55.00" departLane="-138002002#2_0" departPos="29.03" departSpeed="0.00" departDelay="1.00" arrival="147.00" arrivalLane="380351865#0_0" arrivalPos="5.68" arrivalSpeed="10.51" duration="92.00" routeLength="309.70" waitingTime="39.00" waitingCount="1" stopTime="0.00" timeLoss="67.40" rerouteNo="0" devices="tripinfo_flow_route_67_duration_20250327_1930.9" vType="car" speedFactor="0.97" vaporized=""/>
    <tripinfo id="flow_route_59_duration_20250327_1930.18" depart="63.00" departLane="186407685_0" departPos="82.48" departSpeed="0.00" departDelay="19.80" arrival="171.00" arrivalLane="1369578052#0_0" arrivalPos="18.96" arrivalSpeed="6.97" duration="108.00" routeLength="122.59" waitingTime="69.00" waitingCount="2" stopTime="0.00" timeLoss="99.12" rerouteNo="0" devices="tripinfo_flow_route_59_duration_20250327_1930.18" vType="car" speedFactor="0.88" vaporized=""/>
    <tripinfo id="flow_route_59_duration_20250327_1930.15" depart="54.00" departLane="186407685_0" departPos="27.15" departSpeed="0.00" departDelay="18.00" arrival="175.00" arrivalLane="1369578052#0_0" arrivalPos="18.71" arrivalSpeed="7.58" duration="121.00" routeLength="177.67" waitingTime="66.00" waitingCount="2" stopTime="0.00" timeLoss="109.59" rerouteNo="0" devices="tripinfo_flow_route_59_duration_20250327_1930.15" vType="car" speedFactor="1.03" vaporized=""/>
    <tripinfo id="flow_route_59_duration_20250327_1930.14" depart="54.00" departLane="186407685_0" departPos="36.74" departSpeed="0.00" departDelay="20.40" arrival="177.00" arrivalLane="1369578052#0_0" arrivalPos="54.62" arrivalSpeed="10.32" duration="123.00" routeLength="203.99" waitingTime="67.00" waitingCount="2" stopTime="0.00" timeLoss="109.04" rerouteNo="0" devices="tripinfo_flow_route_59_duration_20250327_1930.14" vType="car" speedFactor="0.90" vaporized=""/>
    <tripinfo id="flow_route_59_duration_20250327_1930.17" depart="57.00" departLane="186407685_0" departPos="20.30" departSpeed="0.00" departDelay="16.20" arrival="179.00" arrivalLane="1369578052#0_0" arrivalPos="28.31" arrivalSpeed="9.00" duration="122.00" routeLength="194.11" waitingTime="66.00" waitingCount="2" stopTime="0.00" timeLoss="109.52" rerouteNo="0" devices="tripinfo_flow_route_59_duration_20250327_1930.17" vType="car" speedFactor="1.09" vaporized=""/>
    <tripinfo id="flow_route_59_duration_20250327_1930.20" depart="69.00" departLane="186407685_0" departPos="14.98" departSpeed="0.00" departDelay="21.00" arrival="184.00" arrivalLane="1369578052#0_0" arrivalPos="30.88" arrivalSpeed="9.38" duration="115.00" routeLength="202.01" waitingTime="62.00" waitingCount="2" stopTime="0.00" timeLoss="101.99" rerouteNo="0" devices="tripinfo_flow_route_59_duration_20250327_1930.20" vType="car" speedFactor="1.02" vaporized=""/>
    <tripinfo id="flow_route_59_duration_20250327_1930.21" depart="70.00" departLane="186407685_0" departPos="6.13" departSpeed="0.00" departDelay="19.60" arrival="186.00" arrivalLane="1369578052#0_0" arrivalPos="21.08" arrivalSpeed="7.50" duration="116.00" routeLength="201.05" waitingTime="62.00" waitingCount="2" stopTime="0.00" timeLoss="102.29" rerouteNo="0" devices="tripinfo_flow_route_59_duration_20250327_1930.21" vType="car" speedFactor="0.90" vaporized=""/>
    <tripinfo id="flow_route_59_duration_20250327_1930.23" depart="77.00" departLane="186407685_0" departPos="76.19" departSpeed="0.00" departDelay="21.80" arrival="188.00" arrivalLane="1369578052#0_0" arrivalPos="106.83" arrivalSpeed="14.03" duration="111.00" routeLength="216.75" waitingTime="64.00" waitingCount="3" stopTime="0.00" timeLoss="96.37" rerouteNo="0" devices="tripinfo_flow_route_59_duration_20250327_1930.23" vType="car" speedFactor="1.08" vaporized=""/>
    <tripinfo id="flow_route_59_duration_20250327_1930.24" depart="80.00" departLane="186407685_0" departPos="33.75" departSpeed="0.00" departDelay="22.40" arrival="190.00" arrivalLane="1369578052#0_0" arrivalPos="41.98" arrivalSpeed="10.26" duration="110.00" routeLength="194.34" waitingTime="62.00" waitingCount="2" stopTime="0.00" timeLoss="97.60" rerouteNo="0" devices="tripinfo_flow_route_59_duration_20250327_1930.24" vType="car" speedFactor="1.02" vaporized=""/>