<?xml version="1.0" encoding="UTF-8"?>

<!-- generated on 2025-05-06 21:09:13 by Eclipse SUMO sumo Version 1.20.0
<configuration xmlns:xsi="http://www.w3.org/2001/XMLSchema-instance" xsi:noNamespaceSchemaLocation="http://sumo.dlr.de/xsd/sumoConfiguration.xsd">

    <input>
        <net-file value="osm.net.xml"/>
        <route-files value="xml/route_rl_cluster7571105647_7571105653_cluster_1141265322_11869698130_256036890_4227138136_#4more_9.rou.xml"/>
    </input>

    <output>
        <tripinfo-output value="xml/tripinfo_rl_cluster7571105647_7571105653_cluster_1141265322_11869698130_256036890_4227138136_#4more_9.xml"/>
    </output>

    <traci_server>
        <remote-port value="48355"/>
    </traci_server>

</configuration>
-->

<tripinfos xmlns:xsi="http://www.w3.org/2001/XMLSchema-instance" xsi:noNamespaceSchemaLocation="http://sumo.dlr.de/xsd/tripinfo_file.xsd">
    <tripinfo id="flow_route_143_duration_20250327_1930.0" depart="0.00" departLane="1253222187#0_0" departPos="157.10" departSpeed="0.00" departDelay="0.00" arrival="28.00" arrivalLane="1310781056_0" arrivalPos="55.73" arrivalSpeed="16.37" duration="28.00" routeLength="267.13" waitingTime="0.00" waitingCount="0" stopTime="0.00" timeLoss="11.65" rerouteNo="0" devices="tripinfo_flow_route_143_duration_20250327_1930.0" vType="car" speedFactor="1.08" vaporized=""/>
    <tripinfo id="flow_route_143_duration_20250327_1930.2" depart="11.00" departLane="1253222187#0_0" departPos="195.68" departSpeed="0.00" departDelay="3.00" arrival="37.00" arrivalLane="1310781056_0" arrivalPos="64.82" arrivalSpeed="16.47" duration="26.00" routeLength="237.64" waitingTime="0.00" waitingCount="0" stopTime="0.00" timeLoss="10.75" rerouteNo="0" devices="tripinfo_flow_route_143_duration_20250327_1930.2" vType="car" speedFactor="1.02" vaporized=""/>
    <tripinfo id="flow_route_143_duration_20250327_1930.1" depart="5.00" departLane="1253222187#0_0" departPos="33.55" departSpeed="0.00" departDelay="1.00" arrival="47.00" arrivalLane="1310781056_0" arrivalPos="106.49" arrivalSpeed="16.13" duration="42.00" routeLength="441.44" waitingTime="0.00" waitingCount="0" stopTime="0.00" timeLoss="15.15" rerouteNo="0" devices="tripinfo_flow_route_143_duration_20250327_1930.1" vType="car" speedFactor="1.05" vaporized=""/>
    <tripinfo id="flow_route_143_duration_20250327_1930.3" depart="21.00" departLane="1253222187#0_0" departPos="139.85" departSpeed="0.00" departDelay="9.00" arrival="48.00" arrivalLane="1310781056_0" arrivalPos="9.75" arrivalSpeed="16.39" duration="27.00" routeLength="238.40" waitingTime="0.00" waitingCount="0" stopTime="0.00" timeLoss="11.74" rerouteNo="0" devices="tripinfo_flow_route_143_duration_20250327_1930.3" vType="car" speedFactor="0.93" vaporized=""/>
    <tripinfo id="flow_route_140_duration_20250327_1930.2" depart="5.00" departLane="809719540#0_0" departPos="256.94" departSpeed="0.00" departDelay="0.56" arrival="52.00" arrivalLane="-809772643#1_0" arrivalPos="48.94" arrivalSpeed="11.18" duration="47.00" routeLength="99.45" waitingTime="26.00" waitingCount="1" stopTime="0.00" timeLoss="40.94" rerouteNo="0" devices="tripinfo_flow_route_140_duration_20250327_1930.2" vType="car" speedFactor="1.12" vaporized=""/>
    <tripinfo id="flow_route_142_duration_20250327_1930.0" depart="0.00" departLane="1253222187#0_0" departPos="114.97" departSpeed="0.00" departDelay="0.00" arrival="53.00" arrivalLane="683079388#0_0" arrivalPos="1.17" arrivalSpeed="16.33" duration="53.00" routeLength="684.52" waitingTime="0.00" waitingCount="0" stopTime="0.00" timeLoss="11.08" rerouteNo="0" devices="tripinfo_flow_route_142_duration_20250327_1930.0" vType="car" speedFactor="1.01" vaporized=""/>
    <tripinfo id="flow_route_140_duration_20250327_1930.3" depart="8.00" departLane="809719540#0_0" departPos="218.02" departSpeed="0.00" departDelay="1.33" arrival="53.00" arrivalLane="-809772643#1_1" arrivalPos="26.75" arrivalSpeed="10.13" duration="45.00" routeLength="119.01" waitingTime="18.00" waitingCount="1" stopTime="0.00" timeLoss="36.86" rerouteNo="0" devices="tripinfo_flow_route_140_duration_20250327_1930.3" vType="car" speedFactor="0.88" vaporized=""/>
    <tripinfo id="flow_route_140_duration_20250327_1930.1" depart="3.00" departLane="809719540#0_0" departPos="12.41" departSpeed="0.00" departDelay="0.78" arrival="56.00" arrivalLane="-809772643#1_1" arrivalPos="12.46" arrivalSpeed="10.49" duration="53.00" routeLength="310.33" waitingTime="9.00" waitingCount="1" stopTime="0.00" timeLoss="31.64" rerouteNo="0" devices="tripinfo_flow_route_140_duration_20250327_1930.1" vType="car" speedFactor="0.89" vaporized=""/>
    <tripinfo id="flow_route_140_duration_20250327_1930.7" depart="16.00" departLane="809719540#0_0" departPos="190.91" departSpeed="0.00" departDelay="0.45" arrival="56.00" arrivalLane="-809772643#1_0" arrivalPos="21.65" arrivalSpeed="11.09" duration="40.00" routeLength="138.19" waitingTime="11.00" waitingCount="1" stopTime="0.00" timeLoss="30.90" rerouteNo="0" devices="tripinfo_flow_route_140_duration_20250327_1930.7" vType="car" speedFactor="0.97" vaporized=""/>
    <tripinfo id="flow_route_140_duration_20250327_1930.5" depart="14.00" departLane="809719540#0_0" departPos="221.74" departSpeed="0.00" departDelay="2.89" arrival="58.00" arrivalLane="-809772643#1_0" arrivalPos="64.89" arrivalSpeed="13.17" duration="44.00" routeLength="150.61" waitingTime="15.00" waitingCount="1" stopTime="0.00" timeLoss="33.67" rerouteNo="0" devices="tripinfo_flow_route_140_duration_20250327_1930.5" vType="car" speedFactor="0.95" vaporized=""/>
    <tripinfo id="flow_route_142_duration_20250327_1930.2" depart="3.00" departLane="1253222187#0_0" departPos="108.15" departSpeed="0.00" departDelay="0.50" arrival="59.00" arrivalLane="683079388#0_0" arrivalPos="22.61" arrivalSpeed="15.17" duration="56.00" routeLength="712.76" waitingTime="0.00" waitingCount="0" stopTime="0.00" timeLoss="10.13" rerouteNo="0" devices="tripinfo_flow_route_142_duration_20250327_1930.2" vType="car" speedFactor="0.94" vaporized=""/>
    <tripinfo id="flow_route_142_duration_20250327_1930.3" depart="4.00" departLane="1253222187#0_0" departPos="83.61" departSpeed="0.00" departDelay="0.25" arrival="59.00" arrivalLane="683079388#0_2" arrivalPos="16.36" arrivalSpeed="16.26" duration="55.00" routeLength="731.05" waitingTime="0.00" waitingCount="0" stopTime="0.00" timeLoss="10.68" rerouteNo="0" devices="tripinfo_flow_route_142_duration_20250327_1930.3" vType="car" speedFactor="1.03" vaporized=""/>
    <tripinfo id="flow_route_142_duration_20250327_1930.1" depart="2.00" departLane="1253222187#0_0" departPos="55.77" departSpeed="0.00" departDelay="0.75" arrival="60.00" arrivalLane="683079388#0_0" arrivalPos="11.67" arrivalSpeed="16.11" duration="58.00" routeLength="754.21" waitingTime="0.00" waitingCount="0" stopTime="0.00" timeLoss="12.47" rerouteNo="0" devices="tripinfo_flow_route_142_duration_20250327_1930.1" vType="car" speedFactor="1.05" vaporized=""/>
    <tripinfo id="flow_route_140_duration_20250327_1930.0" depart="0.00" departLane="809719540#0_0" departPos="199.64" departSpeed="0.00" departDelay="0.00" arrival="63.00" arrivalLane="-809772643#1_0" arrivalPos="184.22" arrivalSpeed="16.34" duration="63.00" routeLength="292.04" waitingTime="25.00" waitingCount="1" stopTime="0.00" timeLoss="45.35" rerouteNo="0" devices="tripinfo_flow_route_140_duration_20250327_1930.0" vType="car" speedFactor="1.06" vaporized=""/>
    <tripinfo id="flow_route_142_duration_20250327_1930.5" depart="7.00" departLane="1253222187#0_0" departPos="55.68" departSpeed="0.00" departDelay="0.75" arrival="66.00" arrivalLane="683079388#0_0" arrivalPos="3.24" arrivalSpeed="15.23" duration="59.00" routeLength="745.87" waitingTime="0.00" waitingCount="0" stopTime="0.00" timeLoss="10.95" rerouteNo="0" devices="tripinfo_flow_route_142_duration_20250327_1930.5" vType="car" speedFactor="0.94" vaporized=""/>
    <tripinfo id="flow_route_140_duration_20250327_1930.6" depart="16.00" departLane="809719540#0_0" departPos="132.33" departSpeed="0.00" departDelay="2.67" arrival="66.00" arrivalLane="-809772643#1_0" arrivalPos="140.32" arrivalSpeed="16.56" duration="50.00" routeLength="315.44" waitingTime="6.00" waitingCount="1" stopTime="0.00" timeLoss="30.06" rerouteNo="0" devices="tripinfo_flow_route_140_duration_20250327_1930.6" vType="car" speedFactor="1.15" vaporized=""/>
    <tripinfo id="flow_route_140_duration_20250327_1930.9" depart="23.00" departLane="809719540#0_0" departPos="129.65" departSpeed="0.00" departDelay="3.00" arrival="66.00" arrivalLane="-809772643#1_0" arrivalPos="99.25" arrivalSpeed="15.03" duration="43.00" routeLength="277.05" waitingTime="0.00" waitingCount="0" stopTime="0.00" timeLoss="26.28" rerouteNo="0" devices="tripinfo_flow_route_140_duration_20250327_1930.9" vType="car" speedFactor="1.04" vaporized=""/>
    <tripinfo id="flow_route_140_duration_20250327_1930.13" depart="32.00" departLane="809719540#0_0" departPos="199.05" departSpeed="0.00" departDelay="3.11" arrival="66.00" arrivalLane="-809772643#1_0" arrivalPos="119.83" arrivalSpeed="14.42" duration="34.00" routeLength="228.23" waitingTime="0.00" waitingCount="0" stopTime="0.00" timeLoss="18.18" rerouteNo="0" devices="tripinfo_flow_route_140_duration_20250327_1930.13" vType="car" speedFactor="0.88" vaporized=""/>
    <tripinfo id="flow_route_140_duration_20250327_1930.8" depart="18.00" departLane="809719540#0_0" departPos="75.53" departSpeed="0.00" departDelay="0.22" arrival="67.00" arrivalLane="-809772643#1_0" arrivalPos="84.99" arrivalSpeed="16.33" duration="49.00" routeLength="316.91" waitingTime="0.00" waitingCount="0" stopTime="0.00" timeLoss="29.75" rerouteNo="0" devices="tripinfo_flow_route_140_duration_20250327_1930.8" vType="car" speedFactor="1.03" vaporized=""/>
    <tripinfo id="flow_route_142_duration_20250327_1930.4" depart="5.00" departLane="1253222187#0_0" departPos="6.29" departSpeed="0.00" departDelay="0.00" arrival="68.00" arrivalLane="683079388#0_0" arrivalPos="0.84" arrivalSpeed="16.37" duration="63.00" routeLength="792.86" waitingTime="0.00" waitingCount="0" stopTime="0.00" timeLoss="14.65" rerouteNo="0" devices="tripinfo_flow_route_142_duration_20250327_1930.4" vType="car" speedFactor="0.99" vaporized=""/>
    <tripinfo id="flow_route_142_duration_20250327_1930.6" depart="10.00" departLane="1253222187#0_0" departPos="38.66" departSpeed="0.00" departDelay="2.50" arrival="71.00" arrivalLane="683079388#0_0" arrivalPos="4.34" arrivalSpeed="16.56" duration="61.00" routeLength="763.99" waitingTime="0.00" waitingCount="0" stopTime="0.00" timeLoss="14.38" rerouteNo="0" devices="tripinfo_flow_route_142_duration_20250327_1930.6" vType="car" speedFactor="1.16" vaporized=""/>
    <tripinfo id="flow_route_140_duration_20250327_1930.4" depart="11.00" departLane="809719540#0_0" departPos="17.99" departSpeed="0.00" departDelay="2.11" arrival="71.00" arrivalLane="-809772643#1_1" arrivalPos="147.95" arrivalSpeed="16.27" duration="60.00" routeLength="440.24" waitingTime="0.00" waitingCount="0" stopTime="0.00" timeLoss="32.66" rerouteNo="0" devices="tripinfo_flow_route_140_duration_20250327_1930.4" vType="car" speedFactor="1.01" vaporized=""/>
    <tripinfo id="flow_route_140_duration_20250327_1930.14" depart="32.00" departLane="809719540#0_0" departPos="32.08" departSpeed="0.00" departDelay="0.89" arrival="71.00" arrivalLane="-809772643#1_1" arrivalPos="45.62" arrivalSpeed="14.85" duration="39.00" routeLength="323.82" waitingTime="0.00" waitingCount="0" stopTime="0.00" timeLoss="19.12" rerouteNo="0" devices="tripinfo_flow_route_140_duration_20250327_1930.14" vType="car" speedFactor="1.02" vaporized=""/>
    <tripinfo id="flow_route_142_duration_20250327_1930.15" depart="26.00" departLane="1253222187#0_0" departPos="210.15" departSpeed="0.00" departDelay="7.25" arrival="73.00" arrivalLane="683079388#0_0" arrivalPos="3.21" arrivalSpeed="16.34" duration="47.00" routeLength="591.37" waitingTime="0.00" waitingCount="0" stopTime="0.00" timeLoss="11.18" rerouteNo="0" devices="tripinfo_flow_route_142_duration_20250327_1930.15" vType="car" speedFactor="1.04" vaporized=""/>
    <tripinfo id="flow_route_142_duration_20250327_1930.12" depart="22.00" departLane="1253222187#0_0" departPos="180.60" departSpeed="0.00" departDelay="7.00" arrival="76.00" arrivalLane="683079388#0_0" arrivalPos="9.43" arrivalSpeed="16.39" duration="54.00" routeLength="627.14" waitingTime="0.00" waitingCount="0" stopTime="0.00" timeLoss="15.34" rerouteNo="0" devices="tripinfo_flow_route_142_duration_20250327_1930.12" vType="car" speedFactor="1.02" vaporized=""/>
    <tripinfo id="flow_route_140_duration_20250327_1930.11" depart="28.00" departLane="809719540#0_0" departPos="98.44" departSpeed="0.00" departDelay="3.56" arrival="76.00" arrivalLane="-809772643#1_1" arrivalPos="189.94" arrivalSpeed="14.62" duration="48.00" routeLength="401.77" waitingTime="0.00" waitingCount="0" stopTime="0.00" timeLoss="20.68" rerouteNo="0" devices="tripinfo_flow_route_140_duration_20250327_1930.11" vType="car" speedFactor="0.90" vaporized=""/>
    <tripinfo id="flow_route_140_duration_20250327_1930.17" depart="40.00" departLane="809719540#0_0" departPos="91.69" departSpeed="0.00" departDelay="2.23" arrival="76.00" arrivalLane="-809772643#1_1" arrivalPos="75.58" arrivalSpeed="15.99" duration="36.00" routeLength="294.16" waitingTime="0.00" waitingCount="0" stopTime="0.00" timeLoss="17.93" rerouteNo="0" devices="tripinfo_flow_route_140_duration_20250327_1930.17" vType="car" speedFactor="1.15" vaporized=""/>
    <tripinfo id="flow_route_140_duration_20250327_1930.22" depart="56.00" departLane="809719540#0_0" departPos="234.01" departSpeed="0.00" departDelay="7.12" arrival="76.00" arrivalLane="-809772643#1_0" arrivalPos="66.48" arrivalSpeed="13.88" duration="20.00" routeLength="139.92" waitingTime="0.00" waitingCount="0" stopTime="0.00" timeLoss="10.88" rerouteNo="0" devices="tripinfo_flow_route_140_duration_20250327_1930.22" vType="car" speedFactor="0.96" vaporized=""/>
    <tripinfo id="flow_route_140_duration_20250327_1930.12" depart="28.00" departLane="809719540#0_0" departPos="42.34" departSpeed="0.00" departDelay="1.34" arrival="77.00" arrivalLane="-809772643#1_1" arrivalPos="162.11" arrivalSpeed="15.03" duration="49.00" routeLength="430.05" waitingTime="0.00" waitingCount="0" stopTime="0.00" timeLoss="22.86" rerouteNo="0" devices="tripinfo_flow_route_140_duration_20250327_1930.12" vType="car" speedFactor="1.08" vaporized=""/>
    <tripinfo id="flow_route_140_duration_20250327_1930.10" depart="23.00" departLane="809719540#0_0" departPos="44.99" departSpeed="0.00" departDelay="0.78" arrival="78.00" arrivalLane="-809772643#1_1" arrivalPos="195.34" arrivalSpeed="16.28" duration="55.00" routeLength="460.63" waitingTime="0.00" waitingCount="0" stopTime="0.00" timeLoss="26.57" rerouteNo="0" devices="tripinfo_flow_route_140_duration_20250327_1930.10" vType="car" speedFactor="1.02" vaporized=""/>
    <tripinfo id="flow_route_140_duration_20250327_1930.15" depart="36.00" departLane="809719540#0_0" departPos="50.49" departSpeed="0.00" departDelay="2.67" arrival="79.00" arrivalLane="-809772643#1_1" arrivalPos="152.80" arrivalSpeed="16.57" duration="43.00" routeLength="412.59" waitingTime="0.00" waitingCount="0" stopTime="0.00" timeLoss="18.01" rerouteNo="0" devices="tripinfo_flow_route_140_duration_20250327_1930.15" vType="car" speedFactor="1.03" vaporized=""/>
    <tripinfo id="flow_route_140_duration_20250327_1930.18" depart="50.00" departLane="809719540#0_0" departPos="189.26" departSpeed="0.00" departDelay="10.00" arrival="81.00" arrivalLane="-809772643#1_0" arrivalPos="112.61" arrivalSpeed="16.27" duration="31.00" routeLength="230.80" waitingTime="0.00" waitingCount="0" stopTime="0.00" timeLoss="16.30" rerouteNo="0" devices="tripinfo_flow_route_140_duration_20250327_1930.18" vType="car" speedFactor="1.02" vaporized=""/>
    <tripinfo id="flow_route_140_duration_20250327_1930.16" depart="36.00" departLane="809719540#0_0" departPos="93.13" departSpeed="0.00" departDelay="0.45" arrival="82.00" arrivalLane="-809772643#1_0" arrivalPos="112.83" arrivalSpeed="16.42" duration="46.00" routeLength="327.15" waitingTime="0.00" waitingCount="0" stopTime="0.00" timeLoss="26.22" rerouteNo="0" devices="tripinfo_flow_route_140_duration_20250327_1930.16" vType="car" speedFactor="1.09" vaporized=""/>
    <tripinfo id="flow_route_141_duration_20250327_1930.1" depart="4.00" departLane="809719540#0_0" departPos="238.42" departSpeed="0.00" departDelay="0.47" arrival="90.00" arrivalLane="683079387#1_1" arrivalPos="3.14" arrivalSpeed="6.85" duration="86.00" routeLength="667.30" waitingTime="23.00" waitingCount="1" stopTime="0.00" timeLoss="43.38" rerouteNo="0" devices="tripinfo_flow_route_141_duration_20250327_1930.1" vType="car" speedFactor="1.09" vaporized=""/>
    <tripinfo id="flow_route_146_duration_20250327_1930.4" depart="23.00" departLane="683079387#1_0" departPos="0.15" departSpeed="0.00" departDelay="12.09" arrival="92.00" arrivalLane="-809772643#1_1" arrivalPos="5.76" arrivalSpeed="11.20" duration="69.00" routeLength="618.58" waitingTime="6.00" waitingCount="1" stopTime="0.00" timeLoss="27.82" rerouteNo="0" devices="tripinfo_flow_route_146_duration_20250327_1930.4" vType="car" speedFactor="0.92" vaporized=""/>
    <tripinfo id="flow_route_141_duration_20250327_1930.0" depart="0.00" departLane="809719540#0_0" departPos="66.48" departSpeed="0.00" departDelay="0.00" arrival="93.00" arrivalLane="683079387#1_1" arrivalPos="7.27" arrivalSpeed="6.20" duration="93.00" routeLength="836.36" waitingTime="13.00" waitingCount="1" stopTime="0.00" timeLoss="36.65" rerouteNo="0" devices="tripinfo_flow_route_141_duration_20250327_1930.0" vType="car" speedFactor="0.94" vaporized=""/>
    <tripinfo id="flow_route_146_duration_20250327_1930.1" depart="10.00" departLane="683079387#1_0" departPos="5.92" departSpeed="0.00" departDelay="7.27" arrival="94.00" arrivalLane="-809772643#1_1" arrivalPos="66.57" arrivalSpeed="13.69" duration="84.00" routeLength="673.62" waitingTime="11.00" waitingCount="2" stopTime="0.00" timeLoss="36.75" rerouteNo="0" devices="tripinfo_flow_route_146_duration_20250327_1930.1" vType="car" speedFactor="0.86" vaporized=""/>
    <tripinfo id="flow_route_147_duration_20250327_1930.0" depart="5.00" departLane="683079387#1_0" departPos="3.08" departSpeed="0.00" departDelay="5.00" arrival="95.00" arrivalLane="1310781056_0" arrivalPos="4.95" arrivalSpeed="14.02" duration="90.00" routeLength="681.69" waitingTime="19.00" waitingCount="1" stopTime="0.00" timeLoss="40.19" rerouteNo="0" devices="tripinfo_flow_route_147_duration_20250327_1930.0" vType="car" speedFactor="0.83" vaporized=""/>
    <tripinfo id="flow_route_141_duration_20250327_1930.2" depart="11.00" departLane="809719540#0_0" departPos="146.86" departSpeed="0.00" departDelay="3.94" arrival="95.00" arrivalLane="683079387#1_1" arrivalPos="2.28" arrivalSpeed="5.68" duration="84.00" routeLength="750.98" waitingTime="8.00" waitingCount="1" stopTime="0.00" timeLoss="32.90" rerouteNo="0" devices="tripinfo_flow_route_141_duration_20250327_1930.2" vType="car" speedFactor="0.94" vaporized=""/>
    <tripinfo id="flow_route_146_duration_20250327_1930.0" depart="0.00" departLane="683079387#1_0" departPos="0.06" departSpeed="0.00" departDelay="0.00" arrival="96.00" arrivalLane="-809772643#1_0" arrivalPos="121.98" arrivalSpeed="16.42" duration="96.00" routeLength="734.89" waitingTime="28.00" waitingCount="1" stopTime="0.00" timeLoss="50.80" rerouteNo="0" devices="tripinfo_flow_route_146_duration_20250327_1930.0" vType="car" speedFactor="1.03" vaporized=""/>
    <tripinfo id="flow_route_146_duration_20250327_1930.2" depart="13.00" departLane="683079387#1_0" departPos="0.82" departSpeed="0.00" departDelay="7.55" arrival="97.00" arrivalLane="-809772643#1_0" arrivalPos="141.65" arrivalSpeed="15.07" duration="84.00" routeLength="753.80" waitingTime="13.00" waitingCount="1" stopTime="0.00" timeLoss="34.92" rerouteNo="0" devices="tripinfo_flow_route_146_duration_20250327_1930.2" vType="car" speedFactor="0.93" vaporized=""/>
    <tripinfo id="flow_route_141_duration_20250327_1930.7" depart="28.00" departLane="809719540#0_0" departPos="215.35" departSpeed="0.00" departDelay="3.30" arrival="97.00" arrivalLane="683079387#1_1" arrivalPos="0.12" arrivalSpeed="5.79" duration="69.00" routeLength="680.33" waitingTime="0.00" waitingCount="0" stopTime="0.00" timeLoss="26.08" rerouteNo="0" devices="tripinfo_flow_route_141_duration_20250327_1930.7" vType="car" speedFactor="1.14" vaporized=""/>
    <tripinfo id="flow_route_146_duration_20250327_1930.3" depart="18.00" departLane="683079387#1_0" departPos="1.04" departSpeed="0.00" departDelay="9.82" arrival="101.00" arrivalLane="-809772643#1_0" arrivalPos="143.00" arrivalSpeed="14.62" duration="83.00" routeLength="754.93" waitingTime="9.00" waitingCount="1" stopTime="0.00" timeLoss="31.86" rerouteNo="0" devices="tripinfo_flow_route_146_duration_20250327_1930.3" vType="car" speedFactor="0.89" vaporized=""/>
    <tripinfo id="flow_route_141_duration_20250327_1930.6" depart="23.00" departLane="809719540#0_0" departPos="242.64" departSpeed="0.00" departDelay="1.83" arrival="101.00" arrivalLane="683079387#1_1" arrivalPos="3.87" arrivalSpeed="5.70" duration="78.00" routeLength="663.81" waitingTime="11.00" waitingCount="1" stopTime="0.00" timeLoss="28.07" rerouteNo="0" devices="tripinfo_flow_route_141_duration_20250327_1930.6" vType="car" speedFactor="0.85" vaporized=""/>
    <tripinfo id="flow_route_146_duration_20250327_1930.5" depart="29.00" departLane="683079387#1_0" departPos="1.17" departSpeed="0.00" departDelay="15.37" arrival="102.00" arrivalLane="-809772643#1_0" arrivalPos="127.18" arrivalSpeed="16.49" duration="73.00" routeLength="738.98" waitingTime="2.00" waitingCount="1" stopTime="0.00" timeLoss="28.06" rerouteNo="0" devices="tripinfo_flow_route_146_duration_20250327_1930.5" vType="car" speedFactor="1.17" vaporized=""/>
    <tripinfo id="flow_route_141_duration_20250327_1930.4" depart="16.00" departLane="809719540#0_0" departPos="114.18" departSpeed="0.00" departDelay="1.88" arrival="103.00" arrivalLane="683079387#1_1" arrivalPos="4.26" arrivalSpeed="6.77" duration="87.00" routeLength="792.66" waitingTime="4.00" waitingCount="1" stopTime="0.00" timeLoss="36.54" rerouteNo="0" devices="tripinfo_flow_route_141_duration_20250327_1930.4" vType="car" speedFactor="0.99" vaporized=""/>
    <tripinfo id="flow_route_146_duration_20250327_1930.7" depart="38.00" departLane="683079387#1_0" departPos="2.16" departSpeed="0.00" departDelay="18.91" arrival="105.00" arrivalLane="-809772643#1_1" arrivalPos="139.63" arrivalSpeed="14.74" duration="67.00" routeLength="750.44" waitingTime="0.00" waitingCount="0" stopTime="0.00" timeLoss="16.41" rerouteNo="0" devices="tripinfo_flow_route_146_duration_20250327_1930.7" vType="car" speedFactor="0.90" vaporized=""/>
    <tripinfo id="flow_route_141_duration_20250327_1930.3" depart="13.00" departLane="809719540#0_0" departPos="77.90" departSpeed="0.00" departDelay="2.41" arrival="106.00" arrivalLane="683079387#1_1" arrivalPos="1.55" arrivalSpeed="6.20" duration="93.00" routeLength="819.21" waitingTime="0.00" waitingCount="0" stopTime="0.00" timeLoss="33.40" rerouteNo="0" devices="tripinfo_flow_route_141_duration_20250327_1930.3" vType="car" speedFactor="0.87" vaporized=""/>
    <tripinfo id="flow_route_146_duration_20250327_1930.6" depart="33.00" departLane="683079387#1_0" departPos="0.87" departSpeed="0.00" departDelay="16.64" arrival="106.00" arrivalLane="-809772643#1_1" arrivalPos="180.67" arrivalSpeed="14.93" duration="73.00" routeLength="792.77" waitingTime="0.00" waitingCount="0" stopTime="0.00" timeLoss="19.77" rerouteNo="0" devices="tripinfo_flow_route_146_duration_20250327_1930.6" vType="car" speedFactor="0.90" vaporized=""/>
    <tripinfo id="flow_route_146_duration_20250327_1930.8" depart="50.00" departLane="683079387#1_0" departPos="2.55" departSpeed="0.00" departDelay="28.18" arrival="106.00" arrivalLane="-809772643#1_1" arrivalPos="122.54" arrivalSpeed="16.50" duration="56.00" routeLength="732.97" waitingTime="0.00" waitingCount="0" stopTime="0.00" timeLoss="10.97" rerouteNo="0" devices="tripinfo_flow_route_146_duration_20250327_1930.8" vType="car" speedFactor="1.17" vaporized=""/>
    <tripinfo id="flow_route_141_duration_20250327_1930.5" depart="19.00" departLane="809719540#0_0" departPos="99.81" departSpeed="0.00" departDelay="1.36" arrival="108.00" arrivalLane="683079387#1_1" arrivalPos="3.50" arrivalSpeed="5.35" duration="89.00" routeLength="799.25" waitingTime="0.00" waitingCount="0" stopTime="0.00" timeLoss="35.56" rerouteNo="0" devices="tripinfo_flow_route_141_duration_20250327_1930.5" vType="car" speedFactor="0.96" vaporized=""/>
    <tripinfo id="flow_route_146_duration_20250327_1930.10" depart="58.00" departLane="683079387#1_0" departPos="0.54" departSpeed="0.00" departDelay="30.73" arrival="112.00" arrivalLane="-809772643#1_0" arrivalPos="66.87" arrivalSpeed="15.56" duration="54.00" routeLength="679.31" waitingTime="0.00" waitingCount="0" stopTime="0.00" timeLoss="9.67" rerouteNo="0" devices="tripinfo_flow_route_146_duration_20250327_1930.10" vType="car" speedFactor="0.94" vaporized=""/>
    <tripinfo id="flow_route_141_duration_20250327_1930.9" depart="32.00" departLane="809719540#0_0" departPos="122.40" departSpeed="0.00" departDelay="0.24" arrival="112.00" arrivalLane="683079387#1_1" arrivalPos="9.37" arrivalSpeed="7.23" duration="80.00" routeLength="782.53" waitingTime="0.00" waitingCount="0" stopTime="0.00" timeLoss="28.70" rerouteNo="0" devices="tripinfo_flow_route_141_duration_20250327_1930.9" vType="car" speedFactor="0.97" vaporized=""/>
    <tripinfo id="flow_route_147_duration_20250327_1930.1" depart="44.00" departLane="683079387#1_0" departPos="4.78" departSpeed="0.00" departDelay="24.00" arrival="113.00" arrivalLane="1310781056_0" arrivalPos="110.93" arrivalSpeed="16.49" duration="69.00" routeLength="785.98" waitingTime="0.00" waitingCount="0" stopTime="0.00" timeLoss="14.89" rerouteNo="0" devices="tripinfo_flow_route_147_duration_20250327_1930.1" vType="car" speedFactor="0.88" vaporized=""/>
    <tripinfo id="flow_route_141_duration_20250327_1930.8" depart="32.00" departLane="809719540#0_0" departPos="178.92" departSpeed="0.00" departDelay="3.77" arrival="113.00" arrivalLane="683079387#1_1" arrivalPos="1.32" arrivalSpeed="5.16" duration="81.00" routeLength="724.99" waitingTime="0.00" waitingCount="0" stopTime="0.00" timeLoss="30.19" rerouteNo="0" devices="tripinfo_flow_route_141_duration_20250327_1930.8" vType="car" speedFactor="0.91" vaporized=""/>
    <tripinfo id="flow_route_146_duration_20250327_1930.9" depart="55.00" departLane="683079387#1_0" departPos="6.16" departSpeed="0.00" departDelay="30.46" arrival="116.00" arrivalLane="-809772643#1_0" arrivalPos="187.98" arrivalSpeed="16.11" duration="61.00" routeLength="794.79" waitingTime="0.00" waitingCount="0" stopTime="0.00" timeLoss="11.38" rerouteNo="0" devices="tripinfo_flow_route_146_duration_20250327_1930.9" vType="car" speedFactor="0.97" vaporized=""/>
    <tripinfo id="flow_route_141_duration_20250327_1930.11" depart="44.00" departLane="809719540#0_0" departPos="142.21" departSpeed="0.00" departDelay="5.18" arrival="117.00" arrivalLane="683079387#1_1" arrivalPos="9.38" arrivalSpeed="7.74" duration="73.00" routeLength="762.72" waitingTime="0.00" waitingCount="0" stopTime="0.00" timeLoss="23.96" rerouteNo="0" devices="tripinfo_flow_route_141_duration_20250327_1930.11" vType="car" speedFactor="1.00" vaporized=""/>
    <tripinfo id="flow_route_141_duration_20250327_1930.10" depart="38.00" departLane="809719540#0_0" departPos="8.47" departSpeed="0.00" departDelay="2.71" arrival="119.00" arrivalLane="683079387#1_1" arrivalPos="9.62" arrivalSpeed="6.77" duration="81.00" routeLength="896.71" waitingTime="0.00" waitingCount="0" stopTime="0.00" timeLoss="24.19" rerouteNo="0" devices="tripinfo_flow_route_141_duration_20250327_1930.10" vType="car" speedFactor="1.03" vaporized=""/>
    <tripinfo id="flow_route_142_duration_20250327_1930.7" depart="17.00" departLane="1253222187#0_0" departPos="120.95" departSpeed="0.00" departDelay="8.25" arrival="123.00" arrivalLane="683079388#0_0" arrivalPos="15.39" arrivalSpeed="15.88" duration="106.00" routeLength="692.76" waitingTime="37.00" waitingCount="1" stopTime="0.00" timeLoss="62.50" rerouteNo="0" devices="tripinfo_flow_route_142_duration_20250327_1930.7" vType="car" speedFactor="0.97" vaporized=""/>
    <tripinfo id="flow_route_142_duration_20250327_1930.10" depart="21.00" departLane="1253222187#0_0" departPos="90.84" departSpeed="0.00" departDelay="8.50" arrival="123.00" arrivalLane="683079388#0_2" arrivalPos="1.21" arrivalSpeed="16.41" duration="102.00" routeLength="708.68" waitingTime="35.00" waitingCount="1" stopTime="0.00" timeLoss="58.77" rerouteNo="0" devices="tripinfo_flow_route_142_duration_20250327_1930.10" vType="car" speedFactor="1.18" vaporized=""/>
    <tripinfo id="flow_route_140_duration_20250327_1930.24" depart="58.00" departLane="809719540#0_0" departPos="181.03" departSpeed="0.00" departDelay="4.67" arrival="124.00" arrivalLane="-809772643#1_0" arrivalPos="12.46" arrivalSpeed="9.02" duration="66.00" routeLength="138.88" waitingTime="37.00" waitingCount="1" stopTime="0.00" timeLoss="56.70" rerouteNo="0" devices="tripinfo_flow_route_140_duration_20250327_1930.24" vType="car" speedFactor="0.94" vaporized=""/>
    <tripinfo id="flow_route_142_duration_20250327_1930.24" depart="43.00" departLane="1253222187#0_0" departPos="193.75" departSpeed="0.00" departDelay="13.00" arrival="125.00" arrivalLane="683079388#0_0" arrivalPos="5.04" arrivalSpeed="16.43" duration="82.00" routeLength="609.60" waitingTime="31.00" waitingCount="1" stopTime="0.00" timeLoss="44.55" rerouteNo="0" devices="tripinfo_flow_route_142_duration_20250327_1930.24" vType="car" speedFactor="1.04" vaporized=""/>