<?xml version="1.0" encoding="UTF-8"?>

<!-- generated on 2025-05-06 21:08:02 by Eclipse SUMO sumo Version 1.20.0
<configuration xmlns:xsi="http://www.w3.org/2001/XMLSchema-instance" xsi:noNamespaceSchemaLocation="http://sumo.dlr.de/xsd/sumoConfiguration.xsd">

    <input>
        <net-file value="osm.net.xml"/>
        <route-files value="xml/route_rl_632031937_2.rou.xml"/>
    </input>

    <output>
        <tripinfo-output value="xml/tripinfo_rl_632031937_2.xml"/>
    </output>

    <traci_server>
        <remote-port value="36867"/>
    </traci_server>

</configuration>
-->

<tripinfos xmlns:xsi="http://www.w3.org/2001/XMLSchema-instance" xsi:noNamespaceSchemaLocation="http://sumo.dlr.de/xsd/tripinfo_file.xsd">
    <tripinfo id="flow_route_66_duration_20250327_1920.0" depart="0.00" departLane="-138002002#2_0" departPos="85.87" departSpeed="0.00" departDelay="0.00" arrival="20.00" arrivalLane="-138002006#3_1" arrivalPos="3.87" arrivalSpeed="13.19" duration="20.00" routeLength="121.39" waitingTime="0.00" waitingCount="0" stopTime="0.00" timeLoss="10.55" rerouteNo="0" devices="tripinfo_flow_route_66_duration_20250327_1920.0" vType="car" speedFactor="0.83" vaporized=""/>
    <tripinfo id="flow_route_53_duration_20250327_1920.0" depart="0.00" departLane="138002006#0_0" departPos="48.40" departSpeed="0.00" departDelay="0.00" arrival="23.00" arrivalLane="1369578052#0_1" arrivalPos="131.33" arrivalSpeed="15.27" duration="23.00" routeLength="190.85" waitingTime="0.00" waitingCount="0" stopTime="0.00" timeLoss="9.99" rerouteNo="0" devices="tripinfo_flow_route_53_duration_20250327_1920.0" vType="car" speedFactor="0.94" vaporized=""/>
    <tripinfo id="flow_route_53_duration_20250327_1920.1" depart="2.00" departLane="138002006#0_0" departPos="5.35" departSpeed="0.00" departDelay="0.50" arrival="23.00" arrivalLane="1369578052#0_0" arrivalPos="48.76" arrivalSpeed="14.65" duration="21.00" routeLength="151.33" waitingTime="0.00" waitingCount="0" stopTime="0.00" timeLoss="10.27" rerouteNo="0" devices="tripinfo_flow_route_53_duration_20250327_1920.1" vType="car" speedFactor="0.89" vaporized=""/>
    <tripinfo id="flow_route_66_duration_20250327_1920.1" depart="6.00" departLane="-138002002#2_0" departPos="140.83" departSpeed="0.00" departDelay="0.00" arrival="23.00" arrivalLane="-138002006#3_0" arrivalPos="48.32" arrivalSpeed="12.83" duration="17.00" routeLength="110.89" waitingTime="0.00" waitingCount="0" stopTime="0.00" timeLoss="10.08" rerouteNo="0" devices="tripinfo_flow_route_66_duration_20250327_1920.1" vType="car" speedFactor="0.99" vaporized=""/>
    <tripinfo id="flow_route_53_duration_20250327_1920.3" depart="5.00" departLane="138002006#0_0" departPos="83.36" departSpeed="0.00" departDelay="0.50" arrival="24.00" arrivalLane="1369578052#0_0" arrivalPos="116.77" arrivalSpeed="14.57" duration="19.00" routeLength="141.33" waitingTime="0.00" waitingCount="0" stopTime="0.00" timeLoss="10.20" rerouteNo="0" devices="tripinfo_flow_route_53_duration_20250327_1920.3" vType="car" speedFactor="1.09" vaporized=""/>
    <tripinfo id="flow_route_53_duration_20250327_1920.2" depart="4.00" departLane="138002006#0_0" departPos="45.54" departSpeed="0.00" departDelay="1.00" arrival="29.00" arrivalLane="1369578052#0_0" arrivalPos="161.40" arrivalSpeed="15.57" duration="25.00" routeLength="223.78" waitingTime="0.00" waitingCount="0" stopTime="0.00" timeLoss="9.90" rerouteNo="0" devices="tripinfo_flow_route_53_duration_20250327_1920.2" vType="car" speedFactor="0.94" vaporized=""/>
    <tripinfo id="flow_route_66_duration_20250327_1920.3" depart="18.00" departLane="-138002002#2_0" departPos="125.02" departSpeed="0.00" departDelay="0.00" arrival="33.00" arrivalLane="-138002006#3_0" arrivalPos="4.16" arrivalSpeed="11.16" duration="15.00" routeLength="82.53" waitingTime="0.00" waitingCount="0" stopTime="0.00" timeLoss="9.61" rerouteNo="0" devices="tripinfo_flow_route_66_duration_20250327_1920.3" vType="car" speedFactor="1.17" vaporized=""/>
    <tripinfo id="flow_route_67_duration_20250327_1920.0" depart="1.00" departLane="-138002002#2_0" departPos="104.31" departSpeed="0.00" departDelay="1.00" arrival="34.00" arrivalLane="380351865#0_0" arrivalPos="12.69" arrivalSpeed="11.37" duration="33.00" routeLength="241.42" waitingTime="0.00" waitingCount="0" stopTime="0.00" timeLoss="13.27" rerouteNo="0" devices="tripinfo_flow_route_67_duration_20250327_1920.0" vType="car" speedFactor="1.05" vaporized=""/>
    <tripinfo id="flow_route_66_duration_20250327_1920.2" depart="12.00" departLane="-138002002#2_0" departPos="90.74" departSpeed="0.00" departDelay="0.00" arrival="36.00" arrivalLane="-138002006#3_1" arrivalPos="83.01" arrivalSpeed="13.39" duration="24.00" routeLength="195.67" waitingTime="0.00" waitingCount="0" stopTime="0.00" timeLoss="9.30" rerouteNo="0" devices="tripinfo_flow_route_66_duration_20250327_1920.2" vType="car" speedFactor="0.83" vaporized=""/>
    <tripinfo id="flow_route_52_duration_20250327_1920.0" depart="0.00" departLane="138002006#0_0" departPos="21.97" departSpeed="0.00" departDelay="0.00" arrival="42.00" arrivalLane="380351865#0_1" arrivalPos="15.21" arrivalSpeed="11.62" duration="42.00" routeLength="234.80" waitingTime="6.00" waitingCount="1" stopTime="0.00" timeLoss="22.60" rerouteNo="0" devices="tripinfo_flow_route_52_duration_20250327_1920.0" vType="car" speedFactor="1.06" vaporized=""/>
    <tripinfo id="flow_route_67_duration_20250327_1920.2" depart="19.00" departLane="-138002002#2_0" departPos="152.07" departSpeed="0.00" departDelay="1.86" arrival="43.00" arrivalLane="380351865#0_0" arrivalPos="1.37" arrivalSpeed="11.05" duration="24.00" routeLength="182.34" waitingTime="0.00" waitingCount="0" stopTime="0.00" timeLoss="7.48" rerouteNo="0" devices="tripinfo_flow_route_67_duration_20250327_1920.2" vType="car" speedFactor="0.99" vaporized=""/>
    <tripinfo id="flow_route_67_duration_20250327_1920.1" depart="9.00" departLane="-138002002#2_0" departPos="41.10" departSpeed="0.00" departDelay="0.43" arrival="46.00" arrivalLane="380351865#0_0" arrivalPos="7.02" arrivalSpeed="12.81" duration="37.00" routeLength="298.97" waitingTime="0.00" waitingCount="0" stopTime="0.00" timeLoss="15.65" rerouteNo="0" devices="tripinfo_flow_route_67_duration_20250327_1920.1" vType="car" speedFactor="1.16" vaporized=""/>
    <tripinfo id="flow_route_53_duration_20250327_1920.6" depart="16.00" departLane="138002006#0_0" departPos="15.89" departSpeed="0.00" departDelay="7.00" arrival="51.00" arrivalLane="1369578052#0_1" arrivalPos="23.85" arrivalSpeed="8.83" duration="35.00" routeLength="115.88" waitingTime="8.00" waitingCount="1" stopTime="0.00" timeLoss="27.25" rerouteNo="0" devices="tripinfo_flow_route_53_duration_20250327_1920.6" vType="car" speedFactor="0.94" vaporized=""/>
    <tripinfo id="flow_route_52_duration_20250327_1920.1" depart="10.00" departLane="138002006#0_0" departPos="50.74" departSpeed="0.00" departDelay="2.50" arrival="54.00" arrivalLane="380351865#0_1" arrivalPos="0.51" arrivalSpeed="9.92" duration="44.00" routeLength="191.33" waitingTime="7.00" waitingCount="1" stopTime="0.00" timeLoss="25.73" rerouteNo="0" devices="tripinfo_flow_route_52_duration_20250327_1920.1" vType="car" speedFactor="0.93" vaporized=""/>
    <tripinfo id="flow_route_53_duration_20250327_1920.7" depart="18.00" departLane="138002006#0_0" departPos="64.08" departSpeed="0.00" departDelay="7.50" arrival="57.00" arrivalLane="1369578052#0_0" arrivalPos="149.62" arrivalSpeed="15.61" duration="39.00" routeLength="193.46" waitingTime="9.00" waitingCount="1" stopTime="0.00" timeLoss="27.23" rerouteNo="0" devices="tripinfo_flow_route_53_duration_20250327_1920.7" vType="car" speedFactor="1.02" vaporized=""/>
    <tripinfo id="flow_route_53_duration_20250327_1920.11" depart="29.00" departLane="138002006#0_0" departPos="52.29" departSpeed="0.00" departDelay="12.50" arrival="57.00" arrivalLane="1369578052#0_0" arrivalPos="57.85" arrivalSpeed="12.66" duration="28.00" routeLength="113.48" waitingTime="5.00" waitingCount="1" stopTime="0.00" timeLoss="20.22" rerouteNo="0" devices="tripinfo_flow_route_53_duration_20250327_1920.11" vType="car" speedFactor="0.93" vaporized=""/>
    <tripinfo id="flow_route_53_duration_20250327_1920.12" depart="29.00" departLane="138002006#0_0" departPos="24.61" departSpeed="0.00" departDelay="11.00" arrival="57.00" arrivalLane="1369578052#0_0" arrivalPos="38.19" arrivalSpeed="11.86" duration="28.00" routeLength="121.49" waitingTime="1.00" waitingCount="1" stopTime="0.00" timeLoss="20.50" rerouteNo="0" devices="tripinfo_flow_route_53_duration_20250327_1920.12" vType="car" speedFactor="1.15" vaporized=""/>
    <tripinfo id="flow_route_52_duration_20250327_1920.2" depart="20.00" departLane="138002006#0_0" departPos="86.71" departSpeed="0.00" departDelay="5.00" arrival="58.00" arrivalLane="380351865#0_1" arrivalPos="4.76" arrivalSpeed="10.32" duration="38.00" routeLength="159.61" waitingTime="13.00" waitingCount="2" stopTime="0.00" timeLoss="21.74" rerouteNo="0" devices="tripinfo_flow_route_52_duration_20250327_1920.2" vType="car" speedFactor="0.95" vaporized=""/>
    <tripinfo id="flow_route_53_duration_20250327_1920.4" depart="10.00" departLane="138002006#0_0" departPos="14.91" departSpeed="0.00" departDelay="4.00" arrival="59.00" arrivalLane="1369578052#0_1" arrivalPos="151.94" arrivalSpeed="15.54" duration="49.00" routeLength="244.96" waitingTime="11.00" waitingCount="1" stopTime="0.00" timeLoss="34.11" rerouteNo="0" devices="tripinfo_flow_route_53_duration_20250327_1920.4" vType="car" speedFactor="1.03" vaporized=""/>
    <tripinfo id="flow_route_53_duration_20250327_1920.8" depart="18.00" departLane="138002006#0_0" departPos="31.23" departSpeed="0.00" departDelay="6.00" arrival="59.00" arrivalLane="1369578052#0_0" arrivalPos="109.90" arrivalSpeed="13.87" duration="41.00" routeLength="186.59" waitingTime="8.00" waitingCount="1" stopTime="0.00" timeLoss="29.15" rerouteNo="0" devices="tripinfo_flow_route_53_duration_20250327_1920.8" vType="car" speedFactor="0.97" vaporized=""/>
    <tripinfo id="flow_route_53_duration_20250327_1920.5" depart="16.00" departLane="138002006#0_0" departPos="5.95" departSpeed="0.00" departDelay="8.50" arrival="61.00" arrivalLane="1369578052#0_1" arrivalPos="126.28" arrivalSpeed="14.29" duration="45.00" routeLength="228.25" waitingTime="7.00" waitingCount="1" stopTime="0.00" timeLoss="28.69" rerouteNo="0" devices="tripinfo_flow_route_53_duration_20250327_1920.5" vType="car" speedFactor="0.88" vaporized=""/>
    <tripinfo id="flow_route_53_duration_20250327_1920.10" depart="20.00" departLane="138002006#0_0" departPos="2.12" departSpeed="0.00" departDelay="5.00" arrival="61.00" arrivalLane="1369578052#0_1" arrivalPos="100.79" arrivalSpeed="14.81" duration="41.00" routeLength="206.59" waitingTime="5.00" waitingCount="1" stopTime="0.00" timeLoss="28.27" rerouteNo="0" devices="tripinfo_flow_route_53_duration_20250327_1920.10" vType="car" speedFactor="1.13" vaporized=""/>
    <tripinfo id="flow_route_53_duration_20250327_1920.9" depart="19.00" departLane="138002006#0_0" departPos="54.60" departSpeed="0.00" departDelay="5.50" arrival="62.00" arrivalLane="1369578052#0_0" arrivalPos="176.02" arrivalSpeed="14.44" duration="43.00" routeLength="229.33" waitingTime="8.00" waitingCount="1" stopTime="0.00" timeLoss="26.73" rerouteNo="0" devices="tripinfo_flow_route_53_duration_20250327_1920.9" vType="car" speedFactor="0.87" vaporized=""/>
    <tripinfo id="flow_route_53_duration_20250327_1920.14" depart="37.00" departLane="138002006#0_0" departPos="41.09" departSpeed="0.00" departDelay="16.00" arrival="67.00" arrivalLane="1369578052#0_1" arrivalPos="161.39" arrivalSpeed="16.46" duration="30.00" routeLength="228.22" waitingTime="0.00" waitingCount="0" stopTime="0.00" timeLoss="15.61" rerouteNo="0" devices="tripinfo_flow_route_53_duration_20250327_1920.14" vType="car" speedFactor="1.10" vaporized=""/>
    <tripinfo id="flow_route_53_duration_20250327_1920.16" depart="44.00" departLane="138002006#0_0" departPos="0.65" departSpeed="0.00" departDelay="20.00" arrival="67.00" arrivalLane="1369578052#0_1" arrivalPos="63.20" arrivalSpeed="15.89" duration="23.00" routeLength="170.47" waitingTime="0.00" waitingCount="0" stopTime="0.00" timeLoss="12.38" rerouteNo="0" devices="tripinfo_flow_route_53_duration_20250327_1920.16" vType="car" speedFactor="1.09" vaporized=""/>
    <tripinfo id="flow_route_53_duration_20250327_1920.13" depart="31.00" departLane="138002006#0_0" departPos="1.30" departSpeed="0.00" departDelay="11.50" arrival="68.00" arrivalLane="1369578052#0_1" arrivalPos="107.84" arrivalSpeed="16.13" duration="37.00" routeLength="214.46" waitingTime="4.00" waitingCount="2" stopTime="0.00" timeLoss="23.78" rerouteNo="0" devices="tripinfo_flow_route_53_duration_20250327_1920.13" vType="car" speedFactor="1.02" vaporized=""/>
    <tripinfo id="flow_route_53_duration_20250327_1920.23" depart="57.00" departLane="138002006#0_0" departPos="79.33" departSpeed="0.00" departDelay="22.50" arrival="68.00" arrivalLane="1369578052#0_0" arrivalPos="2.15" arrivalSpeed="6.62" duration="11.00" routeLength="30.75" waitingTime="0.00" waitingCount="0" stopTime="0.00" timeLoss="8.73" rerouteNo="0" devices="tripinfo_flow_route_53_duration_20250327_1920.23" vType="car" speedFactor="0.97" vaporized=""/>
    <tripinfo id="flow_route_53_duration_20250327_1920.15" depart="41.00" departLane="138002006#0_0" departPos="17.34" departSpeed="0.00" departDelay="18.50" arrival="69.00" arrivalLane="1369578052#0_0" arrivalPos="179.07" arrivalSpeed="15.78" duration="28.00" routeLength="269.65" waitingTime="0.00" waitingCount="0" stopTime="0.00" timeLoss="10.49" rerouteNo="0" devices="tripinfo_flow_route_53_duration_20250327_1920.15" vType="car" speedFactor="0.96" vaporized=""/>
    <tripinfo id="flow_route_52_duration_20250327_1920.3" depart="38.00" departLane="138002006#0_0" departPos="39.64" departSpeed="0.00" departDelay="15.50" arrival="72.00" arrivalLane="380351865#0_1" arrivalPos="9.79" arrivalSpeed="11.44" duration="34.00" routeLength="211.71" waitingTime="2.00" waitingCount="2" stopTime="0.00" timeLoss="15.77" rerouteNo="0" devices="tripinfo_flow_route_52_duration_20250327_1920.3" vType="car" speedFactor="1.03" vaporized=""/>
    <tripinfo id="flow_route_53_duration_20250327_1920.22" depart="57.00" departLane="138002006#0_0" departPos="88.29" departSpeed="0.00" departDelay="24.00" arrival="73.00" arrivalLane="1369578052#0_0" arrivalPos="63.75" arrivalSpeed="11.20" duration="16.00" routeLength="83.38" waitingTime="0.00" waitingCount="0" stopTime="0.00" timeLoss="10.39" rerouteNo="0" devices="tripinfo_flow_route_53_duration_20250327_1920.22" vType="car" speedFactor="1.14" vaporized=""/>
    <tripinfo id="flow_route_53_duration_20250327_1920.19" depart="52.00" departLane="138002006#0_0" departPos="51.09" departSpeed="0.00" departDelay="23.50" arrival="76.00" arrivalLane="1369578052#0_1" arrivalPos="79.42" arrivalSpeed="13.32" duration="24.00" routeLength="136.25" waitingTime="0.00" waitingCount="0" stopTime="0.00" timeLoss="13.91" rerouteNo="0" devices="tripinfo_flow_route_53_duration_20250327_1920.19" vType="car" speedFactor="0.85" vaporized=""/>
    <tripinfo id="flow_route_53_duration_20250327_1920.20" depart="55.00" departLane="138002006#0_0" departPos="34.17" departSpeed="0.00" departDelay="25.00" arrival="81.00" arrivalLane="1369578052#0_0" arrivalPos="105.68" arrivalSpeed="13.89" duration="26.00" routeLength="179.43" waitingTime="0.00" waitingCount="0" stopTime="0.00" timeLoss="15.05" rerouteNo="0" devices="tripinfo_flow_route_53_duration_20250327_1920.20" vType="car" speedFactor="1.02" vaporized=""/>
    <tripinfo id="flow_route_53_duration_20250327_1920.17" depart="46.00" departLane="138002006#0_0" departPos="16.92" departSpeed="0.00" departDelay="20.50" arrival="83.00" arrivalLane="1369578052#0_0" arrivalPos="162.58" arrivalSpeed="16.20" duration="37.00" routeLength="253.58" waitingTime="0.00" waitingCount="0" stopTime="0.00" timeLoss="21.63" rerouteNo="0" devices="tripinfo_flow_route_53_duration_20250327_1920.17" vType="car" speedFactor="1.00" vaporized=""/>
    <tripinfo id="flow_route_52_duration_20250327_1920.4" depart="52.00" departLane="138002006#0_0" departPos="4.35" departSpeed="0.00" departDelay="22.00" arrival="84.00" arrivalLane="380351865#0_1" arrivalPos="10.12" arrivalSpeed="12.82" duration="32.00" routeLength="247.33" waitingTime="0.00" waitingCount="0" stopTime="0.00" timeLoss="13.39" rerouteNo="0" devices="tripinfo_flow_route_52_duration_20250327_1920.4" vType="car" speedFactor="1.17" vaporized=""/>
    <tripinfo id="flow_route_58_duration_20250327_1920.0" depart="0.00" departLane="186407685_0" departPos="1.07" departSpeed="0.00" departDelay="0.00" arrival="85.00" arrivalLane="-138002006#3_1" arrivalPos="43.63" arrivalSpeed="10.16" duration="85.00" routeLength="235.82" waitingTime="49.00" waitingCount="1" stopTime="0.00" timeLoss="69.57" rerouteNo="0" devices="tripinfo_flow_route_58_duration_20250327_1920.0" vType="car" speedFactor="1.08" vaporized=""/>
    <tripinfo id="flow_route_59_duration_20250327_1920.4" depart="11.00" departLane="186407685_0" departPos="126.70" departSpeed="0.00" departDelay="0.09" arrival="85.00" arrivalLane="1369578052#0_0" arrivalPos="16.41" arrivalSpeed="7.85" duration="74.00" routeLength="75.82" waitingTime="53.00" waitingCount="1" stopTime="0.00" timeLoss="68.24" rerouteNo="0" devices="tripinfo_flow_route_59_duration_20250327_1920.4" vType="car" speedFactor="1.01" vaporized=""/>
    <tripinfo id="flow_route_53_duration_20250327_1920.18" depart="52.00" departLane="138002006#0_0" departPos="18.79" departSpeed="0.00" departDelay="25.00" arrival="85.00" arrivalLane="1369578052#0_1" arrivalPos="180.31" arrivalSpeed="14.23" duration="33.00" routeLength="269.44" waitingTime="0.00" waitingCount="0" stopTime="0.00" timeLoss="14.27" rerouteNo="0" devices="tripinfo_flow_route_53_duration_20250327_1920.18" vType="car" speedFactor="0.88" vaporized=""/>
    <tripinfo id="flow_route_58_duration_20250327_1920.1" depart="22.00" departLane="186407685_0" departPos="80.70" departSpeed="0.00" departDelay="2.00" arrival="86.00" arrivalLane="-138002006#3_1" arrivalPos="37.04" arrivalSpeed="9.62" duration="64.00" routeLength="149.59" waitingTime="33.00" waitingCount="1" stopTime="0.00" timeLoss="53.87" rerouteNo="0" devices="tripinfo_flow_route_58_duration_20250327_1920.1" vType="car" speedFactor="0.97" vaporized=""/>
    <tripinfo id="flow_route_59_duration_20250327_1920.2" depart="7.00" departLane="186407685_0" departPos="169.38" departSpeed="0.00" departDelay="1.55" arrival="87.00" arrivalLane="1369578052#0_0" arrivalPos="73.10" arrivalSpeed="11.48" duration="80.00" routeLength="89.83" waitingTime="61.00" waitingCount="1" stopTime="0.00" timeLoss="73.43" rerouteNo="0" devices="tripinfo_flow_route_59_duration_20250327_1920.2" vType="car" speedFactor="1.12" vaporized=""/>
    <tripinfo id="flow_route_58_duration_20250327_1920.2" depart="52.00" departLane="186407685_0" departPos="5.58" departSpeed="0.00" departDelay="12.00" arrival="89.00" arrivalLane="-138002006#3_1" arrivalPos="11.50" arrivalSpeed="9.21" duration="37.00" routeLength="199.18" waitingTime="3.00" waitingCount="1" stopTime="0.00" timeLoss="24.26" rerouteNo="0" devices="tripinfo_flow_route_58_duration_20250327_1920.2" vType="car" speedFactor="1.02" vaporized=""/>
    <tripinfo id="flow_route_59_duration_20250327_1920.0" depart="0.00" departLane="186407685_0" departPos="119.17" departSpeed="0.00" departDelay="0.00" arrival="92.00" arrivalLane="1369578052#0_0" arrivalPos="108.75" arrivalSpeed="13.28" duration="92.00" routeLength="175.69" waitingTime="60.00" waitingCount="1" stopTime="0.00" timeLoss="80.09" rerouteNo="0" devices="tripinfo_flow_route_59_duration_20250327_1920.0" vType="car" speedFactor="1.03" vaporized=""/>
    <tripinfo id="flow_route_59_duration_20250327_1920.1" depart="4.00" departLane="186407685_0" departPos="54.37" departSpeed="0.00" departDelay="1.27" arrival="93.00" arrivalLane="1369578052#0_0" arrivalPos="59.35" arrivalSpeed="10.76" duration="89.00" routeLength="191.09" waitingTime="52.00" waitingCount="1" stopTime="0.00" timeLoss="75.46" rerouteNo="0" devices="tripinfo_flow_route_59_duration_20250327_1920.1" vType="car" speedFactor="0.86" vaporized=""/>
    <tripinfo id="flow_route_57_duration_20250327_1920.0" depart="0.00" departLane="186407685_0" departPos="131.94" departSpeed="0.00" departDelay="0.00" arrival="94.00" arrivalLane="380351865#0_0" arrivalPos="0.78" arrivalSpeed="11.00" duration="94.00" routeLength="205.45" waitingTime="61.00" waitingCount="1" stopTime="0.00" timeLoss="76.87" rerouteNo="0" devices="tripinfo_flow_route_57_duration_20250327_1920.0" vType="car" speedFactor="1.01" vaporized=""/>
    <tripinfo id="flow_route_59_duration_20250327_1920.3" depart="9.00" departLane="186407685_0" departPos="46.76" departSpeed="0.00" departDelay="0.82" arrival="94.00" arrivalLane="1369578052#0_0" arrivalPos="23.11" arrivalSpeed="7.35" duration="85.00" routeLength="162.46" waitingTime="41.00" waitingCount="1" stopTime="0.00" timeLoss="73.83" rerouteNo="0" devices="tripinfo_flow_route_59_duration_20250327_1920.3" vType="car" speedFactor="0.94" vaporized=""/>
    <tripinfo id="flow_route_59_duration_20250327_1920.6" depart="17.00" departLane="186407685_0" departPos="100.42" departSpeed="0.00" departDelay="0.64" arrival="95.00" arrivalLane="1369578052#0_0" arrivalPos="62.49" arrivalSpeed="11.48" duration="78.00" routeLength="148.18" waitingTime="43.00" waitingCount="1" stopTime="0.00" timeLoss="68.47" rerouteNo="0" devices="tripinfo_flow_route_59_duration_20250327_1920.6" vType="car" speedFactor="1.18" vaporized=""/>
    <tripinfo id="flow_route_57_duration_20250327_1920.1" depart="6.00" departLane="186407685_0" departPos="5.74" departSpeed="0.00" departDelay="0.00" arrival="97.00" arrivalLane="380351865#0_1" arrivalPos="15.15" arrivalSpeed="11.38" duration="91.00" routeLength="346.02" waitingTime="46.00" waitingCount="1" stopTime="0.00" timeLoss="65.84" rerouteNo="0" devices="tripinfo_flow_route_57_duration_20250327_1920.1" vType="car" speedFactor="1.05" vaporized=""/>
    <tripinfo id="flow_route_59_duration_20250327_1920.5" depart="14.00" departLane="186407685_0" departPos="4.93" departSpeed="0.00" departDelay="0.37" arrival="98.00" arrivalLane="1369578052#0_0" arrivalPos="33.80" arrivalSpeed="9.28" duration="84.00" routeLength="214.98" waitingTime="41.00" waitingCount="1" stopTime="0.00" timeLoss="69.89" rerouteNo="0" devices="tripinfo_flow_route_59_duration_20250327_1920.5" vType="car" speedFactor="0.92" vaporized=""/>
    <tripinfo id="flow_route_57_duration_20250327_1920.3" depart="22.00" departLane="186407685_0" departPos="125.85" departSpeed="0.00" departDelay="4.00" arrival="98.00" arrivalLane="380351865#0_0" arrivalPos="3.08" arrivalSpeed="10.83" duration="76.00" routeLength="213.84" waitingTime="41.00" waitingCount="1" stopTime="0.00" timeLoss="58.82" rerouteNo="0" devices="tripinfo_flow_route_57_duration_20250327_1920.3" vType="car" speedFactor="1.01" vaporized=""/>
    <tripinfo id="flow_route_57_duration_20250327_1920.2" depart="14.00" departLane="186407685_0" departPos="26.88" departSpeed="0.00" departDelay="2.00" arrival="101.00" arrivalLane="380351865#0_1" arrivalPos="11.81" arrivalSpeed="9.47" duration="87.00" routeLength="321.53" waitingTime="34.00" waitingCount="2" stopTime="0.00" timeLoss="60.23" rerouteNo="0" devices="tripinfo_flow_route_57_duration_20250327_1920.2" vType="car" speedFactor="0.89" vaporized=""/>
    <tripinfo id="flow_route_57_duration_20250327_1920.4" depart="34.00" departLane="186407685_0" departPos="116.62" departSpeed="0.00" departDelay="10.00" arrival="101.00" arrivalLane="380351865#0_0" arrivalPos="11.94" arrivalSpeed="11.49" duration="67.00" routeLength="231.93" waitingTime="30.00" waitingCount="1" stopTime="0.00" timeLoss="48.36" rerouteNo="0" devices="tripinfo_flow_route_57_duration_20250327_1920.4" vType="car" speedFactor="1.04" vaporized=""/>
    <tripinfo id="flow_route_57_duration_20250327_1920.5" depart="41.00" departLane="186407685_0" departPos="56.81" departSpeed="0.00" departDelay="11.00" arrival="101.00" arrivalLane="380351865#0_1" arrivalPos="1.76" arrivalSpeed="10.08" duration="60.00" routeLength="281.56" waitingTime="12.00" waitingCount="2" stopTime="0.00" timeLoss="39.86" rerouteNo="0" devices="tripinfo_flow_route_57_duration_20250327_1920.5" vType="car" speedFactor="1.10" vaporized=""/>
    <tripinfo id="flow_route_59_duration_20250327_1920.7" depart="25.00" departLane="186407685_0" departPos="22.01" departSpeed="0.00" departDelay="5.91" arrival="103.00" arrivalLane="1369578052#0_0" arrivalPos="67.31" arrivalSpeed="11.61" duration="78.00" routeLength="231.41" waitingTime="36.00" waitingCount="1" stopTime="0.00" timeLoss="62.99" rerouteNo="0" devices="tripinfo_flow_route_59_duration_20250327_1920.7" vType="car" speedFactor="1.18" vaporized=""/>
    <tripinfo id="flow_route_57_duration_20250327_1920.6" depart="43.00" departLane="186407685_0" departPos="14.98" departSpeed="0.00" departDelay="7.00" arrival="103.00" arrivalLane="380351865#0_0" arrivalPos="13.99" arrivalSpeed="10.82" duration="60.00" routeLength="335.62" waitingTime="7.00" waitingCount="1" stopTime="0.00" timeLoss="35.02" rerouteNo="0" devices="tripinfo_flow_route_57_duration_20250327_1920.6" vType="car" speedFactor="1.02" vaporized=""/>
    <tripinfo id="flow_route_59_duration_20250327_1920.8" depart="26.00" departLane="186407685_0" departPos="7.54" departSpeed="0.00" departDelay="4.18" arrival="108.00" arrivalLane="1369578052#0_0" arrivalPos="90.82" arrivalSpeed="13.70" duration="82.00" routeLength="269.38" waitingTime="37.00" waitingCount="1" stopTime="0.00" timeLoss="63.88" rerouteNo="0" devices="tripinfo_flow_route_59_duration_20250327_1920.8" vType="car" speedFactor="0.90" vaporized=""/>
    <tripinfo id="flow_route_59_duration_20250327_1920.13" depart="43.00" departLane="186407685_0" departPos="100.86" departSpeed="0.00" departDelay="7.55" arrival="109.00" arrivalLane="1369578052#0_0" arrivalPos="72.53" arrivalSpeed="11.35" duration="66.00" routeLength="157.78" waitingTime="34.00" waitingCount="1" stopTime="0.00" timeLoss="54.92" rerouteNo="0" devices="tripinfo_flow_route_59_duration_20250327_1920.13" vType="car" speedFactor="0.99" vaporized=""/>
    <tripinfo id="flow_route_57_duration_20250327_1920.7" depart="73.00" departLane="186407685_0" departPos="1.39" departSpeed="0.00" departDelay="31.00" arrival="109.00" arrivalLane="380351865#0_1" arrivalPos="3.25" arrivalSpeed="11.41" duration="36.00" routeLength="338.48" waitingTime="0.00" waitingCount="0" stopTime="0.00" timeLoss="11.28" rerouteNo="0" devices="tripinfo_flow_route_57_duration_20250327_1920.7" vType="car" speedFactor="1.06" vaporized=""/>
    <tripinfo id="flow_route_59_duration_20250327_1920.9" depart="39.00" departLane="186407685_0" departPos="27.91" departSpeed="0.00" departDelay="14.46" arrival="113.00" arrivalLane="1369578052#0_0" arrivalPos="51.83" arrivalSpeed="10.93" duration="74.00" routeLength="210.04" waitingTime="30.00" waitingCount="1" stopTime="0.00" timeLoss="60.68" rerouteNo="0" devices="tripinfo_flow_route_59_duration_20250327_1920.9" vType="car" speedFactor="1.09" vaporized=""/>
    <tripinfo id="flow_route_59_duration_20250327_1920.12" depart="43.00" departLane="186407685_0" departPos="71.42" departSpeed="0.00" departDelay="10.28" arrival="116.00" arrivalLane="1369578052#0_0" arrivalPos="147.09" arrivalSpeed="15.36" duration="73.00" routeLength="261.78" waitingTime="30.00" waitingCount="1" stopTime="0.00" timeLoss="55.93" rerouteNo="0" devices="tripinfo_flow_route_59_duration_20250327_1920.12" vType="car" speedFactor="1.02" vaporized=""/>
    <tripinfo id="flow_route_59_duration_20250327_1920.11" depart="41.00" departLane="186407685_0" departPos="44.36" departSpeed="0.00" departDelay="11.00" arrival="119.00" arrivalLane="1369578052#0_0" arrivalPos="157.89" arrivalSpeed="16.45" duration="78.00" routeLength="299.64" waitingTime="30.00" waitingCount="1" stopTime="0.00" timeLoss="58.70" rerouteNo="0" devices="tripinfo_flow_route_59_duration_20250327_1920.11" vType="car" speedFactor="1.00" vaporized=""/>
    <tripinfo id="flow_route_57_duration_20250327_1920.8" depart="82.00" departLane="186407685_0" departPos="19.92" departSpeed="0.00" departDelay="34.00" arrival="119.00" arrivalLane="380351865#0_1" arrivalPos="9.32" arrivalSpeed="10.55" duration="37.00" routeLength="326.01" waitingTime="0.00" waitingCount="0" stopTime="0.00" timeLoss="11.94" rerouteNo="0" devices="tripinfo_flow_route_57_duration_20250327_1920.8" vType="car" speedFactor="0.97" vaporized=""/>
    <tripinfo id="flow_route_66_duration_20250327_1920.4" depart="25.00" departLane="-138002002#2_0" departPos="26.00" departSpeed="0.00" departDelay="1.00" arrival="120.00" arrivalLane="-138002006#3_1" arrivalPos="9.01" arrivalSpeed="7.69" duration="95.00" routeLength="186.40" waitingTime="62.00" waitingCount="1" stopTime="0.00" timeLoss="83.69" rerouteNo="0" devices="tripinfo_flow_route_66_duration_20250327_1920.4" vType="car" speedFactor="1.04" vaporized=""/>
    <tripinfo id="flow_route_66_duration_20250327_1920.7" depart="43.00" departLane="-138002002#2_0" departPos="136.51" departSpeed="0.00" departDelay="1.00" arrival="124.00" arrivalLane="-138002006#3_0" arrivalPos="21.17" arrivalSpeed="9.71" duration="81.00" routeLength="88.04" waitingTime="57.00" waitingCount="1" stopTime="0.00" timeLoss="75.17" rerouteNo="0" devices="tripinfo_flow_route_66_duration_20250327_1920.7" vType="car" speedFactor="0.96" vaporized=""/>