<?xml version="1.0" encoding="UTF-8"?>

<!-- generated on 2025-05-06 21:08:12 by Eclipse SUMO sumo Version 1.20.0
<configuration xmlns:xsi="http://www.w3.org/2001/XMLSchema-instance" xsi:noNamespaceSchemaLocation="http://sumo.dlr.de/xsd/sumoConfiguration.xsd">

    <input>
        <net-file value="osm.net.xml"/>
        <route-files value="xml/route_rl_cluster_2271368471_4779869278_3.rou.xml"/>
    </input>

    <output>
        <tripinfo-output value="xml/tripinfo_rl_cluster_2271368471_4779869278_3.xml"/>
    </output>

    <traci_server>
        <remote-port value="46663"/>
    </traci_server>

</configuration>
-->

<tripinfos xmlns:xsi="http://www.w3.org/2001/XMLSchema-instance" xsi:noNamespaceSchemaLocation="http://sumo.dlr.de/xsd/tripinfo_file.xsd">
    <tripinfo id="flow_route_36_duration_20250327_2140.0" depart="0.00" departLane="485211947#0_0" departPos="162.24" departSpeed="0.00" departDelay="0.00" arrival="23.00" arrivalLane="137415945#0_0" arrivalPos="6.94" arrivalSpeed="15.19" duration="23.00" routeLength="189.23" waitingTime="0.00" waitingCount="0" stopTime="0.00" timeLoss="10.24" rerouteNo="0" devices="tripinfo_flow_route_36_duration_20250327_2140.0" vType="car" speedFactor="0.94" vaporized=""/>
    <tripinfo id="flow_route_35_duration_20250327_2140.1" depart="9.00" departLane="485211947#0_0" departPos="141.65" departSpeed="0.00" departDelay="1.50" arrival="31.00" arrivalLane="1369578054_0" arrivalPos="118.83" arrivalSpeed="16.16" duration="22.00" routeLength="174.64" waitingTime="0.00" waitingCount="0" stopTime="0.00" timeLoss="10.62" rerouteNo="0" devices="tripinfo_flow_route_35_duration_20250327_2140.1" vType="car" speedFactor="1.09" vaporized=""/>
    <tripinfo id="flow_route_37_duration_20250327_2140.0" depart="0.00" departLane="485211947#0_0" departPos="59.66" departSpeed="0.00" departDelay="0.00" arrival="33.00" arrivalLane="-430406005#1_1" arrivalPos="133.07" arrivalSpeed="16.05" duration="33.00" routeLength="286.39" waitingTime="0.00" waitingCount="0" stopTime="0.00" timeLoss="12.84" rerouteNo="0" devices="tripinfo_flow_route_37_duration_20250327_2140.0" vType="car" speedFactor="0.86" vaporized=""/>
    <tripinfo id="flow_route_35_duration_20250327_2140.2" depart="17.00" departLane="485211947#0_0" departPos="150.40" departSpeed="0.00" departDelay="2.00" arrival="36.00" arrivalLane="1369578054_0" arrivalPos="66.86" arrivalSpeed="12.35" duration="19.00" routeLength="113.92" waitingTime="0.00" waitingCount="0" stopTime="0.00" timeLoss="10.27" rerouteNo="0" devices="tripinfo_flow_route_35_duration_20250327_2140.2" vType="car" speedFactor="0.93" vaporized=""/>
    <tripinfo id="flow_route_35_duration_20250327_2140.0" depart="0.00" departLane="485211947#0_0" departPos="11.17" departSpeed="0.00" departDelay="0.00" arrival="39.00" arrivalLane="1369578054_0" arrivalPos="74.16" arrivalSpeed="12.21" duration="39.00" routeLength="260.46" waitingTime="0.00" waitingCount="0" stopTime="0.00" timeLoss="19.87" rerouteNo="0" devices="tripinfo_flow_route_35_duration_20250327_2140.0" vType="car" speedFactor="0.89" vaporized=""/>
    <tripinfo id="flow_route_36_duration_20250327_2140.1" depart="11.00" departLane="485211947#0_0" departPos="23.23" departSpeed="0.00" departDelay="1.00" arrival="42.00" arrivalLane="137415945#0_1" arrivalPos="0.38" arrivalSpeed="16.36" duration="31.00" routeLength="321.68" waitingTime="0.00" waitingCount="0" stopTime="0.00" timeLoss="11.15" rerouteNo="0" devices="tripinfo_flow_route_36_duration_20250327_2140.1" vType="car" speedFactor="1.12" vaporized=""/>
    <tripinfo id="flow_route_30_duration_20250327_2140.0" depart="0.00" departLane="1235147073.116_0" departPos="7.14" departSpeed="0.00" departDelay="0.00" arrival="47.00" arrivalLane="133126030#0_0" arrivalPos="8.43" arrivalSpeed="7.19" duration="47.00" routeLength="175.81" waitingTime="17.00" waitingCount="1" stopTime="0.00" timeLoss="36.25" rerouteNo="0" devices="tripinfo_flow_route_30_duration_20250327_2140.0" vType="car" speedFactor="1.01" vaporized=""/>
    <tripinfo id="flow_route_31_duration_20250327_2140.1" depart="12.00" departLane="1235147073.116_0" departPos="6.30" departSpeed="0.00" departDelay="3.43" arrival="50.00" arrivalLane="-430406005#1_0" arrivalPos="5.79" arrivalSpeed="7.31" duration="38.00" routeLength="162.45" waitingTime="7.00" waitingCount="1" stopTime="0.00" timeLoss="26.90" rerouteNo="0" devices="tripinfo_flow_route_31_duration_20250327_2140.1" vType="car" speedFactor="1.03" vaporized=""/>
    <tripinfo id="flow_route_31_duration_20250327_2140.2" depart="18.00" departLane="1235147073.116_0" departPos="10.23" departSpeed="0.00" departDelay="0.86" arrival="53.00" arrivalLane="-430406005#1_0" arrivalPos="15.90" arrivalSpeed="8.09" duration="35.00" routeLength="168.63" waitingTime="1.00" waitingCount="1" stopTime="0.00" timeLoss="22.76" rerouteNo="0" devices="tripinfo_flow_route_31_duration_20250327_2140.2" vType="car" speedFactor="0.88" vaporized=""/>
    <tripinfo id="flow_route_31_duration_20250327_2140.0" depart="2.00" departLane="1235147073.116_0" departPos="0.71" departSpeed="0.00" departDelay="2.00" arrival="56.00" arrivalLane="-430406005#1_0" arrivalPos="87.77" arrivalSpeed="13.71" duration="54.00" routeLength="250.02" waitingTime="15.00" waitingCount="1" stopTime="0.00" timeLoss="37.74" rerouteNo="0" devices="tripinfo_flow_route_31_duration_20250327_2140.0" vType="car" speedFactor="1.08" vaporized=""/>
    <tripinfo id="flow_route_30_duration_20250327_2140.1" depart="31.00" departLane="1235147073.116_0" departPos="5.19" departSpeed="0.00" departDelay="1.00" arrival="56.00" arrivalLane="133126030#0_1" arrivalPos="51.67" arrivalSpeed="14.36" duration="25.00" routeLength="221.00" waitingTime="0.00" waitingCount="0" stopTime="0.00" timeLoss="9.70" rerouteNo="0" devices="tripinfo_flow_route_30_duration_20250327_2140.1" vType="car" speedFactor="0.89" vaporized=""/>
    <tripinfo id="flow_route_32_duration_20250327_2140.0" depart="9.00" departLane="1235147073.116_0" departPos="4.62" departSpeed="0.00" departDelay="9.00" arrival="60.00" arrivalLane="1369578054_1" arrivalPos="176.77" arrivalSpeed="16.18" duration="51.00" routeLength="351.88" waitingTime="8.00" waitingCount="1" stopTime="0.00" timeLoss="28.73" rerouteNo="0" devices="tripinfo_flow_route_32_duration_20250327_2140.0" vType="car" speedFactor="1.03" vaporized=""/>
    <tripinfo id="flow_route_32_duration_20250327_2140.2" depart="22.00" departLane="1235147073.116_0" departPos="2.58" departSpeed="0.00" departDelay="2.00" arrival="64.00" arrivalLane="1369578054_1" arrivalPos="178.65" arrivalSpeed="15.30" duration="42.00" routeLength="355.81" waitingTime="0.00" waitingCount="0" stopTime="0.00" timeLoss="18.03" rerouteNo="0" devices="tripinfo_flow_route_32_duration_20250327_2140.2" vType="car" speedFactor="0.94" vaporized=""/>
    <tripinfo id="flow_route_31_duration_20250327_2140.3" depart="26.00" departLane="1235147073.116_0" departPos="2.32" departSpeed="0.00" departDelay="0.29" arrival="64.00" arrivalLane="-430406005#1_0" arrivalPos="114.59" arrivalSpeed="14.83" duration="38.00" routeLength="275.23" waitingTime="0.00" waitingCount="0" stopTime="0.00" timeLoss="20.14" rerouteNo="0" devices="tripinfo_flow_route_31_duration_20250327_2140.3" vType="car" speedFactor="1.01" vaporized=""/>
    <tripinfo id="flow_route_32_duration_20250327_2140.1" depart="12.00" departLane="1235147073.116_0" departPos="14.77" departSpeed="0.00" departDelay="2.00" arrival="69.00" arrivalLane="1369578054_1" arrivalPos="286.63" arrivalSpeed="16.16" duration="57.00" routeLength="451.60" waitingTime="6.00" waitingCount="1" stopTime="0.00" timeLoss="28.70" rerouteNo="0" devices="tripinfo_flow_route_32_duration_20250327_2140.1" vType="car" speedFactor="1.05" vaporized=""/>
    <tripinfo id="flow_route_31_duration_20250327_2140.4" depart="39.00" departLane="1235147073.116_0" departPos="7.85" departSpeed="0.00" departDelay="4.72" arrival="71.00" arrivalLane="-430406005#1_0" arrivalPos="128.92" arrivalSpeed="15.89" duration="32.00" routeLength="284.03" waitingTime="0.00" waitingCount="0" stopTime="0.00" timeLoss="13.56" rerouteNo="0" devices="tripinfo_flow_route_31_duration_20250327_2140.4" vType="car" speedFactor="0.95" vaporized=""/>
    <tripinfo id="flow_route_32_duration_20250327_2140.3" depart="36.00" departLane="1235147073.116_0" departPos="4.44" departSpeed="0.00" departDelay="6.00" arrival="74.00" arrivalLane="1369578054_1" arrivalPos="163.83" arrivalSpeed="13.35" duration="38.00" routeLength="339.12" waitingTime="0.00" waitingCount="0" stopTime="0.00" timeLoss="11.64" rerouteNo="0" devices="tripinfo_flow_route_32_duration_20250327_2140.3" vType="car" speedFactor="0.83" vaporized=""/>
    <tripinfo id="flow_route_31_duration_20250327_2140.5" depart="45.00" departLane="1235147073.116_0" departPos="10.88" departSpeed="0.00" departDelay="2.15" arrival="78.00" arrivalLane="-430406005#1_0" arrivalPos="156.36" arrivalSpeed="16.54" duration="33.00" routeLength="308.44" waitingTime="0.00" waitingCount="0" stopTime="0.00" timeLoss="13.14" rerouteNo="0" devices="tripinfo_flow_route_31_duration_20250327_2140.5" vType="car" speedFactor="1.01" vaporized=""/>
    <tripinfo id="flow_route_32_duration_20250327_2140.4" depart="41.00" departLane="1235147073.116_0" departPos="1.60" departSpeed="0.00" departDelay="1.00" arrival="79.00" arrivalLane="1369578054_1" arrivalPos="175.29" arrivalSpeed="16.36" duration="38.00" routeLength="353.42" waitingTime="0.00" waitingCount="0" stopTime="0.00" timeLoss="15.67" rerouteNo="0" devices="tripinfo_flow_route_32_duration_20250327_2140.4" vType="car" speedFactor="1.18" vaporized=""/>
    <tripinfo id="flow_route_32_duration_20250327_2140.5" depart="50.00" departLane="1235147073.116_0" departPos="10.71" departSpeed="0.00" departDelay="0.00" arrival="82.00" arrivalLane="1369578054_1" arrivalPos="123.18" arrivalSpeed="16.32" duration="32.00" routeLength="292.20" waitingTime="0.00" waitingCount="0" stopTime="0.00" timeLoss="13.18" rerouteNo="0" devices="tripinfo_flow_route_32_duration_20250327_2140.5" vType="car" speedFactor="1.02" vaporized=""/>
    <tripinfo id="flow_route_33_duration_20250327_2140.0" depart="0.00" departLane="133126008#0_0" departPos="101.07" departSpeed="0.00" departDelay="0.00" arrival="85.00" arrivalLane="1369578054_0" arrivalPos="13.07" arrivalSpeed="8.69" duration="85.00" routeLength="125.36" waitingTime="57.00" waitingCount="1" stopTime="0.00" timeLoss="76.60" rerouteNo="0" devices="tripinfo_flow_route_33_duration_20250327_2140.0" vType="car" speedFactor="0.83" vaporized=""/>
    <tripinfo id="flow_route_28_duration_20250327_2140.2" depart="30.00" departLane="-422986370#2_0" departPos="53.61" departSpeed="0.00" departDelay="0.00" arrival="88.00" arrivalLane="-430406005#1_0" arrivalPos="4.97" arrivalSpeed="9.24" duration="58.00" routeLength="285.79" waitingTime="17.00" waitingCount="1" stopTime="0.00" timeLoss="40.14" rerouteNo="0" devices="tripinfo_flow_route_28_duration_20250327_2140.2" vType="car" speedFactor="0.97" vaporized=""/>
    <tripinfo id="flow_route_28_duration_20250327_2140.1" depart="15.00" departLane="-422986370#2_0" departPos="50.31" departSpeed="0.00" departDelay="0.00" arrival="90.00" arrivalLane="-430406005#1_1" arrivalPos="47.16" arrivalSpeed="11.82" duration="75.00" routeLength="331.28" waitingTime="31.00" waitingCount="1" stopTime="0.00" timeLoss="54.32" rerouteNo="0" devices="tripinfo_flow_route_28_duration_20250327_2140.1" vType="car" speedFactor="0.99" vaporized=""/>
    <tripinfo id="flow_route_29_duration_20250327_2140.0" depart="0.00" departLane="-422986370#2_0" departPos="201.60" departSpeed="0.00" departDelay="0.00" arrival="93.00" arrivalLane="137415945#0_0" arrivalPos="9.07" arrivalSpeed="15.64" duration="93.00" routeLength="253.29" waitingTime="54.00" waitingCount="1" stopTime="0.00" timeLoss="75.36" rerouteNo="0" devices="tripinfo_flow_route_29_duration_20250327_2140.0" vType="car" speedFactor="0.94" vaporized=""/>
    <tripinfo id="flow_route_34_duration_20250327_2140.0" depart="0.00" departLane="133126008#0_0" departPos="47.21" departSpeed="0.00" departDelay="0.00" arrival="94.00" arrivalLane="133126030#0_0" arrivalPos="137.72" arrivalSpeed="15.31" duration="94.00" routeLength="278.03" waitingTime="54.00" waitingCount="1" stopTime="0.00" timeLoss="76.10" rerouteNo="0" devices="tripinfo_flow_route_34_duration_20250327_2140.0" vType="car" speedFactor="1.05" vaporized=""/>
    <tripinfo id="flow_route_28_duration_20250327_2140.0" depart="0.00" departLane="-422986370#2_0" departPos="1.81" departSpeed="0.00" departDelay="0.00" arrival="96.00" arrivalLane="-430406005#1_1" arrivalPos="159.13" arrivalSpeed="16.05" duration="96.00" routeLength="491.75" waitingTime="42.00" waitingCount="1" stopTime="0.00" timeLoss="65.98" rerouteNo="0" devices="tripinfo_flow_route_28_duration_20250327_2140.0" vType="car" speedFactor="1.06" vaporized=""/>
    <tripinfo id="flow_route_29_duration_20250327_2140.1" depart="20.00" departLane="-422986370#2_0" departPos="280.10" departSpeed="0.00" departDelay="0.00" arrival="96.00" arrivalLane="137415945#0_0" arrivalPos="9.11" arrivalSpeed="14.86" duration="76.00" routeLength="174.83" waitingTime="47.00" waitingCount="1" stopTime="0.00" timeLoss="63.26" rerouteNo="0" devices="tripinfo_flow_route_29_duration_20250327_2140.1" vType="car" speedFactor="0.94" vaporized=""/>
    <tripinfo id="flow_route_28_duration_20250327_2140.3" depart="45.00" departLane="-422986370#2_0" departPos="136.53" departSpeed="0.00" departDelay="0.00" arrival="96.00" arrivalLane="-430406005#1_1" arrivalPos="87.99" arrivalSpeed="14.62" duration="51.00" routeLength="285.89" waitingTime="8.00" waitingCount="1" stopTime="0.00" timeLoss="33.02" rerouteNo="0" devices="tripinfo_flow_route_28_duration_20250327_2140.3" vType="car" speedFactor="1.17" vaporized=""/>
    <tripinfo id="flow_route_29_duration_20250327_2140.2" depart="41.00" departLane="-422986370#2_0" departPos="90.69" departSpeed="0.00" departDelay="1.00" arrival="101.00" arrivalLane="137415945#0_0" arrivalPos="10.51" arrivalSpeed="15.36" duration="60.00" routeLength="365.64" waitingTime="7.00" waitingCount="1" stopTime="0.00" timeLoss="34.53" rerouteNo="0" devices="tripinfo_flow_route_29_duration_20250327_2140.2" vType="car" speedFactor="0.93" vaporized=""/>
    <tripinfo id="flow_route_36_duration_20250327_2140.2" depart="21.00" departLane="485211947#0_0" departPos="107.48" departSpeed="0.00" departDelay="1.00" arrival="131.00" arrivalLane="137415945#0_0" arrivalPos="8.80" arrivalSpeed="16.22" duration="110.00" routeLength="245.85" waitingTime="74.00" waitingCount="1" stopTime="0.00" timeLoss="94.75" rerouteNo="0" devices="tripinfo_flow_route_36_duration_20250327_2140.2" vType="car" speedFactor="1.16" vaporized=""/>
    <tripinfo id="flow_route_36_duration_20250327_2140.3" depart="31.00" departLane="485211947#0_0" departPos="38.39" departSpeed="0.00" departDelay="1.00" arrival="131.00" arrivalLane="137415945#0_1" arrivalPos="0.85" arrivalSpeed="14.88" duration="100.00" routeLength="307.00" waitingTime="57.00" waitingCount="1" stopTime="0.00" timeLoss="79.51" rerouteNo="0" devices="tripinfo_flow_route_36_duration_20250327_2140.3" vType="car" speedFactor="0.92" vaporized=""/>
    <tripinfo id="flow_route_36_duration_20250327_2140.4" depart="40.00" departLane="485211947#0_0" departPos="4.42" departSpeed="0.00" departDelay="0.00" arrival="134.00" arrivalLane="137415945#0_1" arrivalPos="5.31" arrivalSpeed="16.38" duration="94.00" routeLength="345.42" waitingTime="47.00" waitingCount="1" stopTime="0.00" timeLoss="72.27" rerouteNo="0" devices="tripinfo_flow_route_36_duration_20250327_2140.4" vType="car" speedFactor="1.15" vaporized=""/>
    <tripinfo id="flow_route_35_duration_20250327_2140.5" depart="38.00" departLane="485211947#0_0" departPos="72.22" departSpeed="0.00" departDelay="0.50" arrival="135.00" arrivalLane="1369578054_0" arrivalPos="126.81" arrivalSpeed="16.00" duration="97.00" routeLength="252.06" waitingTime="56.00" waitingCount="1" stopTime="0.00" timeLoss="80.29" rerouteNo="0" devices="tripinfo_flow_route_35_duration_20250327_2140.5" vType="car" speedFactor="1.13" vaporized=""/>
    <tripinfo id="flow_route_36_duration_20250327_2140.5" depart="50.00" departLane="485211947#0_0" departPos="18.81" departSpeed="0.00" departDelay="0.00" arrival="136.00" arrivalLane="137415945#0_1" arrivalPos="4.36" arrivalSpeed="15.93" duration="86.00" routeLength="330.08" waitingTime="41.00" waitingCount="1" stopTime="0.00" timeLoss="64.71" rerouteNo="0" devices="tripinfo_flow_route_36_duration_20250327_2140.5" vType="car" speedFactor="0.97" vaporized=""/>
    <tripinfo id="flow_route_35_duration_20250327_2140.6" depart="48.00" departLane="485211947#0_0" departPos="54.91" departSpeed="0.00" departDelay="3.00" arrival="139.00" arrivalLane="1369578054_0" arrivalPos="127.38" arrivalSpeed="15.63" duration="91.00" routeLength="269.93" waitingTime="50.00" waitingCount="1" stopTime="0.00" timeLoss="73.19" rerouteNo="0" devices="tripinfo_flow_route_35_duration_20250327_2140.6" vType="car" speedFactor="0.99" vaporized=""/>
    <tripinfo id="flow_route_35_duration_20250327_2140.4" depart="31.00" departLane="485211947#0_0" departPos="105.09" departSpeed="0.00" departDelay="1.00" arrival="141.00" arrivalLane="1369578054_0" arrivalPos="278.10" arrivalSpeed="14.19" duration="110.00" routeLength="370.47" waitingTime="64.00" waitingCount="1" stopTime="0.00" timeLoss="83.48" rerouteNo="0" devices="tripinfo_flow_route_35_duration_20250327_2140.4" vType="car" speedFactor="0.87" vaporized=""/>
    <tripinfo id="flow_route_35_duration_20250327_2140.3" depart="23.00" departLane="485211947#0_0" departPos="33.97" departSpeed="0.00" departDelay="0.50" arrival="143.00" arrivalLane="1369578054_1" arrivalPos="286.13" arrivalSpeed="16.11" duration="120.00" routeLength="449.61" waitingTime="64.00" waitingCount="1" stopTime="0.00" timeLoss="91.78" rerouteNo="0" devices="tripinfo_flow_route_35_duration_20250327_2140.3" vType="car" speedFactor="1.02" vaporized=""/>
    <tripinfo id="flow_route_35_duration_20250327_2140.7" depart="53.00" departLane="485211947#0_0" departPos="131.97" departSpeed="0.00" departDelay="0.50" arrival="143.00" arrivalLane="1369578054_0" arrivalPos="234.02" arrivalSpeed="16.31" duration="90.00" routeLength="299.51" waitingTime="53.00" waitingCount="1" stopTime="0.00" timeLoss="70.41" rerouteNo="0" devices="tripinfo_flow_route_35_duration_20250327_2140.7" vType="car" speedFactor="1.10" vaporized=""/>
    <tripinfo id="flow_route_31_duration_20250327_2140.6" depart="53.00" departLane="1235147073.116_0" departPos="4.31" departSpeed="0.00" departDelay="1.57" arrival="164.00" arrivalLane="-430406005#1_0" arrivalPos="83.28" arrivalSpeed="11.57" duration="111.00" routeLength="241.94" waitingTime="73.00" waitingCount="1" stopTime="0.00" timeLoss="95.64" rerouteNo="0" devices="tripinfo_flow_route_31_duration_20250327_2140.6" vType="car" speedFactor="1.18" vaporized=""/>
</tripinfos>
