<?xml version="1.0" encoding="UTF-8"?>

<!-- generated on 2025-05-06 21:08:12 by Eclipse SUMO sumo Version 1.20.0
<configuration xmlns:xsi="http://www.w3.org/2001/XMLSchema-instance" xsi:noNamespaceSchemaLocation="http://sumo.dlr.de/xsd/sumoConfiguration.xsd">

    <input>
        <net-file value="osm.net.xml"/>
        <route-files value="xml/route_rl_cluster_11657899598_353811979_6712514804_3.rou.xml"/>
    </input>

    <output>
        <tripinfo-output value="xml/tripinfo_rl_cluster_11657899598_353811979_6712514804_3.xml"/>
    </output>

    <traci_server>
        <remote-port value="36647"/>
    </traci_server>

</configuration>
-->

<tripinfos xmlns:xsi="http://www.w3.org/2001/XMLSchema-instance" xsi:noNamespaceSchemaLocation="http://sumo.dlr.de/xsd/tripinfo_file.xsd">
    <tripinfo id="flow_route_136_duration_20250327_2210.0" depart="0.00" departLane="688883939#0_0" departPos="70.95" departSpeed="0.00" departDelay="0.00" arrival="22.00" arrivalLane="186410975#0_1" arrivalPos="11.74" arrivalSpeed="11.21" duration="22.00" routeLength="133.80" waitingTime="1.00" waitingCount="1" stopTime="0.00" timeLoss="11.77" rerouteNo="0" devices="tripinfo_flow_route_136_duration_20250327_2210.0" vType="car" speedFactor="1.01" vaporized=""/>
    <tripinfo id="flow_route_137_duration_20250327_2210.0" depart="0.00" departLane="1310781056_0" departPos="52.86" departSpeed="0.00" departDelay="0.00" arrival="22.00" arrivalLane="714011134#0_0" arrivalPos="51.79" arrivalSpeed="16.36" duration="22.00" routeLength="192.73" waitingTime="0.00" waitingCount="0" stopTime="0.00" timeLoss="9.96" rerouteNo="0" devices="tripinfo_flow_route_137_duration_20250327_2210.0" vType="car" speedFactor="1.08" vaporized=""/>
    <tripinfo id="flow_route_134_duration_20250327_2210.0" depart="0.00" departLane="688883939#0_0" departPos="78.56" departSpeed="0.00" departDelay="0.00" arrival="28.00" arrivalLane="809719540#0_0" arrivalPos="239.32" arrivalSpeed="16.14" duration="28.00" routeLength="300.42" waitingTime="0.00" waitingCount="0" stopTime="0.00" timeLoss="9.69" rerouteNo="0" devices="tripinfo_flow_route_134_duration_20250327_2210.0" vType="car" speedFactor="1.06" vaporized=""/>
    <tripinfo id="flow_route_139_duration_20250327_2210.0" depart="1.00" departLane="1310781056_0" departPos="36.51" departSpeed="0.00" departDelay="1.00" arrival="28.00" arrivalLane="1254157399#1_1" arrivalPos="26.95" arrivalSpeed="9.60" duration="27.00" routeLength="180.27" waitingTime="0.00" waitingCount="0" stopTime="0.00" timeLoss="13.82" rerouteNo="0" devices="tripinfo_flow_route_139_duration_20250327_2210.0" vType="car" speedFactor="0.83" vaporized=""/>
    <tripinfo id="flow_route_138_duration_20250327_2210.0" depart="1.00" departLane="1310781056_0" departPos="99.29" departSpeed="0.00" departDelay="1.00" arrival="35.00" arrivalLane="186410975#0_0" arrivalPos="152.27" arrivalSpeed="11.40" duration="34.00" routeLength="305.80" waitingTime="0.00" waitingCount="0" stopTime="0.00" timeLoss="11.06" rerouteNo="0" devices="tripinfo_flow_route_138_duration_20250327_2210.0" vType="car" speedFactor="1.03" vaporized=""/>
    <tripinfo id="flow_route_135_duration_20250327_2210.0" depart="0.00" departLane="688883939#0_0" departPos="0.64" departSpeed="0.00" departDelay="0.00" arrival="45.00" arrivalLane="1254157399#1_0" arrivalPos="440.36" arrivalSpeed="16.44" duration="45.00" routeLength="573.44" waitingTime="0.00" waitingCount="0" stopTime="0.00" timeLoss="9.39" rerouteNo="0" devices="tripinfo_flow_route_135_duration_20250327_2210.0" vType="car" speedFactor="0.94" vaporized=""/>
    <tripinfo id="flow_route_152_duration_20250327_2210.0" depart="0.00" departLane="31861355#0_0" departPos="164.48" departSpeed="0.00" departDelay="0.00" arrival="51.00" arrivalLane="714011134#0_1" arrivalPos="26.08" arrivalSpeed="9.72" duration="51.00" routeLength="522.49" waitingTime="0.00" waitingCount="0" stopTime="0.00" timeLoss="15.40" rerouteNo="0" devices="tripinfo_flow_route_152_duration_20250327_2210.0" vType="car" speedFactor="0.89" vaporized=""/>
    <tripinfo id="flow_route_139_duration_20250327_2210.1" depart="12.00" departLane="1310781056_0" departPos="34.82" departSpeed="0.00" departDelay="0.00" arrival="55.00" arrivalLane="1254157399#1_0" arrivalPos="317.04" arrivalSpeed="16.46" duration="43.00" routeLength="472.05" waitingTime="0.00" waitingCount="0" stopTime="0.00" timeLoss="13.23" rerouteNo="0" devices="tripinfo_flow_route_139_duration_20250327_2210.1" vType="car" speedFactor="1.09" vaporized=""/>
    <tripinfo id="flow_route_136_duration_20250327_2210.1" depart="20.00" departLane="688883939#0_0" departPos="57.39" departSpeed="0.00" departDelay="0.00" arrival="58.00" arrivalLane="186410975#0_0" arrivalPos="212.76" arrivalSpeed="11.51" duration="38.00" routeLength="348.40" waitingTime="0.00" waitingCount="0" stopTime="0.00" timeLoss="10.22" rerouteNo="0" devices="tripinfo_flow_route_136_duration_20250327_2210.1" vType="car" speedFactor="1.05" vaporized=""/>
    <tripinfo id="flow_route_151_duration_20250327_2210.4" depart="27.00" departLane="31861355#0_0" departPos="594.82" departSpeed="0.00" departDelay="0.34" arrival="60.00" arrivalLane="186410975#0_1" arrivalPos="41.07" arrivalSpeed="9.69" duration="33.00" routeLength="173.46" waitingTime="2.00" waitingCount="1" stopTime="0.00" timeLoss="19.97" rerouteNo="0" devices="tripinfo_flow_route_151_duration_20250327_2210.4" vType="car" speedFactor="0.88" vaporized=""/>
    <tripinfo id="flow_route_153_duration_20250327_2210.0" depart="0.00" departLane="31861355#0_0" departPos="37.47" departSpeed="0.00" departDelay="0.00" arrival="65.00" arrivalLane="809719540#0_0" arrivalPos="146.46" arrivalSpeed="15.29" duration="65.00" routeLength="740.10" waitingTime="0.00" waitingCount="0" stopTime="0.00" timeLoss="15.72" rerouteNo="0" devices="tripinfo_flow_route_153_duration_20250327_2210.0" vType="car" speedFactor="0.94" vaporized=""/>
    <tripinfo id="flow_route_151_duration_20250327_2210.2" depart="14.00" departLane="31861355#0_0" departPos="583.90" departSpeed="0.00" departDelay="0.67" arrival="68.00" arrivalLane="186410975#0_0" arrivalPos="163.51" arrivalSpeed="11.25" duration="54.00" routeLength="306.81" waitingTime="11.00" waitingCount="1" stopTime="0.00" timeLoss="30.65" rerouteNo="0" devices="tripinfo_flow_route_151_duration_20250327_2210.2" vType="car" speedFactor="1.03" vaporized=""/>
    <tripinfo id="flow_route_151_duration_20250327_2210.0" depart="0.00" departLane="31861355#0_0" departPos="352.12" departSpeed="0.00" departDelay="0.00" arrival="69.00" arrivalLane="186410975#0_0" arrivalPos="191.84" arrivalSpeed="11.44" duration="69.00" routeLength="566.94" waitingTime="5.00" waitingCount="1" stopTime="0.00" timeLoss="29.85" rerouteNo="0" devices="tripinfo_flow_route_151_duration_20250327_2210.0" vType="car" speedFactor="1.05" vaporized=""/>
    <tripinfo id="flow_route_152_duration_20250327_2210.2" depart="40.00" departLane="31861355#0_0" departPos="444.94" departSpeed="0.00" departDelay="0.00" arrival="71.00" arrivalLane="714011134#0_1" arrivalPos="85.55" arrivalSpeed="13.70" duration="31.00" routeLength="301.48" waitingTime="0.00" waitingCount="0" stopTime="0.00" timeLoss="8.78" rerouteNo="0" devices="tripinfo_flow_route_152_duration_20250327_2210.2" vType="car" speedFactor="0.83" vaporized=""/>
    <tripinfo id="flow_route_152_duration_20250327_2210.1" depart="20.00" departLane="31861355#0_0" departPos="20.16" departSpeed="0.00" departDelay="0.00" arrival="72.00" arrivalLane="714011134#0_1" arrivalPos="41.80" arrivalSpeed="16.30" duration="52.00" routeLength="682.52" waitingTime="0.00" waitingCount="0" stopTime="0.00" timeLoss="9.97" rerouteNo="0" devices="tripinfo_flow_route_152_duration_20250327_2210.1" vType="car" speedFactor="0.99" vaporized=""/>
    <tripinfo id="flow_route_153_duration_20250327_2210.1" depart="30.00" departLane="31861355#0_0" departPos="255.78" departSpeed="0.00" departDelay="0.00" arrival="76.00" arrivalLane="809719540#0_0" arrivalPos="88.99" arrivalSpeed="12.46" duration="46.00" routeLength="464.32" waitingTime="0.00" waitingCount="0" stopTime="0.00" timeLoss="17.29" rerouteNo="0" devices="tripinfo_flow_route_153_duration_20250327_2210.1" vType="car" speedFactor="1.16" vaporized=""/>
    <tripinfo id="flow_route_151_duration_20250327_2210.6" depart="40.00" departLane="31861355#0_0" departPos="415.45" departSpeed="0.00" departDelay="0.00" arrival="77.00" arrivalLane="186410975#0_0" arrivalPos="62.30" arrivalSpeed="9.54" duration="37.00" routeLength="374.07" waitingTime="0.00" waitingCount="0" stopTime="0.00" timeLoss="9.52" rerouteNo="0" devices="tripinfo_flow_route_151_duration_20250327_2210.6" vType="car" speedFactor="0.89" vaporized=""/>
    <tripinfo id="flow_route_151_duration_20250327_2210.1" depart="7.00" departLane="31861355#0_0" departPos="28.73" departSpeed="0.00" departDelay="0.33" arrival="85.00" arrivalLane="186410975#0_0" arrivalPos="176.45" arrivalSpeed="9.13" duration="78.00" routeLength="874.93" waitingTime="0.00" waitingCount="0" stopTime="0.00" timeLoss="10.70" rerouteNo="0" devices="tripinfo_flow_route_151_duration_20250327_2210.1" vType="car" speedFactor="0.86" vaporized=""/>
    <tripinfo id="flow_route_135_duration_20250327_2210.1" depart="30.00" departLane="688883939#0_0" departPos="13.64" departSpeed="0.00" departDelay="0.00" arrival="85.00" arrivalLane="1254157399#1_0" arrivalPos="18.43" arrivalSpeed="8.54" duration="55.00" routeLength="138.51" waitingTime="27.00" waitingCount="1" stopTime="0.00" timeLoss="45.89" rerouteNo="0" devices="tripinfo_flow_route_135_duration_20250327_2210.1" vType="car" speedFactor="0.94" vaporized=""/>
    <tripinfo id="flow_route_151_duration_20250327_2210.3" depart="20.00" departLane="31861355#0_0" departPos="147.19" departSpeed="0.00" departDelay="0.00" arrival="89.00" arrivalLane="186410975#0_1" arrivalPos="229.10" arrivalSpeed="12.44" duration="69.00" routeLength="809.12" waitingTime="0.00" waitingCount="0" stopTime="0.00" timeLoss="15.38" rerouteNo="0" devices="tripinfo_flow_route_151_duration_20250327_2210.3" vType="car" speedFactor="1.12" vaporized=""/>
    <tripinfo id="flow_route_151_duration_20250327_2210.7" depart="47.00" departLane="31861355#0_0" departPos="430.05" departSpeed="0.00" departDelay="0.34" arrival="94.00" arrivalLane="186410975#0_0" arrivalPos="153.89" arrivalSpeed="9.35" duration="47.00" routeLength="451.05" waitingTime="0.00" waitingCount="0" stopTime="0.00" timeLoss="10.58" rerouteNo="0" devices="tripinfo_flow_route_151_duration_20250327_2210.7" vType="car" speedFactor="0.87" vaporized=""/>
    <tripinfo id="flow_route_139_duration_20250327_2210.3" depart="36.00" departLane="1310781056_0" departPos="19.05" departSpeed="0.00" departDelay="0.00" arrival="97.00" arrivalLane="1254157399#1_1" arrivalPos="137.91" arrivalSpeed="16.43" duration="61.00" routeLength="308.69" waitingTime="19.00" waitingCount="1" stopTime="0.00" timeLoss="40.92" rerouteNo="0" devices="tripinfo_flow_route_139_duration_20250327_2210.3" vType="car" speedFactor="1.01" vaporized=""/>
    <tripinfo id="flow_route_139_duration_20250327_2210.2" depart="24.00" departLane="1310781056_0" departPos="86.69" departSpeed="0.00" departDelay="0.00" arrival="99.00" arrivalLane="1254157399#1_0" arrivalPos="186.50" arrivalSpeed="16.23" duration="75.00" routeLength="289.64" waitingTime="35.00" waitingCount="1" stopTime="0.00" timeLoss="55.34" rerouteNo="0" devices="tripinfo_flow_route_139_duration_20250327_2210.2" vType="car" speedFactor="0.93" vaporized=""/>
    <tripinfo id="flow_route_151_duration_20250327_2210.5" depart="34.00" departLane="31861355#0_0" departPos="164.20" departSpeed="0.00" departDelay="0.67" arrival="102.00" arrivalLane="186410975#0_1" arrivalPos="248.96" arrivalSpeed="11.07" duration="68.00" routeLength="811.97" waitingTime="0.00" waitingCount="0" stopTime="0.00" timeLoss="11.62" rerouteNo="0" devices="tripinfo_flow_route_151_duration_20250327_2210.5" vType="car" speedFactor="1.02" vaporized=""/>
    <tripinfo id="flow_route_136_duration_20250327_2210.2" depart="40.00" departLane="688883939#0_0" departPos="9.39" departSpeed="0.00" departDelay="0.00" arrival="103.00" arrivalLane="186410975#0_1" arrivalPos="147.54" arrivalSpeed="10.81" duration="63.00" routeLength="331.17" waitingTime="16.00" waitingCount="1" stopTime="0.00" timeLoss="36.28" rerouteNo="0" devices="tripinfo_flow_route_136_duration_20250327_2210.2" vType="car" speedFactor="0.97" vaporized=""/>
    <tripinfo id="flow_route_138_duration_20250327_2210.1" depart="30.00" departLane="1310781056_0" departPos="14.22" departSpeed="0.00" departDelay="0.00" arrival="107.00" arrivalLane="186410975#0_0" arrivalPos="176.82" arrivalSpeed="9.96" duration="77.00" routeLength="415.43" waitingTime="24.00" waitingCount="1" stopTime="0.00" timeLoss="44.40" rerouteNo="0" devices="tripinfo_flow_route_138_duration_20250327_2210.1" vType="car" speedFactor="0.94" vaporized=""/>
    <tripinfo id="flow_route_139_duration_20250327_2210.4" depart="48.00" departLane="1310781056_0" departPos="108.86" departSpeed="0.00" departDelay="0.00" arrival="126.00" arrivalLane="1254157399#1_0" arrivalPos="577.91" arrivalSpeed="16.25" duration="78.00" routeLength="658.88" waitingTime="16.00" waitingCount="1" stopTime="0.00" timeLoss="36.28" rerouteNo="0" devices="tripinfo_flow_route_139_duration_20250327_2210.4" vType="car" speedFactor="0.92" vaporized=""/>
    <tripinfo id="flow_route_151_duration_20250327_2210.8" depart="54.00" departLane="31861355#0_0" departPos="306.29" departSpeed="0.00" departDelay="0.67" arrival="136.00" arrivalLane="186410975#0_0" arrivalPos="79.44" arrivalSpeed="10.48" duration="82.00" routeLength="500.37" waitingTime="24.00" waitingCount="1" stopTime="0.00" timeLoss="47.86" rerouteNo="0" devices="tripinfo_flow_route_151_duration_20250327_2210.8" vType="car" speedFactor="0.95" vaporized=""/>
</tripinfos>
