<?xml version="1.0" encoding="UTF-8"?>

<!-- generated on 2025-05-06 21:08:43 by Eclipse SUMO sumo Version 1.20.0
<configuration xmlns:xsi="http://www.w3.org/2001/XMLSchema-instance" xsi:noNamespaceSchemaLocation="http://sumo.dlr.de/xsd/sumoConfiguration.xsd">

    <input>
        <net-file value="osm.net.xml"/>
        <route-files value="xml/route_rl_11644940310_6.rou.xml"/>
    </input>

    <output>
        <tripinfo-output value="xml/tripinfo_rl_11644940310_6.xml"/>
    </output>

    <traci_server>
        <remote-port value="41035"/>
    </traci_server>

</configuration>
-->

<tripinfos xmlns:xsi="http://www.w3.org/2001/XMLSchema-instance" xsi:noNamespaceSchemaLocation="http://sumo.dlr.de/xsd/tripinfo_file.xsd">
    <tripinfo id="flow_route_27_duration_20250327_2040.0" depart="0.00" departLane="1254771874#0_0" departPos="190.47" departSpeed="0.00" departDelay="0.00" arrival="15.00" arrivalLane="138002006#0_1" arrivalPos="4.04" arrivalSpeed="9.09" duration="15.00" routeLength="85.46" waitingTime="0.00" waitingCount="0" stopTime="0.00" timeLoss="8.79" rerouteNo="0" devices="tripinfo_flow_route_27_duration_20250327_2040.0" vType="car" speedFactor="1.01" vaporized=""/>
    <tripinfo id="flow_route_25_duration_20250327_2040.0" depart="0.00" departLane="1254771874#0_0" departPos="63.27" departSpeed="0.00" departDelay="0.00" arrival="34.00" arrivalLane="1341093415#0_0" arrivalPos="158.81" arrivalSpeed="16.47" duration="34.00" routeLength="373.33" waitingTime="0.00" waitingCount="0" stopTime="0.00" timeLoss="10.57" rerouteNo="0" devices="tripinfo_flow_route_25_duration_20250327_2040.0" vType="car" speedFactor="1.06" vaporized=""/>
    <tripinfo id="flow_route_26_duration_20250327_2040.0" depart="0.00" departLane="1254771874#0_0" departPos="139.38" departSpeed="0.00" departDelay="0.00" arrival="38.00" arrivalLane="-422986370#2_0" arrivalPos="213.43" arrivalSpeed="15.25" duration="38.00" routeLength="338.64" waitingTime="0.00" waitingCount="0" stopTime="0.00" timeLoss="15.95" rerouteNo="0" devices="tripinfo_flow_route_26_duration_20250327_2040.0" vType="car" speedFactor="0.94" vaporized=""/>
    <tripinfo id="flow_route_27_duration_20250327_2040.2" depart="15.00" departLane="1254771874#0_0" departPos="139.14" departSpeed="0.00" departDelay="0.00" arrival="43.00" arrivalLane="138002006#0_1" arrivalPos="78.79" arrivalSpeed="14.20" duration="28.00" routeLength="211.55" waitingTime="0.00" waitingCount="0" stopTime="0.00" timeLoss="13.74" rerouteNo="0" devices="tripinfo_flow_route_27_duration_20250327_2040.2" vType="car" speedFactor="1.03" vaporized=""/>
    <tripinfo id="flow_route_40_duration_20250327_2040.1" depart="6.00" departLane="1369578054_0" departPos="262.36" departSpeed="0.00" departDelay="0.00" arrival="45.00" arrivalLane="1341093415#0_0" arrivalPos="10.74" arrivalSpeed="5.45" duration="39.00" routeLength="59.30" waitingTime="21.00" waitingCount="1" stopTime="0.00" timeLoss="34.15" rerouteNo="0" devices="tripinfo_flow_route_40_duration_20250327_2040.1" vType="car" speedFactor="0.89" vaporized=""/>
    <tripinfo id="flow_route_50_duration_20250327_2040.0" depart="0.00" departLane="-138002006#3_0" departPos="41.39" departSpeed="0.00" departDelay="0.00" arrival="47.00" arrivalLane="-422986370#2_0" arrivalPos="13.06" arrivalSpeed="7.54" duration="47.00" routeLength="82.72" waitingTime="25.00" waitingCount="1" stopTime="0.00" timeLoss="40.63" rerouteNo="0" devices="tripinfo_flow_route_50_duration_20250327_2040.0" vType="car" speedFactor="0.83" vaporized=""/>
    <tripinfo id="flow_route_26_duration_20250327_2040.1" depart="10.00" departLane="1254771874#0_0" departPos="78.49" departSpeed="0.00" departDelay="0.00" arrival="49.00" arrivalLane="-422986370#2_0" arrivalPos="153.66" arrivalSpeed="14.06" duration="39.00" routeLength="339.77" waitingTime="0.00" waitingCount="0" stopTime="0.00" timeLoss="16.01" rerouteNo="0" devices="tripinfo_flow_route_26_duration_20250327_2040.1" vType="car" speedFactor="0.86" vaporized=""/>
    <tripinfo id="flow_route_41_duration_20250327_2040.1" depart="15.00" departLane="1369578054_0" departPos="70.93" departSpeed="0.00" departDelay="0.00" arrival="50.00" arrivalLane="138002006#0_1" arrivalPos="35.20" arrivalSpeed="11.04" duration="35.00" routeLength="286.20" waitingTime="0.00" waitingCount="0" stopTime="0.00" timeLoss="17.53" rerouteNo="0" devices="tripinfo_flow_route_41_duration_20250327_2040.1" vType="car" speedFactor="1.05" vaporized=""/>
    <tripinfo id="flow_route_41_duration_20250327_2040.0" depart="0.00" departLane="1369578054_0" departPos="201.66" departSpeed="0.00" departDelay="0.00" arrival="51.00" arrivalLane="138002006#0_0" arrivalPos="52.37" arrivalSpeed="10.86" duration="51.00" routeLength="172.64" waitingTime="20.00" waitingCount="1" stopTime="0.00" timeLoss="40.48" rerouteNo="0" devices="tripinfo_flow_route_41_duration_20250327_2040.0" vType="car" speedFactor="1.03" vaporized=""/>
    <tripinfo id="flow_route_40_duration_20250327_2040.3" depart="18.00" departLane="1369578054_0" departPos="90.42" departSpeed="0.00" departDelay="0.00" arrival="53.00" arrivalLane="1341093415#0_0" arrivalPos="5.78" arrivalSpeed="8.30" duration="35.00" routeLength="226.28" waitingTime="0.00" waitingCount="0" stopTime="0.00" timeLoss="20.40" rerouteNo="0" devices="tripinfo_flow_route_40_duration_20250327_2040.3" vType="car" speedFactor="1.12" vaporized=""/>
    <tripinfo id="flow_route_50_duration_20250327_2040.1" depart="30.00" departLane="-138002006#3_0" departPos="59.32" departSpeed="0.00" departDelay="0.00" arrival="55.00" arrivalLane="-422986370#2_0" arrivalPos="66.84" arrivalSpeed="11.41" duration="25.00" routeLength="118.56" waitingTime="0.00" waitingCount="0" stopTime="0.00" timeLoss="17.16" rerouteNo="0" devices="tripinfo_flow_route_50_duration_20250327_2040.1" vType="car" speedFactor="0.97" vaporized=""/>
    <tripinfo id="flow_route_40_duration_20250327_2040.0" depart="0.00" departLane="1369578054_0" departPos="1.81" departSpeed="0.00" departDelay="0.00" arrival="57.00" arrivalLane="1341093415#0_0" arrivalPos="87.60" arrivalSpeed="13.34" duration="57.00" routeLength="396.71" waitingTime="9.00" waitingCount="1" stopTime="0.00" timeLoss="32.14" rerouteNo="0" devices="tripinfo_flow_route_40_duration_20250327_2040.0" vType="car" speedFactor="1.08" vaporized=""/>
    <tripinfo id="flow_route_40_duration_20250327_2040.2" depart="13.00" departLane="1369578054_0" departPos="247.00" departSpeed="0.00" departDelay="1.00" arrival="57.00" arrivalLane="1341093415#0_0" arrivalPos="112.91" arrivalSpeed="13.74" duration="44.00" routeLength="176.84" waitingTime="14.00" waitingCount="1" stopTime="0.00" timeLoss="32.45" rerouteNo="0" devices="tripinfo_flow_route_40_duration_20250327_2040.2" vType="car" speedFactor="1.09" vaporized=""/>
    <tripinfo id="flow_route_41_duration_20250327_2040.2" depart="30.00" departLane="1369578054_0" departPos="26.67" departSpeed="0.00" departDelay="0.00" arrival="61.00" arrivalLane="138002006#0_1" arrivalPos="23.44" arrivalSpeed="16.47" duration="31.00" routeLength="318.70" waitingTime="0.00" waitingCount="0" stopTime="0.00" timeLoss="10.94" rerouteNo="0" devices="tripinfo_flow_route_41_duration_20250327_2040.2" vType="car" speedFactor="1.01" vaporized=""/>
    <tripinfo id="flow_route_40_duration_20250327_2040.5" depart="30.00" departLane="1369578054_0" departPos="243.22" departSpeed="0.00" departDelay="0.00" arrival="64.00" arrivalLane="1341093415#0_0" arrivalPos="171.92" arrivalSpeed="16.60" duration="34.00" routeLength="239.62" waitingTime="0.00" waitingCount="0" stopTime="0.00" timeLoss="18.92" rerouteNo="0" devices="tripinfo_flow_route_40_duration_20250327_2040.5" vType="car" speedFactor="1.02" vaporized=""/>
    <tripinfo id="flow_route_51_duration_20250327_2040.0" depart="2.00" departLane="-138002006#3_0" departPos="23.48" departSpeed="0.00" departDelay="2.00" arrival="67.00" arrivalLane="1341093415#0_3" arrivalPos="132.48" arrivalSpeed="15.62" duration="65.00" routeLength="212.67" waitingTime="27.00" waitingCount="2" stopTime="0.00" timeLoss="50.52" rerouteNo="0" devices="tripinfo_flow_route_51_duration_20250327_2040.0" vType="car" speedFactor="1.05" vaporized=""/>
    <tripinfo id="flow_route_40_duration_20250327_2040.6" depart="36.00" departLane="1369578054_0" departPos="178.65" departSpeed="0.00" departDelay="0.00" arrival="67.00" arrivalLane="1341093415#0_0" arrivalPos="127.54" arrivalSpeed="15.32" duration="31.00" routeLength="259.81" waitingTime="0.00" waitingCount="0" stopTime="0.00" timeLoss="13.62" rerouteNo="0" devices="tripinfo_flow_route_40_duration_20250327_2040.6" vType="car" speedFactor="0.89" vaporized=""/>
    <tripinfo id="flow_route_41_duration_20250327_2040.3" depart="45.00" departLane="1369578054_0" departPos="192.26" departSpeed="0.00" departDelay="0.00" arrival="68.00" arrivalLane="138002006#0_0" arrivalPos="84.77" arrivalSpeed="16.46" duration="23.00" routeLength="214.44" waitingTime="0.00" waitingCount="0" stopTime="0.00" timeLoss="10.03" rerouteNo="0" devices="tripinfo_flow_route_41_duration_20250327_2040.3" vType="car" speedFactor="1.13" vaporized=""/>
    <tripinfo id="flow_route_40_duration_20250327_2040.4" depart="24.00" departLane="1369578054_0" departPos="99.27" departSpeed="0.00" departDelay="0.00" arrival="69.00" arrivalLane="1341093415#0_0" arrivalPos="122.11" arrivalSpeed="14.48" duration="45.00" routeLength="333.75" waitingTime="0.00" waitingCount="0" stopTime="0.00" timeLoss="22.05" rerouteNo="0" devices="tripinfo_flow_route_40_duration_20250327_2040.4" vType="car" speedFactor="0.88" vaporized=""/>
    <tripinfo id="flow_route_40_duration_20250327_2040.7" depart="42.00" departLane="1369578054_0" departPos="173.81" departSpeed="0.00" departDelay="0.00" arrival="75.00" arrivalLane="1341093415#0_0" arrivalPos="87.80" arrivalSpeed="12.97" duration="33.00" routeLength="224.90" waitingTime="0.00" waitingCount="0" stopTime="0.00" timeLoss="17.34" rerouteNo="0" devices="tripinfo_flow_route_40_duration_20250327_2040.7" vType="car" speedFactor="0.92" vaporized=""/>
    <tripinfo id="flow_route_27_duration_20250327_2040.1" depart="9.00" departLane="1254771874#0_0" departPos="11.81" departSpeed="0.00" departDelay="1.50" arrival="121.00" arrivalLane="138002006#0_1" arrivalPos="28.58" arrivalSpeed="8.39" duration="112.00" routeLength="288.66" waitingTime="72.00" waitingCount="1" stopTime="0.00" timeLoss="93.47" rerouteNo="0" devices="tripinfo_flow_route_27_duration_20250327_2040.1" vType="car" speedFactor="0.94" vaporized=""/>
    <tripinfo id="flow_route_25_duration_20250327_2040.1" depart="30.00" departLane="1254771874#0_0" departPos="42.93" departSpeed="0.00" departDelay="0.00" arrival="121.00" arrivalLane="1341093415#0_1" arrivalPos="23.06" arrivalSpeed="8.10" duration="91.00" routeLength="257.91" waitingTime="55.00" waitingCount="1" stopTime="0.00" timeLoss="75.32" rerouteNo="0" devices="tripinfo_flow_route_25_duration_20250327_2040.1" vType="car" speedFactor="0.94" vaporized=""/>
    <tripinfo id="flow_route_26_duration_20250327_2040.3" depart="30.00" departLane="1254771874#0_0" departPos="146.11" departSpeed="0.00" departDelay="0.00" arrival="122.00" arrivalLane="-422986370#2_0" arrivalPos="37.56" arrivalSpeed="8.85" duration="92.00" routeLength="156.04" waitingTime="62.00" waitingCount="1" stopTime="0.00" timeLoss="81.19" rerouteNo="0" devices="tripinfo_flow_route_26_duration_20250327_2040.3" vType="car" speedFactor="0.94" vaporized=""/>
    <tripinfo id="flow_route_27_duration_20250327_2040.5" depart="38.00" departLane="1254771874#0_0" departPos="239.02" departSpeed="0.00" departDelay="0.50" arrival="127.00" arrivalLane="138002006#0_1" arrivalPos="61.39" arrivalSpeed="11.20" duration="89.00" routeLength="94.27" waitingTime="67.00" waitingCount="1" stopTime="0.00" timeLoss="80.64" rerouteNo="0" devices="tripinfo_flow_route_27_duration_20250327_2040.5" vType="car" speedFactor="0.83" vaporized=""/>
    <tripinfo id="flow_route_27_duration_20250327_2040.4" depart="30.00" departLane="1254771874#0_0" departPos="61.70" departSpeed="0.00" departDelay="0.00" arrival="129.00" arrivalLane="138002006#0_1" arrivalPos="36.52" arrivalSpeed="10.72" duration="99.00" routeLength="246.70" waitingTime="59.00" waitingCount="1" stopTime="0.00" timeLoss="83.12" rerouteNo="0" devices="tripinfo_flow_route_27_duration_20250327_2040.4" vType="car" speedFactor="1.16" vaporized=""/>
    <tripinfo id="flow_route_27_duration_20250327_2040.6" depart="45.00" departLane="1254771874#0_0" departPos="46.87" departSpeed="0.00" departDelay="0.00" arrival="129.00" arrivalLane="138002006#0_1" arrivalPos="14.95" arrivalSpeed="9.31" duration="84.00" routeLength="239.97" waitingTime="45.00" waitingCount="1" stopTime="0.00" timeLoss="68.37" rerouteNo="0" devices="tripinfo_flow_route_27_duration_20250327_2040.6" vType="car" speedFactor="0.95" vaporized=""/>
    <tripinfo id="flow_route_26_duration_20250327_2040.5" depart="50.00" departLane="1254771874#0_0" departPos="139.77" departSpeed="0.00" departDelay="0.00" arrival="130.00" arrivalLane="-422986370#2_0" arrivalPos="83.53" arrivalSpeed="12.60" duration="80.00" routeLength="208.36" waitingTime="45.00" waitingCount="1" stopTime="0.00" timeLoss="66.00" rerouteNo="0" devices="tripinfo_flow_route_26_duration_20250327_2040.5" vType="car" speedFactor="1.18" vaporized=""/>
    <tripinfo id="flow_route_27_duration_20250327_2040.3" depart="23.00" departLane="1254771874#0_0" departPos="7.62" departSpeed="0.00" departDelay="0.50" arrival="131.00" arrivalLane="138002006#0_1" arrivalPos="84.92" arrivalSpeed="12.97" duration="108.00" routeLength="349.18" waitingTime="60.00" waitingCount="1" stopTime="0.00" timeLoss="85.38" rerouteNo="0" devices="tripinfo_flow_route_27_duration_20250327_2040.3" vType="car" speedFactor="0.93" vaporized=""/>
    <tripinfo id="flow_route_27_duration_20250327_2040.7" depart="53.00" departLane="1254771874#0_0" departPos="17.12" departSpeed="0.00" departDelay="0.50" arrival="137.00" arrivalLane="138002006#0_1" arrivalPos="82.39" arrivalSpeed="13.96" duration="84.00" routeLength="337.16" waitingTime="37.00" waitingCount="1" stopTime="0.00" timeLoss="62.41" rerouteNo="0" devices="tripinfo_flow_route_27_duration_20250327_2040.7" vType="car" speedFactor="1.15" vaporized=""/>
    <tripinfo id="flow_route_26_duration_20250327_2040.2" depart="20.00" departLane="1254771874#0_0" departPos="40.67" departSpeed="0.00" departDelay="0.00" arrival="138.00" arrivalLane="-422986370#2_0" arrivalPos="229.01" arrivalSpeed="16.49" duration="118.00" routeLength="452.94" waitingTime="62.00" waitingCount="1" stopTime="0.00" timeLoss="89.14" rerouteNo="0" devices="tripinfo_flow_route_26_duration_20250327_2040.2" vType="car" speedFactor="0.99" vaporized=""/>
    <tripinfo id="flow_route_26_duration_20250327_2040.4" depart="40.00" departLane="1254771874#0_0" departPos="78.68" departSpeed="0.00" departDelay="0.00" arrival="148.00" arrivalLane="-422986370#2_0" arrivalPos="287.55" arrivalSpeed="14.20" duration="108.00" routeLength="473.47" waitingTime="44.00" waitingCount="1" stopTime="0.00" timeLoss="75.60" rerouteNo="0" devices="tripinfo_flow_route_26_duration_20250327_2040.4" vType="car" speedFactor="0.87" vaporized=""/>
    <tripinfo id="flow_route_40_duration_20250327_2040.9" depart="55.00" departLane="1369578054_0" departPos="94.05" departSpeed="0.00" departDelay="1.00" arrival="159.00" arrivalLane="1341093415#0_0" arrivalPos="31.90" arrivalSpeed="8.22" duration="104.00" routeLength="248.78" waitingTime="68.00" waitingCount="1" stopTime="0.00" timeLoss="87.95" rerouteNo="0" devices="tripinfo_flow_route_40_duration_20250327_2040.9" vType="car" speedFactor="1.01" vaporized=""/>
    <tripinfo id="flow_route_40_duration_20250327_2040.8" depart="48.00" departLane="1369578054_0" departPos="8.34" departSpeed="0.00" departDelay="0.00" arrival="161.00" arrivalLane="1341093415#0_0" arrivalPos="27.06" arrivalSpeed="8.24" duration="113.00" routeLength="329.64" waitingTime="68.00" waitingCount="1" stopTime="0.00" timeLoss="91.11" rerouteNo="0" devices="tripinfo_flow_route_40_duration_20250327_2040.8" vType="car" speedFactor="0.93" vaporized=""/>
</tripinfos>
