<?xml version="1.0" encoding="UTF-8"?>

<!-- generated on 2025-05-06 21:08:23 by Eclipse SUMO sumo Version 1.20.0
<configuration xmlns:xsi="http://www.w3.org/2001/XMLSchema-instance" xsi:noNamespaceSchemaLocation="http://sumo.dlr.de/xsd/sumoConfiguration.xsd">

    <input>
        <net-file value="osm.net.xml"/>
        <route-files value="xml/route_rl_J7_4.rou.xml"/>
    </input>

    <output>
        <tripinfo-output value="xml/tripinfo_rl_J7_4.xml"/>
    </output>

    <traci_server>
        <remote-port value="60479"/>
    </traci_server>

</configuration>
-->

<tripinfos xmlns:xsi="http://www.w3.org/2001/XMLSchema-instance" xsi:noNamespaceSchemaLocation="http://sumo.dlr.de/xsd/tripinfo_file.xsd">
    <tripinfo id="flow_route_127_duration_20250327_2220.1" depart="6.00" departLane="-138000461_0" departPos="174.20" departSpeed="0.00" departDelay="1.72" arrival="25.00" arrivalLane="189240000#0-AddedOnRampEdge_0" arrivalPos="48.43" arrivalSpeed="13.49" duration="19.00" routeLength="133.34" waitingTime="0.00" waitingCount="0" stopTime="0.00" timeLoss="9.82" rerouteNo="0" devices="tripinfo_flow_route_127_duration_20250327_2220.1" vType="car" speedFactor="1.09" vaporized=""/>
    <tripinfo id="flow_route_131_duration_20250327_2220.0" depart="0.00" departLane="714011134#0_0" departPos="6.35" departSpeed="0.00" departDelay="0.00" arrival="26.00" arrivalLane="134194079#0_0" arrivalPos="73.02" arrivalSpeed="14.28" duration="26.00" routeLength="232.63" waitingTime="0.00" waitingCount="0" stopTime="0.00" timeLoss="9.74" rerouteNo="0" devices="tripinfo_flow_route_131_duration_20250327_2220.0" vType="car" speedFactor="0.89" vaporized=""/>
    <tripinfo id="flow_route_127_duration_20250327_2220.0" depart="0.00" departLane="-138000461_0" departPos="55.90" departSpeed="0.00" departDelay="0.00" arrival="31.00" arrivalLane="189240000#0-AddedOnRampEdge_0" arrivalPos="70.17" arrivalSpeed="13.65" duration="31.00" routeLength="273.38" waitingTime="0.00" waitingCount="0" stopTime="0.00" timeLoss="13.62" rerouteNo="0" devices="tripinfo_flow_route_127_duration_20250327_2220.0" vType="car" speedFactor="1.05" vaporized=""/>
    <tripinfo id="flow_route_132_duration_20250327_2220.0" depart="0.00" departLane="714011134#0_0" departPos="92.28" departSpeed="0.00" departDelay="0.00" arrival="34.00" arrivalLane="189240000#0-AddedOnRampEdge_1" arrivalPos="51.48" arrivalSpeed="15.25" duration="34.00" routeLength="375.34" waitingTime="0.00" waitingCount="0" stopTime="0.00" timeLoss="9.99" rerouteNo="0" devices="tripinfo_flow_route_132_duration_20250327_2220.0" vType="car" speedFactor="0.94" vaporized=""/>
    <tripinfo id="flow_route_116_duration_20250327_2220.0" depart="0.00" departLane="177211987#1_0" departPos="0.88" departSpeed="0.00" departDelay="0.00" arrival="38.00" arrivalLane="688883939#0_1" arrivalPos="93.94" arrivalSpeed="16.27" duration="38.00" routeLength="448.08" waitingTime="0.00" waitingCount="0" stopTime="0.00" timeLoss="10.63" rerouteNo="0" devices="tripinfo_flow_route_116_duration_20250327_2220.0" vType="car" speedFactor="1.06" vaporized=""/>
    <tripinfo id="flow_route_132_duration_20250327_2220.1" depart="6.00" departLane="714011134#0_0" departPos="93.55" departSpeed="0.00" departDelay="1.72" arrival="38.00" arrivalLane="189240000#0-AddedOnRampEdge_1" arrivalPos="28.99" arrivalSpeed="16.15" duration="32.00" routeLength="351.58" waitingTime="0.00" waitingCount="0" stopTime="0.00" timeLoss="10.57" rerouteNo="0" devices="tripinfo_flow_route_132_duration_20250327_2220.1" vType="car" speedFactor="1.03" vaporized=""/>
    <tripinfo id="flow_route_116_duration_20250327_2220.1" depart="15.00" departLane="177211987#1_0" departPos="141.18" departSpeed="0.00" departDelay="0.00" arrival="39.00" arrivalLane="688883939#0_0" arrivalPos="13.22" arrivalSpeed="15.26" duration="24.00" routeLength="227.06" waitingTime="0.00" waitingCount="0" stopTime="0.00" timeLoss="9.50" rerouteNo="0" devices="tripinfo_flow_route_116_duration_20250327_2220.1" vType="car" speedFactor="0.94" vaporized=""/>
    <tripinfo id="flow_route_127_duration_20250327_2220.4" depart="18.00" departLane="-138000461_0" departPos="120.80" departSpeed="0.00" departDelay="0.86" arrival="40.00" arrivalLane="189240000#0-AddedOnRampEdge_0" arrivalPos="21.07" arrivalSpeed="10.47" duration="22.00" routeLength="159.38" waitingTime="0.00" waitingCount="0" stopTime="0.00" timeLoss="12.00" rerouteNo="0" devices="tripinfo_flow_route_127_duration_20250327_2220.4" vType="car" speedFactor="1.16" vaporized=""/>
    <tripinfo id="flow_route_121_duration_20250327_2220.0" depart="1.00" departLane="799091563#0_0" departPos="259.58" departSpeed="0.00" departDelay="1.00" arrival="41.00" arrivalLane="134194079#0_0" arrivalPos="144.99" arrivalSpeed="15.41" duration="40.00" routeLength="274.57" waitingTime="0.00" waitingCount="0" stopTime="0.00" timeLoss="22.05" rerouteNo="0" devices="tripinfo_flow_route_121_duration_20250327_2220.0" vType="car" speedFactor="1.08" vaporized=""/>
    <tripinfo id="flow_route_127_duration_20250327_2220.2" depart="9.00" departLane="-138000461_0" departPos="50.03" departSpeed="0.00" departDelay="0.43" arrival="44.00" arrivalLane="189240000#0-AddedOnRampEdge_0" arrivalPos="37.44" arrivalSpeed="12.01" duration="35.00" routeLength="246.53" waitingTime="0.00" waitingCount="0" stopTime="0.00" timeLoss="19.07" rerouteNo="0" devices="tripinfo_flow_route_127_duration_20250327_2220.2" vType="car" speedFactor="1.05" vaporized=""/>
    <tripinfo id="flow_route_127_duration_20250327_2220.5" depart="24.00" departLane="-138000461_0" departPos="201.80" departSpeed="0.00" departDelay="2.58" arrival="44.00" arrivalLane="189240000#0-AddedOnRampEdge_0" arrivalPos="88.28" arrivalSpeed="13.50" duration="20.00" routeLength="145.59" waitingTime="0.00" waitingCount="0" stopTime="0.00" timeLoss="9.35" rerouteNo="0" devices="tripinfo_flow_route_127_duration_20250327_2220.5" vType="car" speedFactor="0.83" vaporized=""/>
    <tripinfo id="flow_route_132_duration_20250327_2220.3" depart="13.00" departLane="714011134#0_0" departPos="34.92" departSpeed="0.00" departDelay="0.15" arrival="49.00" arrivalLane="189240000#0-AddedOnRampEdge_1" arrivalPos="2.82" arrivalSpeed="14.18" duration="36.00" routeLength="384.04" waitingTime="0.00" waitingCount="0" stopTime="0.00" timeLoss="9.23" rerouteNo="0" devices="tripinfo_flow_route_132_duration_20250327_2220.3" vType="car" speedFactor="0.88" vaporized=""/>
    <tripinfo id="flow_route_127_duration_20250327_2220.3" depart="14.00" departLane="-138000461_0" departPos="27.34" departSpeed="0.00" departDelay="1.15" arrival="51.00" arrivalLane="189240000#0-AddedOnRampEdge_0" arrivalPos="90.31" arrivalSpeed="14.58" duration="37.00" routeLength="322.08" waitingTime="0.00" waitingCount="0" stopTime="0.00" timeLoss="15.26" rerouteNo="0" devices="tripinfo_flow_route_127_duration_20250327_2220.3" vType="car" speedFactor="0.93" vaporized=""/>
    <tripinfo id="flow_route_126_duration_20250327_2220.0" depart="0.00" departLane="-138000461_0" departPos="119.67" departSpeed="0.00" departDelay="0.00" arrival="52.00" arrivalLane="138000492#0_1" arrivalPos="18.35" arrivalSpeed="13.69" duration="52.00" routeLength="582.25" waitingTime="0.00" waitingCount="0" stopTime="0.00" timeLoss="9.14" rerouteNo="0" devices="tripinfo_flow_route_126_duration_20250327_2220.0" vType="car" speedFactor="0.83" vaporized=""/>
    <tripinfo id="flow_route_132_duration_20250327_2220.2" depart="9.00" departLane="714011134#0_0" departPos="3.42" departSpeed="0.00" departDelay="0.43" arrival="52.00" arrivalLane="189240000#0-AddedOnRampEdge_2" arrivalPos="51.39" arrivalSpeed="16.11" duration="43.00" routeLength="464.11" waitingTime="0.00" waitingCount="0" stopTime="0.00" timeLoss="14.48" rerouteNo="0" devices="tripinfo_flow_route_132_duration_20250327_2220.2" vType="car" speedFactor="1.12" vaporized=""/>
    <tripinfo id="flow_route_131_duration_20250327_2220.1" depart="32.00" departLane="714011134#0_0" departPos="76.08" departSpeed="0.00" departDelay="2.00" arrival="52.00" arrivalLane="134194079#0_0" arrivalPos="52.80" arrivalSpeed="14.76" duration="20.00" routeLength="142.68" waitingTime="0.00" waitingCount="0" stopTime="0.00" timeLoss="10.85" rerouteNo="0" devices="tripinfo_flow_route_131_duration_20250327_2220.1" vType="car" speedFactor="1.01" vaporized=""/>
    <tripinfo id="flow_route_132_duration_20250327_2220.4" depart="18.00" departLane="714011134#0_0" departPos="25.44" departSpeed="0.00" departDelay="0.86" arrival="54.00" arrivalLane="189240000#0-AddedOnRampEdge_1" arrivalPos="15.86" arrivalSpeed="16.26" duration="36.00" routeLength="406.56" waitingTime="0.00" waitingCount="0" stopTime="0.00" timeLoss="10.62" rerouteNo="0" devices="tripinfo_flow_route_132_duration_20250327_2220.4" vType="car" speedFactor="1.02" vaporized=""/>
    <tripinfo id="flow_route_121_duration_20250327_2220.2" depart="20.00" departLane="799091563#0_0" departPos="226.40" departSpeed="0.00" departDelay="0.00" arrival="57.00" arrivalLane="134194079#0_0" arrivalPos="26.26" arrivalSpeed="7.18" duration="37.00" routeLength="189.02" waitingTime="6.00" waitingCount="1" stopTime="0.00" timeLoss="24.25" rerouteNo="0" devices="tripinfo_flow_route_121_duration_20250327_2220.2" vType="car" speedFactor="0.97" vaporized=""/>
    <tripinfo id="flow_route_133_duration_20250327_2220.0" depart="0.00" departLane="714011134#0_0" departPos="33.93" departSpeed="0.00" departDelay="0.00" arrival="59.00" arrivalLane="138000492#0_0" arrivalPos="313.58" arrivalSpeed="14.16" duration="59.00" routeLength="604.48" waitingTime="0.00" waitingCount="0" stopTime="0.00" timeLoss="16.06" rerouteNo="0" devices="tripinfo_flow_route_133_duration_20250327_2220.0" vType="car" speedFactor="0.86" vaporized=""/>
    <tripinfo id="flow_route_127_duration_20250327_2220.8" depart="35.00" departLane="-138000461_0" departPos="108.37" departSpeed="0.00" departDelay="0.72" arrival="60.00" arrivalLane="189240000#0-AddedOnRampEdge_0" arrivalPos="39.96" arrivalSpeed="11.98" duration="25.00" routeLength="190.69" waitingTime="0.00" waitingCount="0" stopTime="0.00" timeLoss="13.11" rerouteNo="0" devices="tripinfo_flow_route_127_duration_20250327_2220.8" vType="car" speedFactor="1.02" vaporized=""/>
    <tripinfo id="flow_route_127_duration_20250327_2220.6" depart="26.00" departLane="-138000461_0" departPos="32.09" departSpeed="0.00" departDelay="0.29" arrival="61.00" arrivalLane="189240000#0-AddedOnRampEdge_0" arrivalPos="17.31" arrivalSpeed="9.72" duration="35.00" routeLength="244.33" waitingTime="0.00" waitingCount="0" stopTime="0.00" timeLoss="18.60" rerouteNo="0" devices="tripinfo_flow_route_127_duration_20250327_2220.6" vType="car" speedFactor="0.92" vaporized=""/>
    <tripinfo id="flow_route_117_duration_20250327_2220.0" depart="0.00" departLane="177211987#1_0" departPos="98.51" departSpeed="0.00" departDelay="0.00" arrival="62.00" arrivalLane="138000492#0_0" arrivalPos="299.85" arrivalSpeed="15.54" duration="62.00" routeLength="701.60" waitingTime="0.00" waitingCount="0" stopTime="0.00" timeLoss="16.66" rerouteNo="0" devices="tripinfo_flow_route_117_duration_20250327_2220.0" vType="car" speedFactor="0.94" vaporized=""/>
    <tripinfo id="flow_route_127_duration_20250327_2220.7" depart="31.00" departLane="-138000461_0" departPos="9.90" departSpeed="0.00" departDelay="1.01" arrival="62.00" arrivalLane="189240000#0-AddedOnRampEdge_0" arrivalPos="6.32" arrivalSpeed="9.93" duration="31.00" routeLength="255.53" waitingTime="0.00" waitingCount="0" stopTime="0.00" timeLoss="14.95" rerouteNo="0" devices="tripinfo_flow_route_127_duration_20250327_2220.7" vType="car" speedFactor="1.15" vaporized=""/>
    <tripinfo id="flow_route_121_duration_20250327_2220.1" depart="11.00" departLane="799091563#0_0" departPos="60.42" departSpeed="0.00" departDelay="1.00" arrival="68.00" arrivalLane="134194079#0_0" arrivalPos="89.03" arrivalSpeed="13.21" duration="57.00" routeLength="417.77" waitingTime="0.00" waitingCount="0" stopTime="0.00" timeLoss="29.98" rerouteNo="0" devices="tripinfo_flow_route_121_duration_20250327_2220.1" vType="car" speedFactor="0.99" vaporized=""/>
    <tripinfo id="flow_route_127_duration_20250327_2220.11" depart="53.00" departLane="-138000461_0" departPos="125.25" departSpeed="0.00" departDelay="5.87" arrival="73.00" arrivalLane="189240000#0-AddedOnRampEdge_0" arrivalPos="4.02" arrivalSpeed="9.19" duration="20.00" routeLength="137.88" waitingTime="0.00" waitingCount="0" stopTime="0.00" timeLoss="11.19" rerouteNo="0" devices="tripinfo_flow_route_127_duration_20250327_2220.11" vType="car" speedFactor="1.00" vaporized=""/>
    <tripinfo id="flow_route_132_duration_20250327_2220.5" depart="23.00" departLane="714011134#0_0" departPos="17.75" departSpeed="0.00" departDelay="1.58" arrival="74.00" arrivalLane="189240000#0-AddedOnRampEdge_1" arrivalPos="90.63" arrivalSpeed="14.14" duration="51.00" routeLength="489.02" waitingTime="0.00" waitingCount="0" stopTime="0.00" timeLoss="17.30" rerouteNo="0" devices="tripinfo_flow_route_132_duration_20250327_2220.5" vType="car" speedFactor="0.87" vaporized=""/>
    <tripinfo id="flow_route_132_duration_20250327_2220.6" depart="26.00" departLane="714011134#0_0" departPos="2.93" departSpeed="0.00" departDelay="0.29" arrival="74.00" arrivalLane="189240000#0-AddedOnRampEdge_1" arrivalPos="60.58" arrivalSpeed="15.35" duration="48.00" routeLength="473.78" waitingTime="0.00" waitingCount="0" stopTime="0.00" timeLoss="17.87" rerouteNo="0" devices="tripinfo_flow_route_132_duration_20250327_2220.6" vType="car" speedFactor="0.95" vaporized=""/>
    <tripinfo id="flow_route_132_duration_20250327_2220.7" depart="32.00" departLane="714011134#0_0" departPos="37.08" departSpeed="0.00" departDelay="2.01" arrival="74.00" arrivalLane="189240000#0-AddedOnRampEdge_2" arrivalPos="93.68" arrivalSpeed="16.39" duration="42.00" routeLength="472.74" waitingTime="0.00" waitingCount="0" stopTime="0.00" timeLoss="13.04" rerouteNo="0" devices="tripinfo_flow_route_132_duration_20250327_2220.7" vType="car" speedFactor="1.17" vaporized=""/>
    <tripinfo id="flow_route_127_duration_20250327_2220.13" depart="56.00" departLane="-138000461_0" departPos="199.66" departSpeed="0.00" departDelay="0.30" arrival="74.00" arrivalLane="189240000#0-AddedOnRampEdge_0" arrivalPos="60.53" arrivalSpeed="13.70" duration="18.00" routeLength="119.98" waitingTime="0.00" waitingCount="0" stopTime="0.00" timeLoss="9.87" rerouteNo="0" devices="tripinfo_flow_route_127_duration_20250327_2220.13" vType="car" speedFactor="1.17" vaporized=""/>
    <tripinfo id="flow_route_127_duration_20250327_2220.12" depart="54.00" departLane="-138000461_0" departPos="181.02" departSpeed="0.00" departDelay="2.58" arrival="76.00" arrivalLane="189240000#0-AddedOnRampEdge_0" arrivalPos="55.62" arrivalSpeed="13.05" duration="22.00" routeLength="133.71" waitingTime="0.00" waitingCount="0" stopTime="0.00" timeLoss="11.88" rerouteNo="0" devices="tripinfo_flow_route_127_duration_20250327_2220.12" vType="car" speedFactor="0.85" vaporized=""/>
    <tripinfo id="flow_route_121_duration_20250327_2220.3" depart="30.00" departLane="799091563#0_0" departPos="215.36" departSpeed="0.00" departDelay="0.00" arrival="77.00" arrivalLane="134194079#0_0" arrivalPos="273.81" arrivalSpeed="16.36" duration="47.00" routeLength="447.61" waitingTime="0.00" waitingCount="0" stopTime="0.00" timeLoss="18.86" rerouteNo="0" devices="tripinfo_flow_route_121_duration_20250327_2220.3" vType="car" speedFactor="1.18" vaporized=""/>
    <tripinfo id="flow_route_132_duration_20250327_2220.8" depart="39.00" departLane="714011134#0_0" departPos="31.91" departSpeed="0.00" departDelay="4.72" arrival="78.00" arrivalLane="189240000#0-AddedOnRampEdge_1" arrivalPos="58.07" arrivalSpeed="16.13" duration="39.00" routeLength="442.31" waitingTime="0.00" waitingCount="0" stopTime="0.00" timeLoss="10.88" rerouteNo="0" devices="tripinfo_flow_route_132_duration_20250327_2220.8" vType="car" speedFactor="0.97" vaporized=""/>
    <tripinfo id="flow_route_127_duration_20250327_2220.10" depart="45.00" departLane="-138000461_0" departPos="26.27" departSpeed="0.00" departDelay="2.15" arrival="80.00" arrivalLane="189240000#0-AddedOnRampEdge_0" arrivalPos="38.81" arrivalSpeed="11.91" duration="35.00" routeLength="271.65" waitingTime="0.00" waitingCount="0" stopTime="0.00" timeLoss="17.66" rerouteNo="0" devices="tripinfo_flow_route_127_duration_20250327_2220.10" vType="car" speedFactor="1.09" vaporized=""/>
    <tripinfo id="flow_route_133_duration_20250327_2220.1" depart="37.00" departLane="714011134#0_0" departPos="61.65" departSpeed="0.00" departDelay="7.00" arrival="81.00" arrivalLane="138000492#0_1" arrivalPos="132.09" arrivalSpeed="16.34" duration="44.00" routeLength="395.27" waitingTime="0.00" waitingCount="0" stopTime="0.00" timeLoss="18.42" rerouteNo="0" devices="tripinfo_flow_route_133_duration_20250327_2220.1" vType="car" speedFactor="0.99" vaporized=""/>
    <tripinfo id="flow_route_127_duration_20250327_2220.9" depart="39.00" departLane="-138000461_0" departPos="22.13" departSpeed="0.00" departDelay="0.44" arrival="82.00" arrivalLane="189240000#0-AddedOnRampEdge_0" arrivalPos="92.22" arrivalSpeed="15.39" duration="43.00" routeLength="329.20" waitingTime="0.00" waitingCount="0" stopTime="0.00" timeLoss="22.09" rerouteNo="0" devices="tripinfo_flow_route_127_duration_20250327_2220.9" vType="car" speedFactor="1.18" vaporized=""/>
    <tripinfo id="flow_route_132_duration_20250327_2220.9" depart="47.00" departLane="714011134#0_0" departPos="39.16" departSpeed="0.00" departDelay="8.44" arrival="82.00" arrivalLane="189240000#0-AddedOnRampEdge_1" arrivalPos="2.25" arrivalSpeed="16.56" duration="35.00" routeLength="379.23" waitingTime="0.00" waitingCount="0" stopTime="0.00" timeLoss="11.85" rerouteNo="0" devices="tripinfo_flow_route_132_duration_20250327_2220.9" vType="car" speedFactor="1.10" vaporized=""/>
    <tripinfo id="flow_route_132_duration_20250327_2220.10" depart="47.00" departLane="714011134#0_0" departPos="50.59" departSpeed="0.00" departDelay="4.15" arrival="82.00" arrivalLane="189240000#0-AddedOnRampEdge_1" arrivalPos="32.37" arrivalSpeed="16.49" duration="35.00" routeLength="397.92" waitingTime="0.00" waitingCount="0" stopTime="0.00" timeLoss="10.47" rerouteNo="0" devices="tripinfo_flow_route_132_duration_20250327_2220.10" vType="car" speedFactor="1.04" vaporized=""/>
    <tripinfo id="flow_route_122_duration_20250327_2220.1" depart="20.00" departLane="799091563#0_0" departPos="262.62" departSpeed="0.00" departDelay="0.00" arrival="93.00" arrivalLane="688883939#0_2" arrivalPos="70.44" arrivalSpeed="14.27" duration="73.00" routeLength="246.46" waitingTime="36.00" waitingCount="1" stopTime="0.00" timeLoss="55.84" rerouteNo="0" devices="tripinfo_flow_route_122_duration_20250327_2220.1" vType="car" speedFactor="0.89" vaporized=""/>
    <tripinfo id="flow_route_122_duration_20250327_2220.0" depart="1.00" departLane="799091563#0_0" departPos="17.54" departSpeed="0.00" departDelay="1.00" arrival="94.00" arrivalLane="688883939#0_2" arrivalPos="62.20" arrivalSpeed="13.42" duration="93.00" routeLength="483.30" waitingTime="34.00" waitingCount="1" stopTime="0.00" timeLoss="63.79" rerouteNo="0" devices="tripinfo_flow_route_122_duration_20250327_2220.0" vType="car" speedFactor="1.03" vaporized=""/>
    <tripinfo id="flow_route_122_duration_20250327_2220.2" depart="40.00" departLane="799091563#0_0" departPos="331.81" departSpeed="0.00" departDelay="0.00" arrival="95.00" arrivalLane="688883939#0_2" arrivalPos="51.94" arrivalSpeed="13.88" duration="55.00" routeLength="158.77" waitingTime="24.00" waitingCount="1" stopTime="0.00" timeLoss="44.79" rerouteNo="0" devices="tripinfo_flow_route_122_duration_20250327_2220.2" vType="car" speedFactor="0.96" vaporized=""/>
    <tripinfo id="flow_route_132_duration_20250327_2220.13" depart="56.00" departLane="714011134#0_0" departPos="57.88" departSpeed="0.00" departDelay="0.30" arrival="95.00" arrivalLane="189240000#0-AddedOnRampEdge_1" arrivalPos="77.52" arrivalSpeed="16.32" duration="39.00" routeLength="435.78" waitingTime="0.00" waitingCount="0" stopTime="0.00" timeLoss="12.50" rerouteNo="0" devices="tripinfo_flow_route_132_duration_20250327_2220.13" vType="car" speedFactor="1.02" vaporized=""/>
    <tripinfo id="flow_route_132_duration_20250327_2220.11" depart="49.00" departLane="714011134#0_0" departPos="16.18" departSpeed="0.00" departDelay="1.87" arrival="96.00" arrivalLane="189240000#0-AddedOnRampEdge_1" arrivalPos="36.88" arrivalSpeed="14.91" duration="47.00" routeLength="436.84" waitingTime="0.00" waitingCount="0" stopTime="0.00" timeLoss="17.18" rerouteNo="0" devices="tripinfo_flow_route_132_duration_20250327_2220.11" vType="car" speedFactor="0.90" vaporized=""/>
    <tripinfo id="flow_route_121_duration_20250327_2220.5" depart="50.00" departLane="799091563#0_0" departPos="251.87" departSpeed="0.00" departDelay="0.00" arrival="105.00" arrivalLane="134194079#0_0" arrivalPos="266.82" arrivalSpeed="14.48" duration="55.00" routeLength="404.11" waitingTime="5.00" waitingCount="1" stopTime="0.00" timeLoss="25.89" rerouteNo="0" devices="tripinfo_flow_route_121_duration_20250327_2220.5" vType="car" speedFactor="0.88" vaporized=""/>
    <tripinfo id="flow_route_121_duration_20250327_2220.4" depart="40.00" departLane="799091563#0_0" departPos="173.07" departSpeed="0.00" departDelay="0.00" arrival="108.00" arrivalLane="134194079#0_0" arrivalPos="272.87" arrivalSpeed="16.44" duration="68.00" routeLength="488.96" waitingTime="4.00" waitingCount="1" stopTime="0.00" timeLoss="36.39" rerouteNo="0" devices="tripinfo_flow_route_121_duration_20250327_2220.4" vType="car" speedFactor="1.03" vaporized=""/>
    <tripinfo id="flow_route_120_duration_20250327_2220.0" depart="0.00" departLane="799091563#0_0" departPos="177.01" departSpeed="0.00" departDelay="0.00" arrival="109.00" arrivalLane="138000492#0_1" arrivalPos="19.14" arrivalSpeed="11.26" duration="109.00" routeLength="440.29" waitingTime="50.00" waitingCount="2" stopTime="0.00" timeLoss="81.85" rerouteNo="0" devices="tripinfo_flow_route_120_duration_20250327_2220.0" vType="car" speedFactor="1.01" vaporized=""/>
    <tripinfo id="flow_route_120_duration_20250327_2220.1" depart="15.00" departLane="799091563#0_0" departPos="100.27" departSpeed="0.00" departDelay="0.00" arrival="116.00" arrivalLane="138000492#0_1" arrivalPos="173.11" arrivalSpeed="15.21" duration="101.00" routeLength="671.00" waitingTime="24.00" waitingCount="2" stopTime="0.00" timeLoss="57.40" rerouteNo="0" devices="tripinfo_flow_route_120_duration_20250327_2220.1" vType="car" speedFactor="0.94" vaporized=""/>
    <tripinfo id="flow_route_120_duration_20250327_2220.3" depart="45.00" departLane="799091563#0_0" departPos="53.60" departSpeed="0.00" departDelay="0.00" arrival="120.00" arrivalLane="138000492#0_1" arrivalPos="118.34" arrivalSpeed="16.45" duration="75.00" routeLength="662.90" waitingTime="0.00" waitingCount="0" stopTime="0.00" timeLoss="34.58" rerouteNo="0" devices="tripinfo_flow_route_120_duration_20250327_2220.3" vType="car" speedFactor="1.09" vaporized=""/>
    <tripinfo id="flow_route_120_duration_20250327_2220.2" depart="30.00" departLane="799091563#0_0" departPos="32.66" departSpeed="0.00" departDelay="0.00" arrival="126.00" arrivalLane="138000492#0_1" arrivalPos="230.10" arrivalSpeed="15.46" duration="96.00" routeLength="795.60" waitingTime="10.00" waitingCount="1" stopTime="0.00" timeLoss="44.75" rerouteNo="0" devices="tripinfo_flow_route_120_duration_20250327_2220.2" vType="car" speedFactor="0.93" vaporized=""/>
    <tripinfo id="flow_route_116_duration_20250327_2220.2" depart="30.00" departLane="177211987#1_0" departPos="49.62" departSpeed="0.00" departDelay="0.00" arrival="165.00" arrivalLane="688883939#0_0" arrivalPos="29.40" arrivalSpeed="11.30" duration="135.00" routeLength="334.80" waitingTime="90.00" waitingCount="1" stopTime="0.00" timeLoss="114.40" rerouteNo="0" devices="tripinfo_flow_route_116_duration_20250327_2220.2" vType="car" speedFactor="1.13" vaporized=""/>
    <tripinfo id="flow_route_116_duration_20250327_2220.3" depart="45.00" departLane="177211987#1_0" departPos="104.40" departSpeed="0.00" departDelay="0.00" arrival="168.00" arrivalLane="688883939#0_2" arrivalPos="82.34" arrivalSpeed="14.71" duration="123.00" routeLength="332.96" waitingTime="78.00" waitingCount="1" stopTime="0.00" timeLoss="102.12" rerouteNo="0" devices="tripinfo_flow_route_116_duration_20250327_2220.3" vType="car" speedFactor="1.04" vaporized=""/>
    <tripinfo id="flow_route_132_duration_20250327_2220.12" depart="53.00" departLane="714011134#0_0" departPos="10.84" departSpeed="0.00" departDelay="1.58" arrival="182.00" arrivalLane="189240000#0-AddedOnRampEdge_1" arrivalPos="26.18" arrivalSpeed="14.11" duration="129.00" routeLength="431.48" waitingTime="75.00" waitingCount="1" stopTime="0.00" timeLoss="98.20" rerouteNo="0" devices="tripinfo_flow_route_132_duration_20250327_2220.12" vType="car" speedFactor="0.85" vaporized=""/>
    <tripinfo id="flow_route_117_duration_20250327_2220.2" depart="41.00" departLane="177211987#1_0" departPos="142.20" departSpeed="0.00" departDelay="1.00" arrival="194.00" arrivalLane="138000492#0_2" arrivalPos="263.12" arrivalSpeed="14.92" duration="153.00" routeLength="621.19" waitingTime="86.00" waitingCount="1" stopTime="0.00" timeLoss="111.27" rerouteNo="0" devices="tripinfo_flow_route_117_duration_20250327_2220.2" vType="car" speedFactor="0.90" vaporized=""/>
    <tripinfo id="flow_route_117_duration_20250327_2220.1" depart="20.00" departLane="177211987#1_0" departPos="104.74" departSpeed="0.00" departDelay="0.00" arrival="200.00" arrivalLane="138000492#0_0" arrivalPos="341.60" arrivalSpeed="16.37" duration="180.00" routeLength="737.12" waitingTime="103.00" waitingCount="1" stopTime="0.00" timeLoss="134.41" rerouteNo="0" devices="tripinfo_flow_route_117_duration_20250327_2220.1" vType="car" speedFactor="1.01" vaporized=""/>
</tripinfos>
