<?xml version="1.0" encoding="UTF-8"?>

<!-- generated on 2025-05-06 21:08:15 by Eclipse SUMO sumo Version 1.20.0
<configuration xmlns:xsi="http://www.w3.org/2001/XMLSchema-instance" xsi:noNamespaceSchemaLocation="http://sumo.dlr.de/xsd/sumoConfiguration.xsd">

    <input>
        <net-file value="osm.net.xml"/>
        <route-files value="xml/route_static_11644940310_3.rou.xml"/>
    </input>

    <output>
        <tripinfo-output value="xml/tripinfo_static_11644940310_3.xml"/>
    </output>

    <traci_server>
        <remote-port value="33885"/>
    </traci_server>

</configuration>
-->

<tripinfos xmlns:xsi="http://www.w3.org/2001/XMLSchema-instance" xsi:noNamespaceSchemaLocation="http://sumo.dlr.de/xsd/tripinfo_file.xsd">
    <tripinfo id="flow_route_27_duration_20250327_2020.0" depart="0.00" departLane="1254771874#0_0" departPos="190.47" departSpeed="0.00" departDelay="0.00" arrival="15.00" arrivalLane="138002006#0_1" arrivalPos="4.04" arrivalSpeed="9.09" duration="15.00" routeLength="85.46" waitingTime="0.00" waitingCount="0" stopTime="0.00" timeLoss="8.79" rerouteNo="0" devices="tripinfo_flow_route_27_duration_20250327_2020.0" vType="car" speedFactor="1.01" vaporized=""/>
    <tripinfo id="flow_route_25_duration_20250327_2020.1" depart="9.00" departLane="1254771874#0_0" departPos="244.52" departSpeed="0.00" departDelay="0.43" arrival="19.00" arrivalLane="1341093415#0_0" arrivalPos="5.78" arrivalSpeed="7.63" duration="10.00" routeLength="39.03" waitingTime="0.00" waitingCount="0" stopTime="0.00" timeLoss="7.47" rerouteNo="0" devices="tripinfo_flow_route_25_duration_20250327_2020.1" vType="car" speedFactor="1.12" vaporized=""/>
    <tripinfo id="flow_route_26_duration_20250327_2020.1" depart="6.00" departLane="1254771874#0_0" departPos="226.89" departSpeed="0.00" departDelay="0.55" arrival="29.00" arrivalLane="-422986370#2_0" arrivalPos="91.98" arrivalSpeed="12.38" duration="23.00" routeLength="129.69" waitingTime="0.00" waitingCount="0" stopTime="0.00" timeLoss="12.90" rerouteNo="0" devices="tripinfo_flow_route_26_duration_20250327_2020.1" vType="car" speedFactor="0.86" vaporized=""/>
    <tripinfo id="flow_route_50_duration_20250327_2020.0" depart="0.00" departLane="-138002006#3_0" departPos="41.39" departSpeed="0.00" departDelay="0.00" arrival="35.00" arrivalLane="-422986370#2_0" arrivalPos="13.06" arrivalSpeed="7.44" duration="35.00" routeLength="82.72" waitingTime="13.00" waitingCount="1" stopTime="0.00" timeLoss="28.59" rerouteNo="0" devices="tripinfo_flow_route_50_duration_20250327_2020.0" vType="car" speedFactor="0.83" vaporized=""/>
    <tripinfo id="flow_route_41_duration_20250327_2020.0" depart="0.00" departLane="1369578054_0" departPos="201.66" departSpeed="0.00" departDelay="0.00" arrival="39.00" arrivalLane="138002006#0_0" arrivalPos="52.37" arrivalSpeed="11.04" duration="39.00" routeLength="172.64" waitingTime="8.00" waitingCount="1" stopTime="0.00" timeLoss="28.22" rerouteNo="0" devices="tripinfo_flow_route_41_duration_20250327_2020.0" vType="car" speedFactor="1.03" vaporized=""/>
    <tripinfo id="flow_route_41_duration_20250327_2020.4" depart="14.00" departLane="1369578054_0" departPos="243.22" departSpeed="0.00" departDelay="2.57" arrival="39.00" arrivalLane="138002006#0_0" arrivalPos="23.44" arrivalSpeed="9.24" duration="25.00" routeLength="102.15" waitingTime="0.00" waitingCount="0" stopTime="0.00" timeLoss="18.32" rerouteNo="0" devices="tripinfo_flow_route_41_duration_20250327_2020.4" vType="car" speedFactor="1.02" vaporized=""/>
    <tripinfo id="flow_route_26_duration_20250327_2020.0" depart="0.00" departLane="1254771874#0_0" departPos="139.38" departSpeed="0.00" departDelay="0.00" arrival="40.00" arrivalLane="-422986370#2_0" arrivalPos="213.43" arrivalSpeed="15.21" duration="40.00" routeLength="338.64" waitingTime="0.00" waitingCount="0" stopTime="0.00" timeLoss="17.22" rerouteNo="0" devices="tripinfo_flow_route_26_duration_20250327_2020.0" vType="car" speedFactor="0.94" vaporized=""/>
    <tripinfo id="flow_route_41_duration_20250327_2020.5" depart="17.00" departLane="1369578054_0" departPos="287.64" departSpeed="0.00" departDelay="2.72" arrival="40.00" arrivalLane="138002006#0_1" arrivalPos="59.31" arrivalSpeed="11.16" duration="23.00" routeLength="93.60" waitingTime="2.00" waitingCount="1" stopTime="0.00" timeLoss="17.07" rerouteNo="0" devices="tripinfo_flow_route_41_duration_20250327_2020.5" vType="car" speedFactor="0.97" vaporized=""/>
    <tripinfo id="flow_route_41_duration_20250327_2020.3" depart="9.00" departLane="1369578054_0" departPos="205.27" departSpeed="0.00" departDelay="0.43" arrival="43.00" arrivalLane="138002006#0_1" arrivalPos="67.86" arrivalSpeed="12.32" duration="34.00" routeLength="184.52" waitingTime="0.00" waitingCount="0" stopTime="0.00" timeLoss="21.48" rerouteNo="0" devices="tripinfo_flow_route_41_duration_20250327_2020.3" vType="car" speedFactor="0.93" vaporized=""/>
    <tripinfo id="flow_route_41_duration_20250327_2020.1" depart="5.00" departLane="1369578054_0" departPos="153.71" departSpeed="0.00" departDelay="2.14" arrival="46.00" arrivalLane="138002006#0_1" arrivalPos="77.73" arrivalSpeed="12.64" duration="41.00" routeLength="245.95" waitingTime="0.00" waitingCount="0" stopTime="0.00" timeLoss="25.00" rerouteNo="0" devices="tripinfo_flow_route_41_duration_20250327_2020.1" vType="car" speedFactor="0.94" vaporized=""/>
    <tripinfo id="flow_route_41_duration_20250327_2020.7" depart="20.00" departLane="1369578054_0" departPos="94.05" departSpeed="0.00" departDelay="0.00" arrival="46.00" arrivalLane="138002006#0_1" arrivalPos="15.89" arrivalSpeed="16.48" duration="26.00" routeLength="243.77" waitingTime="0.00" waitingCount="0" stopTime="0.00" timeLoss="10.36" rerouteNo="0" devices="tripinfo_flow_route_41_duration_20250327_2020.7" vType="car" speedFactor="1.18" vaporized=""/>
    <tripinfo id="flow_route_41_duration_20250327_2020.2" depart="6.00" departLane="1369578054_0" departPos="70.93" departSpeed="0.00" departDelay="0.29" arrival="48.00" arrivalLane="138002006#0_0" arrivalPos="73.17" arrivalSpeed="13.18" duration="42.00" routeLength="324.17" waitingTime="0.00" waitingCount="0" stopTime="0.00" timeLoss="21.87" rerouteNo="0" devices="tripinfo_flow_route_41_duration_20250327_2020.2" vType="car" speedFactor="1.05" vaporized=""/>
    <tripinfo id="flow_route_40_duration_20250327_2020.0" depart="0.00" departLane="1369578054_0" departPos="1.81" departSpeed="0.00" departDelay="0.00" arrival="50.00" arrivalLane="1341093415#0_0" arrivalPos="87.60" arrivalSpeed="13.89" duration="50.00" routeLength="396.71" waitingTime="0.00" waitingCount="0" stopTime="0.00" timeLoss="24.68" rerouteNo="0" devices="tripinfo_flow_route_40_duration_20250327_2020.0" vType="car" speedFactor="1.08" vaporized=""/>
    <tripinfo id="flow_route_40_duration_20250327_2020.3" depart="18.00" departLane="1369578054_0" departPos="45.49" departSpeed="0.00" departDelay="0.00" arrival="51.00" arrivalLane="1341093415#0_0" arrivalPos="30.02" arrivalSpeed="9.58" duration="33.00" routeLength="295.44" waitingTime="0.00" waitingCount="0" stopTime="0.00" timeLoss="13.00" rerouteNo="0" devices="tripinfo_flow_route_40_duration_20250327_2020.3" vType="car" speedFactor="0.92" vaporized=""/>
    <tripinfo id="flow_route_40_duration_20250327_2020.1" depart="6.00" departLane="1369578054_0" departPos="163.10" departSpeed="0.00" departDelay="0.00" arrival="52.00" arrivalLane="1341093415#0_0" arrivalPos="167.37" arrivalSpeed="16.39" duration="46.00" routeLength="315.20" waitingTime="0.00" waitingCount="0" stopTime="0.00" timeLoss="25.82" rerouteNo="0" devices="tripinfo_flow_route_40_duration_20250327_2020.1" vType="car" speedFactor="1.03" vaporized=""/>
    <tripinfo id="flow_route_41_duration_20250327_2020.6" depart="18.00" departLane="1369578054_0" departPos="8.34" departSpeed="0.00" departDelay="0.86" arrival="54.00" arrivalLane="138002006#0_1" arrivalPos="84.77" arrivalSpeed="15.58" duration="36.00" routeLength="398.36" waitingTime="0.00" waitingCount="0" stopTime="0.00" timeLoss="10.06" rerouteNo="0" devices="tripinfo_flow_route_41_duration_20250327_2020.6" vType="car" speedFactor="0.95" vaporized=""/>
    <tripinfo id="flow_route_40_duration_20250327_2020.2" depart="12.00" departLane="1369578054_0" departPos="50.33" departSpeed="0.00" departDelay="0.00" arrival="57.00" arrivalLane="1341093415#0_0" arrivalPos="171.92" arrivalSpeed="16.10" duration="45.00" routeLength="432.52" waitingTime="0.00" waitingCount="0" stopTime="0.00" timeLoss="17.59" rerouteNo="0" devices="tripinfo_flow_route_40_duration_20250327_2020.2" vType="car" speedFactor="1.16" vaporized=""/>
    <tripinfo id="flow_route_51_duration_20250327_2020.1" depart="9.00" departLane="-138002006#3_0" departPos="29.41" departSpeed="0.00" departDelay="0.43" arrival="60.00" arrivalLane="1341093415#0_3" arrivalPos="28.36" arrivalSpeed="8.39" duration="51.00" routeLength="102.63" waitingTime="20.00" waitingCount="2" stopTime="0.00" timeLoss="43.10" rerouteNo="0" devices="tripinfo_flow_route_51_duration_20250327_2020.1" vType="car" speedFactor="0.88" vaporized=""/>
    <tripinfo id="flow_route_51_duration_20250327_2020.2" depart="18.00" departLane="-138002006#3_0" departPos="24.76" departSpeed="0.00" departDelay="0.86" arrival="63.00" arrivalLane="1341093415#0_3" arrivalPos="32.68" arrivalSpeed="9.96" duration="45.00" routeLength="111.61" waitingTime="17.00" waitingCount="1" stopTime="0.00" timeLoss="37.03" rerouteNo="0" devices="tripinfo_flow_route_51_duration_20250327_2020.2" vType="car" speedFactor="1.13" vaporized=""/>
    <tripinfo id="flow_route_51_duration_20250327_2020.0" depart="2.00" departLane="-138002006#3_0" departPos="23.48" departSpeed="0.00" departDelay="2.00" arrival="67.00" arrivalLane="1341093415#0_3" arrivalPos="132.48" arrivalSpeed="14.17" duration="65.00" routeLength="212.67" waitingTime="28.00" waitingCount="2" stopTime="0.00" timeLoss="51.48" rerouteNo="0" devices="tripinfo_flow_route_51_duration_20250327_2020.0" vType="car" speedFactor="1.05" vaporized=""/>
    <tripinfo id="flow_route_27_duration_20250327_2020.5" depart="15.00" departLane="1254771874#0_0" departPos="182.91" departSpeed="0.00" departDelay="0.72" arrival="73.00" arrivalLane="138002006#0_1" arrivalPos="7.90" arrivalSpeed="7.40" duration="58.00" routeLength="96.88" waitingTime="33.00" waitingCount="1" stopTime="0.00" timeLoss="50.96" rerouteNo="0" devices="tripinfo_flow_route_27_duration_20250327_2020.5" vType="car" speedFactor="1.01" vaporized=""/>
    <tripinfo id="flow_route_27_duration_20250327_2020.1" depart="3.00" departLane="1254771874#0_0" departPos="82.30" departSpeed="0.00" departDelay="0.14" arrival="75.00" arrivalLane="138002006#0_1" arrivalPos="5.35" arrivalSpeed="6.73" duration="72.00" routeLength="194.94" waitingTime="31.00" waitingCount="1" stopTime="0.00" timeLoss="59.09" rerouteNo="0" devices="tripinfo_flow_route_27_duration_20250327_2020.1" vType="car" speedFactor="0.89" vaporized=""/>
    <tripinfo id="flow_route_27_duration_20250327_2020.6" depart="19.00" departLane="1254771874#0_0" departPos="237.24" departSpeed="0.00" departDelay="1.86" arrival="76.00" arrivalLane="138002006#0_1" arrivalPos="51.49" arrivalSpeed="10.33" duration="57.00" routeLength="86.14" waitingTime="36.00" waitingCount="1" stopTime="0.00" timeLoss="49.89" rerouteNo="0" devices="tripinfo_flow_route_27_duration_20250327_2020.6" vType="car" speedFactor="0.87" vaporized=""/>
    <tripinfo id="flow_route_25_duration_20250327_2020.3" depart="26.00" departLane="1254771874#0_0" departPos="149.54" departSpeed="0.00" departDelay="0.29" arrival="78.00" arrivalLane="1341093415#0_1" arrivalPos="75.43" arrivalSpeed="12.75" duration="52.00" routeLength="203.67" waitingTime="17.00" waitingCount="1" stopTime="0.00" timeLoss="38.97" rerouteNo="0" devices="tripinfo_flow_route_25_duration_20250327_2020.3" vType="car" speedFactor="1.02" vaporized=""/>
    <tripinfo id="flow_route_26_duration_20250327_2020.2" depart="11.00" departLane="1254771874#0_0" departPos="32.05" departSpeed="0.00" departDelay="0.09" arrival="80.00" arrivalLane="-422986370#2_0" arrivalPos="38.75" arrivalSpeed="9.66" duration="69.00" routeLength="271.30" waitingTime="13.00" waitingCount="1" stopTime="0.00" timeLoss="51.02" rerouteNo="0" devices="tripinfo_flow_route_26_duration_20250327_2020.2" vType="car" speedFactor="0.94" vaporized=""/>
    <tripinfo id="flow_route_25_duration_20250327_2020.2" depart="19.00" departLane="1254771874#0_0" departPos="139.77" departSpeed="0.00" departDelay="1.86" arrival="80.00" arrivalLane="1341093415#0_1" arrivalPos="87.80" arrivalSpeed="12.03" duration="61.00" routeLength="225.81" waitingTime="25.00" waitingCount="1" stopTime="0.00" timeLoss="47.13" rerouteNo="0" devices="tripinfo_flow_route_25_duration_20250327_2020.2" vType="car" speedFactor="0.83" vaporized=""/>
    <tripinfo id="flow_route_25_duration_20250327_2020.5" depart="43.00" departLane="1254771874#0_0" departPos="2.98" departSpeed="0.00" departDelay="0.15" arrival="81.00" arrivalLane="1341093415#0_2" arrivalPos="83.82" arrivalSpeed="14.77" duration="38.00" routeLength="358.62" waitingTime="0.00" waitingCount="0" stopTime="0.00" timeLoss="15.93" rerouteNo="0" devices="tripinfo_flow_route_25_duration_20250327_2020.5" vType="car" speedFactor="1.14" vaporized=""/>
    <tripinfo id="flow_route_25_duration_20250327_2020.0" depart="0.00" departLane="1254771874#0_0" departPos="63.27" departSpeed="0.00" departDelay="0.00" arrival="84.00" arrivalLane="1341093415#0_0" arrivalPos="158.81" arrivalSpeed="15.97" duration="84.00" routeLength="373.33" waitingTime="36.00" waitingCount="1" stopTime="0.00" timeLoss="60.94" rerouteNo="0" devices="tripinfo_flow_route_25_duration_20250327_2020.0" vType="car" speedFactor="1.06" vaporized=""/>
    <tripinfo id="flow_route_27_duration_20250327_2020.14" depart="40.00" departLane="1254771874#0_0" departPos="226.79" departSpeed="0.00" departDelay="0.00" arrival="84.00" arrivalLane="138002006#0_1" arrivalPos="72.89" arrivalSpeed="13.06" duration="44.00" routeLength="117.99" waitingTime="21.00" waitingCount="1" stopTime="0.00" timeLoss="35.47" rerouteNo="0" devices="tripinfo_flow_route_27_duration_20250327_2020.14" vType="car" speedFactor="1.00" vaporized=""/>
    <tripinfo id="flow_route_27_duration_20250327_2020.8" depart="23.00" departLane="1254771874#0_0" departPos="184.53" departSpeed="0.00" departDelay="0.14" arrival="86.00" arrivalLane="138002006#0_1" arrivalPos="18.39" arrivalSpeed="10.09" duration="63.00" routeLength="105.75" waitingTime="31.00" waitingCount="3" stopTime="0.00" timeLoss="55.10" rerouteNo="0" devices="tripinfo_flow_route_27_duration_20250327_2020.8" vType="car" speedFactor="1.01" vaporized=""/>
    <tripinfo id="flow_route_27_duration_20250327_2020.2" depart="6.00" departLane="1254771874#0_0" departPos="101.37" departSpeed="0.00" departDelay="0.29" arrival="87.00" arrivalLane="138002006#0_1" arrivalPos="56.23" arrivalSpeed="12.44" duration="81.00" routeLength="226.75" waitingTime="34.00" waitingCount="2" stopTime="0.00" timeLoss="66.31" rerouteNo="0" devices="tripinfo_flow_route_27_duration_20250327_2020.2" vType="car" speedFactor="1.09" vaporized=""/>
    <tripinfo id="flow_route_25_duration_20250327_2020.4" depart="37.00" departLane="1254771874#0_0" departPos="110.14" departSpeed="0.00" departDelay="2.72" arrival="87.00" arrivalLane="1341093415#0_1" arrivalPos="157.21" arrivalSpeed="16.48" duration="50.00" routeLength="324.85" waitingTime="4.00" waitingCount="1" stopTime="0.00" timeLoss="29.50" rerouteNo="0" devices="tripinfo_flow_route_25_duration_20250327_2020.4" vType="car" speedFactor="1.00" vaporized=""/>
    <tripinfo id="flow_route_26_duration_20250327_2020.6" depart="33.00" departLane="1254771874#0_0" departPos="182.33" departSpeed="0.00" departDelay="0.28" arrival="88.00" arrivalLane="-422986370#2_0" arrivalPos="233.95" arrivalSpeed="16.51" duration="55.00" routeLength="316.22" waitingTime="15.00" waitingCount="1" stopTime="0.00" timeLoss="35.04" rerouteNo="0" devices="tripinfo_flow_route_26_duration_20250327_2020.6" vType="car" speedFactor="1.09" vaporized=""/>
    <tripinfo id="flow_route_25_duration_20250327_2020.6" depart="53.00" departLane="1254771874#0_0" departPos="103.10" departSpeed="0.00" departDelay="1.57" arrival="88.00" arrivalLane="1341093415#0_1" arrivalPos="151.64" arrivalSpeed="16.46" duration="35.00" routeLength="326.32" waitingTime="0.00" waitingCount="0" stopTime="0.00" timeLoss="14.63" rerouteNo="0" devices="tripinfo_flow_route_25_duration_20250327_2020.6" vType="car" speedFactor="1.04" vaporized=""/>
    <tripinfo id="flow_route_26_duration_20250327_2020.4" depart="23.00" departLane="1254771874#0_0" departPos="20.45" departSpeed="0.00" departDelay="1.18" arrival="89.00" arrivalLane="-422986370#2_0" arrivalPos="25.77" arrivalSpeed="9.16" duration="66.00" routeLength="269.92" waitingTime="7.00" waitingCount="1" stopTime="0.00" timeLoss="48.82" rerouteNo="0" devices="tripinfo_flow_route_26_duration_20250327_2020.4" vType="car" speedFactor="1.15" vaporized=""/>
    <tripinfo id="flow_route_27_duration_20250327_2020.4" depart="12.00" departLane="1254771874#0_0" departPos="57.04" departSpeed="0.00" departDelay="0.57" arrival="90.00" arrivalLane="138002006#0_1" arrivalPos="36.52" arrivalSpeed="11.46" duration="78.00" routeLength="251.37" waitingTime="29.00" waitingCount="2" stopTime="0.00" timeLoss="61.32" rerouteNo="0" devices="tripinfo_flow_route_27_duration_20250327_2020.4" vType="car" speedFactor="0.94" vaporized=""/>
    <tripinfo id="flow_route_26_duration_20250327_2020.8" depart="47.00" departLane="1254771874#0_0" departPos="184.85" departSpeed="0.00" departDelay="3.37" arrival="91.00" arrivalLane="-422986370#2_0" arrivalPos="123.37" arrivalSpeed="15.18" duration="44.00" routeLength="203.12" waitingTime="10.00" waitingCount="1" stopTime="0.00" timeLoss="31.10" rerouteNo="0" devices="tripinfo_flow_route_26_duration_20250327_2020.8" vType="car" speedFactor="1.12" vaporized=""/>
    <tripinfo id="flow_route_26_duration_20250327_2020.5" depart="31.00" departLane="1254771874#0_0" departPos="75.75" departSpeed="0.00" departDelay="3.73" arrival="93.00" arrivalLane="-422986370#2_0" arrivalPos="90.69" arrivalSpeed="12.90" duration="62.00" routeLength="279.54" waitingTime="9.00" waitingCount="1" stopTime="0.00" timeLoss="42.65" rerouteNo="0" devices="tripinfo_flow_route_26_duration_20250327_2020.5" vType="car" speedFactor="0.90" vaporized=""/>
    <tripinfo id="flow_route_26_duration_20250327_2020.7" depart="39.00" departLane="1254771874#0_0" departPos="163.88" departSpeed="0.00" departDelay="0.82" arrival="93.00" arrivalLane="-422986370#2_0" arrivalPos="171.74" arrivalSpeed="16.39" duration="54.00" routeLength="272.46" waitingTime="13.00" waitingCount="1" stopTime="0.00" timeLoss="35.58" rerouteNo="0" devices="tripinfo_flow_route_26_duration_20250327_2020.7" vType="car" speedFactor="1.10" vaporized=""/>
    <tripinfo id="flow_route_26_duration_20250327_2020.3" depart="17.00" departLane="1254771874#0_0" departPos="78.68" departSpeed="0.00" departDelay="0.64" arrival="96.00" arrivalLane="-422986370#2_0" arrivalPos="280.10" arrivalSpeed="14.75" duration="79.00" routeLength="466.02" waitingTime="14.00" waitingCount="1" stopTime="0.00" timeLoss="47.49" rerouteNo="0" devices="tripinfo_flow_route_26_duration_20250327_2020.3" vType="car" speedFactor="0.89" vaporized=""/>
    <tripinfo id="flow_route_41_duration_20250327_2020.8" depart="28.00" departLane="1369578054_0" departPos="31.38" departSpeed="0.00" departDelay="5.14" arrival="99.00" arrivalLane="138002006#0_1" arrivalPos="16.04" arrivalSpeed="8.27" duration="71.00" routeLength="306.59" waitingTime="30.00" waitingCount="1" stopTime="0.00" timeLoss="52.09" rerouteNo="0" devices="tripinfo_flow_route_41_duration_20250327_2020.8" vType="car" speedFactor="1.17" vaporized=""/>
    <tripinfo id="flow_route_41_duration_20250327_2020.16" depart="52.00" departLane="1369578054_0" departPos="281.87" departSpeed="0.00" departDelay="6.29" arrival="101.00" arrivalLane="138002006#0_0" arrivalPos="41.09" arrivalSpeed="9.84" duration="49.00" routeLength="81.15" waitingTime="28.00" waitingCount="1" stopTime="0.00" timeLoss="43.90" rerouteNo="0" devices="tripinfo_flow_route_41_duration_20250327_2020.16" vType="car" speedFactor="0.99" vaporized=""/>
    <tripinfo id="flow_route_41_duration_20250327_2020.9" depart="33.00" departLane="1369578054_0" departPos="84.26" departSpeed="0.00" departDelay="7.29" arrival="103.00" arrivalLane="138002006#0_1" arrivalPos="34.60" arrivalSpeed="10.24" duration="70.00" routeLength="272.27" waitingTime="28.00" waitingCount="1" stopTime="0.00" timeLoss="53.14" rerouteNo="0" devices="tripinfo_flow_route_41_duration_20250327_2020.9" vType="car" speedFactor="1.18" vaporized=""/>
    <tripinfo id="flow_route_41_duration_20250327_2020.10" depart="35.00" departLane="1369578054_0" departPos="117.06" departSpeed="0.00" departDelay="6.43" arrival="105.00" arrivalLane="138002006#0_1" arrivalPos="43.74" arrivalSpeed="10.92" duration="70.00" routeLength="248.61" waitingTime="28.00" waitingCount="1" stopTime="0.00" timeLoss="54.39" rerouteNo="0" devices="tripinfo_flow_route_41_duration_20250327_2020.10" vType="car" speedFactor="0.96" vaporized=""/>
    <tripinfo id="flow_route_41_duration_20250327_2020.11" depart="40.00" departLane="1369578054_0" departPos="164.57" departSpeed="0.00" departDelay="8.57" arrival="107.00" arrivalLane="138002006#0_0" arrivalPos="62.09" arrivalSpeed="12.44" duration="67.00" routeLength="219.45" waitingTime="26.00" waitingCount="1" stopTime="0.00" timeLoss="53.21" rerouteNo="0" devices="tripinfo_flow_route_41_duration_20250327_2020.11" vType="car" speedFactor="1.04" vaporized=""/>
    <tripinfo id="flow_route_41_duration_20250327_2020.13" depart="42.00" departLane="1369578054_0" departPos="103.63" departSpeed="0.00" departDelay="4.86" arrival="107.00" arrivalLane="138002006#0_1" arrivalPos="33.68" arrivalSpeed="11.36" duration="65.00" routeLength="251.99" waitingTime="25.00" waitingCount="1" stopTime="0.00" timeLoss="49.20" rerouteNo="0" devices="tripinfo_flow_route_41_duration_20250327_2020.13" vType="car" speedFactor="1.02" vaporized=""/>
    <tripinfo id="flow_route_41_duration_20250327_2020.19" depart="58.00" departLane="1369578054_0" departPos="158.31" departSpeed="0.00" departDelay="3.72" arrival="109.00" arrivalLane="138002006#0_0" arrivalPos="10.60" arrivalSpeed="10.22" duration="51.00" routeLength="174.22" waitingTime="17.00" waitingCount="1" stopTime="0.00" timeLoss="39.88" rerouteNo="0" devices="tripinfo_flow_route_41_duration_20250327_2020.19" vType="car" speedFactor="0.98" vaporized=""/>
    <tripinfo id="flow_route_40_duration_20250327_2020.4" depart="32.00" departLane="1369578054_0" departPos="30.42" departSpeed="0.00" departDelay="8.00" arrival="110.00" arrivalLane="1341093415#0_0" arrivalPos="51.70" arrivalSpeed="11.48" duration="78.00" routeLength="332.20" waitingTime="22.00" waitingCount="1" stopTime="0.00" timeLoss="57.00" rerouteNo="0" devices="tripinfo_flow_route_40_duration_20250327_2020.4" vType="car" speedFactor="0.99" vaporized=""/>
    <tripinfo id="flow_route_41_duration_20250327_2020.15" depart="47.00" departLane="1369578054_0" departPos="96.91" departSpeed="0.00" departDelay="4.15" arrival="110.00" arrivalLane="138002006#0_1" arrivalPos="0.08" arrivalSpeed="9.99" duration="63.00" routeLength="225.09" waitingTime="19.00" waitingCount="1" stopTime="0.00" timeLoss="48.60" rerouteNo="0" devices="tripinfo_flow_route_41_duration_20250327_2020.15" vType="car" speedFactor="0.97" vaporized=""/>
    <tripinfo id="flow_route_40_duration_20250327_2020.7" depart="46.00" departLane="1369578054_0" departPos="252.80" departSpeed="0.00" departDelay="4.00" arrival="111.00" arrivalLane="1341093415#0_0" arrivalPos="161.02" arrivalSpeed="16.29" duration="65.00" routeLength="219.14" waitingTime="27.00" waitingCount="1" stopTime="0.00" timeLoss="49.76" rerouteNo="0" devices="tripinfo_flow_route_40_duration_20250327_2020.7" vType="car" speedFactor="0.90" vaporized=""/>
    <tripinfo id="flow_route_41_duration_20250327_2020.12" depart="40.00" departLane="1369578054_0" departPos="4.38" departSpeed="0.00" departDelay="5.72" arrival="112.00" arrivalLane="138002006#0_1" arrivalPos="42.61" arrivalSpeed="12.55" duration="72.00" routeLength="360.16" waitingTime="23.00" waitingCount="1" stopTime="0.00" timeLoss="46.64" rerouteNo="0" devices="tripinfo_flow_route_41_duration_20250327_2020.12" vType="car" speedFactor="0.88" vaporized=""/>
    <tripinfo id="flow_route_40_duration_20250327_2020.9" depart="56.00" departLane="1369578054_0" departPos="237.57" departSpeed="0.00" departDelay="2.00" arrival="112.00" arrivalLane="1341093415#0_0" arrivalPos="101.52" arrivalSpeed="14.22" duration="56.00" routeLength="174.87" waitingTime="23.00" waitingCount="1" stopTime="0.00" timeLoss="43.46" rerouteNo="0" devices="tripinfo_flow_route_40_duration_20250327_2020.9" vType="car" speedFactor="0.94" vaporized=""/>
    <tripinfo id="flow_route_41_duration_20250327_2020.14" depart="45.00" departLane="1369578054_0" departPos="117.90" departSpeed="0.00" departDelay="5.00" arrival="113.00" arrivalLane="138002006#0_1" arrivalPos="83.87" arrivalSpeed="14.58" duration="68.00" routeLength="287.90" waitingTime="24.00" waitingCount="1" stopTime="0.00" timeLoss="49.87" rerouteNo="0" devices="tripinfo_flow_route_41_duration_20250327_2020.14" vType="car" speedFactor="1.00" vaporized=""/>
    <tripinfo id="flow_route_41_duration_20250327_2020.18" depart="55.00" departLane="1369578054_0" departPos="2.20" departSpeed="0.00" departDelay="3.57" arrival="113.00" arrivalLane="138002006#0_1" arrivalPos="16.91" arrivalSpeed="11.58" duration="58.00" routeLength="336.65" waitingTime="13.00" waitingCount="1" stopTime="0.00" timeLoss="37.43" rerouteNo="0" devices="tripinfo_flow_route_41_duration_20250327_2020.18" vType="car" speedFactor="1.02" vaporized=""/>
    <tripinfo id="flow_route_40_duration_20250327_2020.6" depart="42.00" departLane="1369578054_0" departPos="50.19" departSpeed="0.00" departDelay="6.00" arrival="114.00" arrivalLane="1341093415#0_0" arrivalPos="27.37" arrivalSpeed="8.74" duration="72.00" routeLength="288.10" waitingTime="16.00" waitingCount="1" stopTime="0.00" timeLoss="50.93" rerouteNo="0" devices="tripinfo_flow_route_40_duration_20250327_2020.6" vType="car" speedFactor="0.85" vaporized=""/>
    <tripinfo id="flow_route_41_duration_20250327_2020.17" depart="55.00" departLane="1369578054_0" departPos="136.55" departSpeed="0.00" departDelay="6.43" arrival="115.00" arrivalLane="138002006#0_0" arrivalPos="70.09" arrivalSpeed="13.66" duration="60.00" routeLength="255.47" waitingTime="16.00" waitingCount="1" stopTime="0.00" timeLoss="42.95" rerouteNo="0" devices="tripinfo_flow_route_41_duration_20250327_2020.17" vType="car" speedFactor="0.91" vaporized=""/>
    <tripinfo id="flow_route_51_duration_20250327_2020.4" depart="35.00" departLane="-138002006#3_0" departPos="75.06" departSpeed="0.00" departDelay="0.72" arrival="119.00" arrivalLane="1341093415#0_3" arrivalPos="7.59" arrivalSpeed="5.73" duration="84.00" routeLength="36.21" waitingTime="64.00" waitingCount="4" stopTime="0.00" timeLoss="80.53" rerouteNo="0" devices="tripinfo_flow_route_51_duration_20250327_2020.4" vType="car" speedFactor="0.85" vaporized=""/>
    <tripinfo id="flow_route_51_duration_20250327_2020.6" depart="52.00" departLane="-138002006#3_0" departPos="50.48" departSpeed="0.00" departDelay="0.57" arrival="129.00" arrivalLane="1341093415#0_3" arrivalPos="42.50" arrivalSpeed="10.55" duration="77.00" routeLength="95.70" waitingTime="45.00" waitingCount="2" stopTime="0.00" timeLoss="69.71" rerouteNo="0" devices="tripinfo_flow_route_51_duration_20250327_2020.6" vType="car" speedFactor="0.97" vaporized=""/>
    <tripinfo id="flow_route_51_duration_20250327_2020.3" depart="26.00" departLane="-138002006#3_0" departPos="32.42" departSpeed="0.00" departDelay="0.29" arrival="130.00" arrivalLane="1341093415#0_3" arrivalPos="91.41" arrivalSpeed="11.60" duration="104.00" routeLength="162.67" waitingTime="61.00" waitingCount="4" stopTime="0.00" timeLoss="93.55" rerouteNo="0" devices="tripinfo_flow_route_51_duration_20250327_2020.3" vType="car" speedFactor="1.10" vaporized=""/>
    <tripinfo id="flow_route_27_duration_20250327_2020.3" depart="9.00" departLane="1254771874#0_0" departPos="7.62" departSpeed="0.00" departDelay="0.43" arrival="136.00" arrivalLane="138002006#0_1" arrivalPos="26.79" arrivalSpeed="8.07" duration="127.00" routeLength="291.05" waitingTime="67.00" waitingCount="3" stopTime="0.00" timeLoss="108.80" rerouteNo="0" devices="tripinfo_flow_route_27_duration_20250327_2020.3" vType="car" speedFactor="0.99" vaporized=""/>
    <tripinfo id="flow_route_27_duration_20250327_2020.12" depart="37.00" departLane="1254771874#0_0" departPos="150.58" departSpeed="0.00" departDelay="2.72" arrival="139.00" arrivalLane="138002006#0_1" arrivalPos="32.99" arrivalSpeed="9.18" duration="102.00" routeLength="154.29" waitingTime="58.00" waitingCount="2" stopTime="0.00" timeLoss="91.33" rerouteNo="0" devices="tripinfo_flow_route_27_duration_20250327_2020.12" vType="car" speedFactor="0.90" vaporized=""/>
    <tripinfo id="flow_route_27_duration_20250327_2020.13" depart="38.00" departLane="1254771874#0_0" departPos="151.50" departSpeed="0.00" departDelay="0.86" arrival="140.00" arrivalLane="138002006#0_1" arrivalPos="24.61" arrivalSpeed="8.63" duration="102.00" routeLength="145.00" waitingTime="54.00" waitingCount="2" stopTime="0.00" timeLoss="92.76" rerouteNo="0" devices="tripinfo_flow_route_27_duration_20250327_2020.13" vType="car" speedFactor="1.17" vaporized=""/>