<?xml version="1.0" encoding="UTF-8"?>

<!-- generated on 2025-05-06 21:08:44 by Eclipse SUMO sumo Version 1.20.0
<configuration xmlns:xsi="http://www.w3.org/2001/XMLSchema-instance" xsi:noNamespaceSchemaLocation="http://sumo.dlr.de/xsd/sumoConfiguration.xsd">

    <input>
        <net-file value="osm.net.xml"/>
        <route-files value="xml/route_rl_cluster_11644940323_11644940324_3828703845_6.rou.xml"/>
    </input>

    <output>
        <tripinfo-output value="xml/tripinfo_rl_cluster_11644940323_11644940324_3828703845_6.xml"/>
    </output>

    <traci_server>
        <remote-port value="56203"/>
    </traci_server>

</configuration>
-->

<tripinfos xmlns:xsi="http://www.w3.org/2001/XMLSchema-instance" xsi:noNamespaceSchemaLocation="http://sumo.dlr.de/xsd/tripinfo_file.xsd">
    <tripinfo id="flow_route_3_duration_20250327_2250.0" depart="0.00" departLane="1318793173#0_0" departPos="80.53" departSpeed="0.00" departDelay="0.00" arrival="19.00" arrivalLane="291974733#0_1" arrivalPos="66.76" arrivalSpeed="13.99" duration="19.00" routeLength="123.20" waitingTime="0.00" waitingCount="0" stopTime="0.00" timeLoss="10.27" rerouteNo="0" devices="tripinfo_flow_route_3_duration_20250327_2250.0" vType="car" speedFactor="0.94" vaporized=""/>
    <tripinfo id="flow_route_16_duration_20250327_2250.0" depart="0.00" departLane="137406408#0_0" departPos="52.27" departSpeed="0.00" departDelay="0.00" arrival="20.00" arrivalLane="133126040#0_0" arrivalPos="80.39" arrivalSpeed="14.47" duration="20.00" routeLength="149.31" waitingTime="0.00" waitingCount="0" stopTime="0.00" timeLoss="10.92" rerouteNo="0" devices="tripinfo_flow_route_16_duration_20250327_2250.0" vType="car" speedFactor="1.05" vaporized=""/>
    <tripinfo id="flow_route_2_duration_20250327_2250.0" depart="0.00" departLane="1318793173#0_0" departPos="58.93" departSpeed="0.00" departDelay="0.00" arrival="21.00" arrivalLane="189835257_0" arrivalPos="46.92" arrivalSpeed="16.06" duration="21.00" routeLength="167.93" waitingTime="0.00" waitingCount="0" stopTime="0.00" timeLoss="9.61" rerouteNo="0" devices="tripinfo_flow_route_2_duration_20250327_2250.0" vType="car" speedFactor="1.06" vaporized=""/>
    <tripinfo id="flow_route_17_duration_20250327_2250.0" depart="0.00" departLane="137406408#0_0" departPos="24.41" departSpeed="0.00" departDelay="0.00" arrival="22.00" arrivalLane="1254771874#0_0" arrivalPos="63.27" arrivalSpeed="16.22" duration="22.00" routeLength="182.06" waitingTime="0.00" waitingCount="0" stopTime="0.00" timeLoss="9.94" rerouteNo="0" devices="tripinfo_flow_route_17_duration_20250327_2250.0" vType="car" speedFactor="0.89" vaporized=""/>
    <tripinfo id="flow_route_9_duration_20250327_2250.0" depart="0.00" departLane="1318793173#0_0" departPos="0.65" departSpeed="0.00" departDelay="0.00" arrival="24.00" arrivalLane="1254771874#0_1" arrivalPos="11.63" arrivalSpeed="11.21" duration="24.00" routeLength="169.44" waitingTime="0.00" waitingCount="0" stopTime="0.00" timeLoss="12.40" rerouteNo="0" devices="tripinfo_flow_route_9_duration_20250327_2250.0" vType="car" speedFactor="1.01" vaporized=""/>
    <tripinfo id="flow_route_2_duration_20250327_2250.1" depart="15.00" departLane="1318793173#0_0" departPos="73.88" departSpeed="0.00" departDelay="0.00" arrival="35.00" arrivalLane="189835257_0" arrivalPos="46.11" arrivalSpeed="14.29" duration="20.00" routeLength="152.17" waitingTime="0.00" waitingCount="0" stopTime="0.00" timeLoss="9.47" rerouteNo="0" devices="tripinfo_flow_route_2_duration_20250327_2250.1" vType="car" speedFactor="0.94" vaporized=""/>
    <tripinfo id="flow_route_2_duration_20250327_2250.2" depart="30.00" departLane="1318793173#0_0" departPos="42.86" departSpeed="0.00" departDelay="0.00" arrival="52.00" arrivalLane="189835257_0" arrivalPos="33.36" arrivalSpeed="15.66" duration="22.00" routeLength="170.44" waitingTime="0.00" waitingCount="0" stopTime="0.00" timeLoss="10.92" rerouteNo="0" devices="tripinfo_flow_route_2_duration_20250327_2250.2" vType="car" speedFactor="1.03" vaporized=""/>
    <tripinfo id="flow_route_3_duration_20250327_2250.1" depart="30.00" departLane="1318793173#0_0" departPos="58.82" departSpeed="0.00" departDelay="0.00" arrival="52.00" arrivalLane="291974733#0_1" arrivalPos="87.99" arrivalSpeed="15.69" duration="22.00" routeLength="166.12" waitingTime="0.00" waitingCount="0" stopTime="0.00" timeLoss="11.27" rerouteNo="0" devices="tripinfo_flow_route_3_duration_20250327_2250.1" vType="car" speedFactor="1.05" vaporized=""/>
    <tripinfo id="flow_route_2_duration_20250327_2250.3" depart="45.00" departLane="1318793173#0_0" departPos="3.22" departSpeed="0.00" departDelay="0.00" arrival="70.00" arrivalLane="189835257_0" arrivalPos="8.38" arrivalSpeed="13.01" duration="25.00" routeLength="185.10" waitingTime="0.00" waitingCount="0" stopTime="0.00" timeLoss="10.88" rerouteNo="0" devices="tripinfo_flow_route_2_duration_20250327_2250.3" vType="car" speedFactor="0.88" vaporized=""/>
    <tripinfo id="flow_route_15_duration_20250327_2250.0" depart="1.00" departLane="1252820503#0_0" departPos="8.92" departSpeed="0.00" departDelay="1.00" arrival="85.00" arrivalLane="133126040#0_1" arrivalPos="4.72" arrivalSpeed="8.16" duration="84.00" routeLength="174.98" waitingTime="52.00" waitingCount="1" stopTime="0.00" timeLoss="72.55" rerouteNo="0" devices="tripinfo_flow_route_15_duration_20250327_2250.0" vType="car" speedFactor="0.83" vaporized=""/>
    <tripinfo id="flow_route_13_duration_20250327_2250.0" depart="0.00" departLane="1252820503#0_0" departPos="99.64" departSpeed="0.00" departDelay="0.00" arrival="86.00" arrivalLane="291974733#0_0" arrivalPos="46.05" arrivalSpeed="8.80" duration="86.00" routeLength="103.57" waitingTime="61.00" waitingCount="1" stopTime="0.00" timeLoss="78.64" rerouteNo="0" devices="tripinfo_flow_route_13_duration_20250327_2250.0" vType="car" speedFactor="1.08" vaporized=""/>
    <tripinfo id="flow_route_13_duration_20250327_2250.1" depart="20.00" departLane="1252820503#0_0" departPos="45.46" departSpeed="0.00" departDelay="0.00" arrival="88.00" arrivalLane="291974733#0_0" arrivalPos="48.06" arrivalSpeed="9.83" duration="68.00" routeLength="159.76" waitingTime="37.00" waitingCount="1" stopTime="0.00" timeLoss="57.23" rerouteNo="0" devices="tripinfo_flow_route_13_duration_20250327_2250.1" vType="car" speedFactor="1.09" vaporized=""/>
    <tripinfo id="flow_route_13_duration_20250327_2250.2" depart="40.00" departLane="1252820503#0_0" departPos="113.18" departSpeed="0.00" departDelay="0.00" arrival="88.00" arrivalLane="291974733#0_0" arrivalPos="28.28" arrivalSpeed="7.82" duration="48.00" routeLength="72.25" waitingTime="28.00" waitingCount="1" stopTime="0.00" timeLoss="42.16" rerouteNo="0" devices="tripinfo_flow_route_13_duration_20250327_2250.2" vType="car" speedFactor="0.93" vaporized=""/>
    <tripinfo id="flow_route_14_duration_20250327_2250.0" depart="0.00" departLane="1252820503#0_0" departPos="69.02" departSpeed="0.00" departDelay="0.00" arrival="96.00" arrivalLane="1254771874#0_0" arrivalPos="150.80" arrivalSpeed="16.52" duration="96.00" routeLength="291.67" waitingTime="57.00" waitingCount="1" stopTime="0.00" timeLoss="77.96" rerouteNo="0" devices="tripinfo_flow_route_14_duration_20250327_2250.0" vType="car" speedFactor="1.03" vaporized=""/>
    <tripinfo id="flow_route_14_duration_20250327_2250.1" depart="15.00" departLane="1252820503#0_0" departPos="6.84" departSpeed="0.00" departDelay="0.00" arrival="96.00" arrivalLane="1254771874#0_1" arrivalPos="82.30" arrivalSpeed="15.64" duration="81.00" routeLength="285.34" waitingTime="40.00" waitingCount="1" stopTime="0.00" timeLoss="63.42" rerouteNo="0" devices="tripinfo_flow_route_14_duration_20250327_2250.1" vType="car" speedFactor="0.86" vaporized=""/>
    <tripinfo id="flow_route_14_duration_20250327_2250.2" depart="30.00" departLane="1252820503#0_0" departPos="35.05" departSpeed="0.00" departDelay="0.00" arrival="106.00" arrivalLane="1254771874#0_1" arrivalPos="210.71" arrivalSpeed="16.50" duration="76.00" routeLength="385.54" waitingTime="29.00" waitingCount="1" stopTime="0.00" timeLoss="52.36" rerouteNo="0" devices="tripinfo_flow_route_14_duration_20250327_2250.2" vType="car" speedFactor="1.12" vaporized=""/>
    <tripinfo id="flow_route_14_duration_20250327_2250.3" depart="45.00" departLane="1252820503#0_0" departPos="101.42" departSpeed="0.00" departDelay="0.00" arrival="108.00" arrivalLane="1254771874#0_0" arrivalPos="244.52" arrivalSpeed="16.27" duration="63.00" routeLength="352.98" waitingTime="20.00" waitingCount="1" stopTime="0.00" timeLoss="40.84" rerouteNo="0" devices="tripinfo_flow_route_14_duration_20250327_2250.3" vType="car" speedFactor="0.94" vaporized=""/>
    <tripinfo id="flow_route_16_duration_20250327_2250.1" depart="30.00" departLane="137406408#0_0" departPos="2.99" departSpeed="0.00" departDelay="0.00" arrival="129.00" arrivalLane="133126040#0_0" arrivalPos="96.01" arrivalSpeed="13.75" duration="99.00" routeLength="214.20" waitingTime="63.00" waitingCount="1" stopTime="0.00" timeLoss="85.35" rerouteNo="0" devices="tripinfo_flow_route_16_duration_20250327_2250.1" vType="car" speedFactor="0.99" vaporized=""/>
</tripinfos>
