<?xml version="1.0" encoding="UTF-8"?>

<!-- generated on 2025-05-06 21:01:10 by Eclipse SUMO sumo Version 1.20.0
<configuration xmlns:xsi="http://www.w3.org/2001/XMLSchema-instance" xsi:noNamespaceSchemaLocation="http://sumo.dlr.de/xsd/sumoConfiguration.xsd">

    <input>
        <net-file value="osm.net.xml"/>
        <route-files value="xml/routes_sac2_cluster_2271368471_4779869278.rou.xml"/>
    </input>

    <output>
        <tripinfo-output value="xml/tripinfo_9786.xml"/>
    </output>

    <traci_server>
        <remote-port value="41153"/>
    </traci_server>

</configuration>
-->

<tripinfos xmlns:xsi="http://www.w3.org/2001/XMLSchema-instance" xsi:noNamespaceSchemaLocation="http://sumo.dlr.de/xsd/tripinfo_file.xsd">
    <tripinfo id="flow_route_36_duration_20250327_2250.0" depart="0.00" departLane="485211947#0_0" departPos="162.24" departSpeed="0.00" departDelay="0.00" arrival="23.00" arrivalLane="137415945#0_0" arrivalPos="6.94" arrivalSpeed="15.19" duration="23.00" routeLength="189.23" waitingTime="0.00" waitingCount="0" stopTime="0.00" timeLoss="10.24" rerouteNo="0" devices="tripinfo_flow_route_36_duration_20250327_2250.0" vType="car" speedFactor="0.94" vaporized=""/>
    <tripinfo id="flow_route_35_duration_20250327_2250.1" depart="9.00" departLane="485211947#0_0" departPos="141.65" departSpeed="0.00" departDelay="0.43" arrival="28.00" arrivalLane="1369578054_0" arrivalPos="70.93" arrivalSpeed="12.77" duration="19.00" routeLength="126.74" waitingTime="0.00" waitingCount="0" stopTime="0.00" timeLoss="10.64" rerouteNo="0" devices="tripinfo_flow_route_35_duration_20250327_2250.1" vType="car" speedFactor="1.03" vaporized=""/>
    <tripinfo id="flow_route_35_duration_20250327_2250.0" depart="0.00" departLane="485211947#0_0" departPos="11.17" departSpeed="0.00" departDelay="0.00" arrival="33.00" arrivalLane="1369578054_0" arrivalPos="74.16" arrivalSpeed="12.98" duration="33.00" routeLength="260.46" waitingTime="0.00" waitingCount="0" stopTime="0.00" timeLoss="13.65" rerouteNo="0" devices="tripinfo_flow_route_35_duration_20250327_2250.0" vType="car" speedFactor="0.89" vaporized=""/>
    <tripinfo id="flow_route_37_duration_20250327_2250.0" depart="0.00" departLane="485211947#0_0" departPos="59.66" departSpeed="0.00" departDelay="0.00" arrival="33.00" arrivalLane="-430406005#1_1" arrivalPos="133.07" arrivalSpeed="16.05" duration="33.00" routeLength="286.39" waitingTime="0.00" waitingCount="0" stopTime="0.00" timeLoss="12.84" rerouteNo="0" devices="tripinfo_flow_route_37_duration_20250327_2250.0" vType="car" speedFactor="0.86" vaporized=""/>
    <tripinfo id="flow_route_30_duration_20250327_2250.0" depart="0.00" departLane="1235147073.116_0" departPos="7.14" departSpeed="0.00" departDelay="0.00" arrival="44.00" arrivalLane="133126030#0_0" arrivalPos="8.43" arrivalSpeed="7.38" duration="44.00" routeLength="175.81" waitingTime="13.00" waitingCount="1" stopTime="0.00" timeLoss="33.04" rerouteNo="0" devices="tripinfo_flow_route_30_duration_20250327_2250.0" vType="car" speedFactor="1.01" vaporized=""/>
    <tripinfo id="flow_route_36_duration_20250327_2250.2" depart="24.00" departLane="485211947#0_0" departPos="173.26" departSpeed="0.00" departDelay="0.00" arrival="45.00" arrivalLane="137415945#0_0" arrivalPos="8.80" arrivalSpeed="16.12" duration="21.00" routeLength="180.08" waitingTime="0.00" waitingCount="0" stopTime="0.00" timeLoss="9.89" rerouteNo="0" devices="tripinfo_flow_route_36_duration_20250327_2250.2" vType="car" speedFactor="1.02" vaporized=""/>
    <tripinfo id="flow_route_31_duration_20250327_2250.0" depart="2.00" departLane="1235147073.116_0" departPos="0.71" departSpeed="0.00" departDelay="2.00" arrival="52.00" arrivalLane="-430406005#1_0" arrivalPos="87.77" arrivalSpeed="12.41" duration="50.00" routeLength="250.02" waitingTime="12.00" waitingCount="1" stopTime="0.00" timeLoss="34.20" rerouteNo="0" devices="tripinfo_flow_route_31_duration_20250327_2250.0" vType="car" speedFactor="1.08" vaporized=""/>
    <tripinfo id="flow_route_31_duration_20250327_2250.1" depart="10.00" departLane="1235147073.116_0" departPos="14.65" departSpeed="0.00" departDelay="2.50" arrival="53.00" arrivalLane="-430406005#1_0" arrivalPos="70.82" arrivalSpeed="12.23" duration="43.00" routeLength="219.14" waitingTime="7.00" waitingCount="1" stopTime="0.00" timeLoss="28.97" rerouteNo="0" devices="tripinfo_flow_route_31_duration_20250327_2250.1" vType="car" speedFactor="1.09" vaporized=""/>
    <tripinfo id="flow_route_31_duration_20250327_2250.2" depart="15.00" departLane="1235147073.116_0" departPos="4.04" departSpeed="0.00" departDelay="0.00" arrival="55.00" arrivalLane="-430406005#1_0" arrivalPos="73.46" arrivalSpeed="12.72" duration="40.00" routeLength="232.38" waitingTime="3.00" waitingCount="1" stopTime="0.00" timeLoss="24.24" rerouteNo="0" devices="tripinfo_flow_route_31_duration_20250327_2250.2" vType="car" speedFactor="0.93" vaporized=""/>
    <tripinfo id="flow_route_32_duration_20250327_2250.0" depart="9.00" departLane="1235147073.116_0" departPos="0.50" departSpeed="0.00" departDelay="9.00" arrival="58.00" arrivalLane="1369578054_1" arrivalPos="176.77" arrivalSpeed="16.37" duration="49.00" routeLength="356.01" waitingTime="5.00" waitingCount="1" stopTime="0.00" timeLoss="26.23" rerouteNo="0" devices="tripinfo_flow_route_32_duration_20250327_2250.0" vType="car" speedFactor="1.03" vaporized=""/>
    <tripinfo id="flow_route_33_duration_20250327_2250.0" depart="0.00" departLane="133126008#0_0" departPos="101.07" departSpeed="0.00" departDelay="0.00" arrival="62.00" arrivalLane="1369578054_0" arrivalPos="13.07" arrivalSpeed="9.35" duration="62.00" routeLength="125.36" waitingTime="34.00" waitingCount="1" stopTime="0.00" timeLoss="53.54" rerouteNo="0" devices="tripinfo_flow_route_33_duration_20250327_2250.0" vType="car" speedFactor="0.83" vaporized=""/>
    <tripinfo id="flow_route_28_duration_20250327_2250.1" depart="20.00" departLane="-422986370#2_0" departPos="26.67" departSpeed="0.00" departDelay="0.00" arrival="66.00" arrivalLane="-430406005#1_1" arrivalPos="43.11" arrivalSpeed="10.69" duration="46.00" routeLength="350.87" waitingTime="2.00" waitingCount="1" stopTime="0.00" timeLoss="23.92" rerouteNo="0" devices="tripinfo_flow_route_28_duration_20250327_2250.1" vType="car" speedFactor="0.94" vaporized=""/>
    <tripinfo id="flow_route_34_duration_20250327_2250.1" depart="30.00" departLane="133126008#0_0" departPos="97.59" departSpeed="0.00" departDelay="0.00" arrival="66.00" arrivalLane="133126030#0_0" arrivalPos="33.97" arrivalSpeed="8.78" duration="36.00" routeLength="123.91" waitingTime="8.00" waitingCount="1" stopTime="0.00" timeLoss="26.74" rerouteNo="0" devices="tripinfo_flow_route_34_duration_20250327_2250.1" vType="car" speedFactor="0.92" vaporized=""/>
    <tripinfo id="flow_route_33_duration_20250327_2250.1" depart="10.00" departLane="133126008#0_0" departPos="5.32" departSpeed="0.00" departDelay="0.00" arrival="67.00" arrivalLane="1369578054_1" arrivalPos="47.67" arrivalSpeed="11.90" duration="57.00" routeLength="255.71" waitingTime="16.00" waitingCount="1" stopTime="0.00" timeLoss="41.18" rerouteNo="0" devices="tripinfo_flow_route_33_duration_20250327_2250.1" vType="car" speedFactor="1.05" vaporized=""/>
    <tripinfo id="flow_route_29_duration_20250327_2250.0" depart="0.00" departLane="-422986370#2_0" departPos="201.60" departSpeed="0.00" departDelay="0.00" arrival="70.00" arrivalLane="137415945#0_0" arrivalPos="9.07" arrivalSpeed="15.20" duration="70.00" routeLength="253.29" waitingTime="32.00" waitingCount="1" stopTime="0.00" timeLoss="53.00" rerouteNo="0" devices="tripinfo_flow_route_29_duration_20250327_2250.0" vType="car" speedFactor="0.94" vaporized=""/>
    <tripinfo id="flow_route_34_duration_20250327_2250.0" depart="0.00" departLane="133126008#0_0" departPos="47.21" departSpeed="0.00" departDelay="0.00" arrival="72.00" arrivalLane="133126030#0_0" arrivalPos="137.72" arrivalSpeed="15.18" duration="72.00" routeLength="278.03" waitingTime="31.00" waitingCount="1" stopTime="0.00" timeLoss="53.82" rerouteNo="0" devices="tripinfo_flow_route_34_duration_20250327_2250.0" vType="car" speedFactor="1.05" vaporized=""/>
    <tripinfo id="flow_route_33_duration_20250327_2250.4" depart="40.00" departLane="133126008#0_0" departPos="8.36" departSpeed="0.00" departDelay="0.00" arrival="72.00" arrivalLane="1369578054_1" arrivalPos="62.08" arrivalSpeed="12.78" duration="32.00" routeLength="267.08" waitingTime="0.00" waitingCount="0" stopTime="0.00" timeLoss="15.61" rerouteNo="0" devices="tripinfo_flow_route_33_duration_20250327_2250.4" vType="car" speedFactor="1.15" vaporized=""/>
    <tripinfo id="flow_route_28_duration_20250327_2250.0" depart="0.00" departLane="-422986370#2_0" departPos="1.81" departSpeed="0.00" departDelay="0.00" arrival="73.00" arrivalLane="-430406005#1_0" arrivalPos="159.13" arrivalSpeed="16.42" duration="73.00" routeLength="491.75" waitingTime="19.00" waitingCount="1" stopTime="0.00" timeLoss="42.67" rerouteNo="0" devices="tripinfo_flow_route_28_duration_20250327_2250.0" vType="car" speedFactor="1.06" vaporized=""/>
    <tripinfo id="flow_route_29_duration_20250327_2250.2" depart="30.00" departLane="-422986370#2_0" departPos="192.20" departSpeed="0.00" departDelay="0.00" arrival="73.00" arrivalLane="137415945#0_0" arrivalPos="6.27" arrivalSpeed="16.25" duration="43.00" routeLength="259.89" waitingTime="5.00" waitingCount="1" stopTime="0.00" timeLoss="24.91" rerouteNo="0" devices="tripinfo_flow_route_29_duration_20250327_2250.2" vType="car" speedFactor="0.97" vaporized=""/>
    <tripinfo id="flow_route_29_duration_20250327_2250.1" depart="16.00" departLane="-422986370#2_0" departPos="66.84" departSpeed="0.00" departDelay="1.00" arrival="75.00" arrivalLane="137415945#0_0" arrivalPos="1.60" arrivalSpeed="15.57" duration="59.00" routeLength="380.58" waitingTime="3.00" waitingCount="1" stopTime="0.00" timeLoss="34.45" rerouteNo="0" devices="tripinfo_flow_route_29_duration_20250327_2250.1" vType="car" speedFactor="0.99" vaporized=""/>
    <tripinfo id="flow_route_28_duration_20250327_2250.2" depart="40.00" departLane="-422986370#2_0" departPos="54.12" departSpeed="0.00" departDelay="0.00" arrival="76.00" arrivalLane="-430406005#1_1" arrivalPos="101.29" arrivalSpeed="16.31" duration="36.00" routeLength="381.60" waitingTime="0.00" waitingCount="0" stopTime="0.00" timeLoss="12.13" rerouteNo="0" devices="tripinfo_flow_route_28_duration_20250327_2250.2" vType="car" speedFactor="1.18" vaporized=""/>
    <tripinfo id="flow_route_33_duration_20250327_2250.2" depart="20.00" departLane="133126008#0_0" departPos="119.25" departSpeed="0.00" departDelay="0.00" arrival="78.00" arrivalLane="1369578054_0" arrivalPos="243.22" arrivalSpeed="15.47" duration="58.00" routeLength="337.33" waitingTime="16.00" waitingCount="1" stopTime="0.00" timeLoss="36.58" rerouteNo="0" devices="tripinfo_flow_route_33_duration_20250327_2250.2" vType="car" speedFactor="0.94" vaporized=""/>
    <tripinfo id="flow_route_33_duration_20250327_2250.5" depart="50.00" departLane="133126008#0_0" departPos="147.34" departSpeed="0.00" departDelay="0.00" arrival="78.00" arrivalLane="1369578054_0" arrivalPos="153.66" arrivalSpeed="16.11" duration="28.00" routeLength="219.68" waitingTime="0.00" waitingCount="0" stopTime="0.00" timeLoss="14.12" rerouteNo="0" devices="tripinfo_flow_route_33_duration_20250327_2250.5" vType="car" speedFactor="0.97" vaporized=""/>
    <tripinfo id="flow_route_29_duration_20250327_2250.3" depart="46.00" departLane="-422986370#2_0" departPos="126.78" departSpeed="0.00" departDelay="1.00" arrival="82.00" arrivalLane="137415945#0_0" arrivalPos="4.48" arrivalSpeed="16.17" duration="36.00" routeLength="323.52" waitingTime="0.00" waitingCount="0" stopTime="0.00" timeLoss="15.33" rerouteNo="0" devices="tripinfo_flow_route_29_duration_20250327_2250.3" vType="car" speedFactor="1.17" vaporized=""/>
    <tripinfo id="flow_route_33_duration_20250327_2250.3" depart="30.00" departLane="133126008#0_0" departPos="49.77" departSpeed="0.00" departDelay="0.00" arrival="86.00" arrivalLane="1369578054_1" arrivalPos="286.13" arrivalSpeed="14.17" duration="56.00" routeLength="449.72" waitingTime="2.00" waitingCount="1" stopTime="0.00" timeLoss="26.20" rerouteNo="0" devices="tripinfo_flow_route_33_duration_20250327_2250.3" vType="car" speedFactor="0.87" vaporized=""/>
    <tripinfo id="flow_route_35_duration_20250327_2250.2" depart="18.00" departLane="485211947#0_0" departPos="105.91" departSpeed="0.00" departDelay="0.86" arrival="105.00" arrivalLane="1369578054_0" arrivalPos="50.33" arrivalSpeed="9.85" duration="87.00" routeLength="141.87" waitingTime="57.00" waitingCount="1" stopTime="0.00" timeLoss="75.77" rerouteNo="0" devices="tripinfo_flow_route_35_duration_20250327_2250.2" vType="car" speedFactor="0.88" vaporized=""/>
    <tripinfo id="flow_route_35_duration_20250327_2250.5" depart="43.00" departLane="485211947#0_0" departPos="133.76" departSpeed="0.00" departDelay="0.15" arrival="107.00" arrivalLane="1369578054_0" arrivalPos="23.97" arrivalSpeed="9.17" duration="64.00" routeLength="87.67" waitingTime="41.00" waitingCount="1" stopTime="0.00" timeLoss="57.60" rerouteNo="0" devices="tripinfo_flow_route_35_duration_20250327_2250.5" vType="car" speedFactor="1.01" vaporized=""/>
    <tripinfo id="flow_route_35_duration_20250327_2250.4" depart="35.00" departLane="485211947#0_0" departPos="33.16" departSpeed="0.00" departDelay="0.72" arrival="108.00" arrivalLane="1369578054_0" arrivalPos="20.07" arrivalSpeed="8.88" duration="73.00" routeLength="184.37" waitingTime="39.00" waitingCount="1" stopTime="0.00" timeLoss="60.38" rerouteNo="0" devices="tripinfo_flow_route_35_duration_20250327_2250.4" vType="car" speedFactor="0.95" vaporized=""/>
    <tripinfo id="flow_route_36_duration_20250327_2250.1" depart="13.00" departLane="485211947#0_0" departPos="23.97" departSpeed="0.00" departDelay="1.00" arrival="113.00" arrivalLane="137415945#0_1" arrivalPos="8.72" arrivalSpeed="15.77" duration="100.00" routeLength="329.28" waitingTime="56.00" waitingCount="1" stopTime="0.00" timeLoss="79.77" rerouteNo="0" devices="tripinfo_flow_route_36_duration_20250327_2250.1" vType="car" speedFactor="1.12" vaporized=""/>
    <tripinfo id="flow_route_36_duration_20250327_2250.3" depart="36.00" departLane="485211947#0_0" departPos="58.16" departSpeed="0.00" departDelay="0.00" arrival="115.00" arrivalLane="137415945#0_1" arrivalPos="12.63" arrivalSpeed="16.38" duration="79.00" routeLength="299.01" waitingTime="37.00" waitingCount="1" stopTime="0.00" timeLoss="60.37" rerouteNo="0" devices="tripinfo_flow_route_36_duration_20250327_2250.3" vType="car" speedFactor="1.13" vaporized=""/>
    <tripinfo id="flow_route_36_duration_20250327_2250.4" depart="48.00" departLane="485211947#0_0" departPos="72.22" departSpeed="0.00" departDelay="0.00" arrival="116.00" arrivalLane="137415945#0_1" arrivalPos="7.83" arrivalSpeed="16.39" duration="68.00" routeLength="280.14" waitingTime="29.00" waitingCount="1" stopTime="0.00" timeLoss="50.86" rerouteNo="0" devices="tripinfo_flow_route_36_duration_20250327_2250.4" vType="car" speedFactor="1.02" vaporized=""/>
    <tripinfo id="flow_route_35_duration_20250327_2250.6" depart="54.00" departLane="485211947#0_0" departPos="56.09" departSpeed="0.00" departDelay="2.57" arrival="121.00" arrivalLane="1369578054_0" arrivalPos="175.29" arrivalSpeed="16.39" duration="67.00" routeLength="316.66" waitingTime="24.00" waitingCount="1" stopTime="0.00" timeLoss="46.92" rerouteNo="0" devices="tripinfo_flow_route_35_duration_20250327_2250.6" vType="car" speedFactor="1.18" vaporized=""/>
    <tripinfo id="flow_route_35_duration_20250327_2250.3" depart="26.00" departLane="485211947#0_0" departPos="57.03" departSpeed="0.00" departDelay="0.29" arrival="124.00" arrivalLane="1369578054_0" arrivalPos="287.64" arrivalSpeed="16.59" duration="98.00" routeLength="428.07" waitingTime="49.00" waitingCount="1" stopTime="0.00" timeLoss="70.47" rerouteNo="0" devices="tripinfo_flow_route_35_duration_20250327_2250.3" vType="car" speedFactor="1.01" vaporized=""/>
    <tripinfo id="flow_route_32_duration_20250327_2250.1" depart="31.00" departLane="1235147073.116_0" departPos="14.21" departSpeed="0.00" departDelay="1.00" arrival="141.00" arrivalLane="1369578054_1" arrivalPos="50.46" arrivalSpeed="10.98" duration="110.00" routeLength="215.98" waitingTime="76.00" waitingCount="1" stopTime="0.00" timeLoss="93.19" rerouteNo="0" devices="tripinfo_flow_route_32_duration_20250327_2250.1" vType="car" speedFactor="0.83" vaporized=""/>
    <tripinfo id="flow_route_31_duration_20250327_2250.5" depart="38.00" departLane="1235147073.116_0" departPos="1.32" departSpeed="0.00" departDelay="0.50" arrival="145.00" arrivalLane="-430406005#1_0" arrivalPos="60.54" arrivalSpeed="10.82" duration="107.00" routeLength="222.19" waitingTime="71.00" waitingCount="1" stopTime="0.00" timeLoss="92.11" rerouteNo="0" devices="tripinfo_flow_route_31_duration_20250327_2250.5" vType="car" speedFactor="0.93" vaporized=""/>
    <tripinfo id="flow_route_31_duration_20250327_2250.3" depart="23.00" departLane="1235147073.116_0" departPos="9.13" departSpeed="0.00" departDelay="0.50" arrival="146.00" arrivalLane="-430406005#1_0" arrivalPos="127.79" arrivalSpeed="14.60" duration="123.00" routeLength="281.62" waitingTime="78.00" waitingCount="1" stopTime="0.00" timeLoss="105.30" rerouteNo="0" devices="tripinfo_flow_route_31_duration_20250327_2250.3" vType="car" speedFactor="1.16" vaporized=""/>
    <tripinfo id="flow_route_31_duration_20250327_2250.4" depart="30.00" departLane="1235147073.116_0" departPos="2.32" departSpeed="0.00" departDelay="0.00" arrival="147.00" arrivalLane="-430406005#1_0" arrivalPos="103.59" arrivalSpeed="12.85" duration="117.00" routeLength="264.23" waitingTime="76.00" waitingCount="1" stopTime="0.00" timeLoss="98.72" rerouteNo="0" devices="tripinfo_flow_route_31_duration_20250327_2250.4" vType="car" speedFactor="0.89" vaporized=""/>
    <tripinfo id="flow_route_31_duration_20250327_2250.6" depart="45.00" departLane="1235147073.116_0" departPos="10.39" departSpeed="0.00" departDelay="0.00" arrival="147.00" arrivalLane="-430406005#1_0" arrivalPos="51.80" arrivalSpeed="12.00" duration="102.00" routeLength="204.37" waitingTime="67.00" waitingCount="1" stopTime="0.00" timeLoss="88.20" rerouteNo="0" devices="tripinfo_flow_route_31_duration_20250327_2250.6" vType="car" speedFactor="0.99" vaporized=""/>
    <tripinfo id="flow_route_31_duration_20250327_2250.7" depart="53.00" departLane="1235147073.116_0" departPos="0.37" departSpeed="0.00" departDelay="0.50" arrival="235.00" arrivalLane="-430406005#1_0" arrivalPos="65.22" arrivalSpeed="11.71" duration="182.00" routeLength="227.81" waitingTime="136.00" waitingCount="2" stopTime="0.00" timeLoss="166.90" rerouteNo="0" devices="tripinfo_flow_route_31_duration_20250327_2250.7" vType="car" speedFactor="1.10" vaporized=""/>
</tripinfos>
