<?xml version="1.0" encoding="UTF-8"?>

<!-- generated on 2025-05-06 21:08:13 by Eclipse SUMO sumo Version 1.20.0
<configuration xmlns:xsi="http://www.w3.org/2001/XMLSchema-instance" xsi:noNamespaceSchemaLocation="http://sumo.dlr.de/xsd/sumoConfiguration.xsd">

    <input>
        <net-file value="osm.net.xml"/>
        <route-files value="xml/route_rl_cluster3839130731_cluster_11644940326_11644940327_11648561426_3.rou.xml"/>
    </input>

    <output>
        <tripinfo-output value="xml/tripinfo_rl_cluster3839130731_cluster_11644940326_11644940327_11648561426_3.xml"/>
    </output>

    <traci_server>
        <remote-port value="35893"/>
    </traci_server>

</configuration>
-->

<tripinfos xmlns:xsi="http://www.w3.org/2001/XMLSchema-instance" xsi:noNamespaceSchemaLocation="http://sumo.dlr.de/xsd/tripinfo_file.xsd">
    <tripinfo id="flow_route_96_duration_20250327_2220.0" depart="0.00" departLane="1341093416#0_0" departPos="184.53" departSpeed="0.00" departDelay="0.00" arrival="20.00" arrivalLane="1254519229#0_1" arrivalPos="3.62" arrivalSpeed="5.63" duration="20.00" routeLength="114.10" waitingTime="0.00" waitingCount="0" stopTime="0.00" timeLoss="11.88" rerouteNo="0" devices="tripinfo_flow_route_96_duration_20250327_2220.0" vType="car" speedFactor="1.01" vaporized=""/>
    <tripinfo id="flow_route_123_duration_20250327_2220.0" depart="0.00" departLane="189240000#0-AddedOnRampEdge_0" departPos="5.69" departSpeed="0.00" departDelay="0.00" arrival="22.00" arrivalLane="1254519229#0_0" arrivalPos="19.69" arrivalSpeed="11.80" duration="22.00" routeLength="156.33" waitingTime="0.00" waitingCount="0" stopTime="0.00" timeLoss="10.61" rerouteNo="0" devices="tripinfo_flow_route_123_duration_20250327_2220.0" vType="car" speedFactor="0.89" vaporized=""/>
    <tripinfo id="flow_route_124_duration_20250327_2220.0" depart="0.00" departLane="189240000#0-AddedOnRampEdge_0" departPos="82.66" departSpeed="0.00" departDelay="0.00" arrival="35.00" arrivalLane="1254519225#0.109_3" arrivalPos="34.02" arrivalSpeed="15.35" duration="35.00" routeLength="196.39" waitingTime="3.00" waitingCount="1" stopTime="0.00" timeLoss="20.54" rerouteNo="0" devices="tripinfo_flow_route_124_duration_20250327_2220.0" vType="car" speedFactor="0.94" vaporized=""/>
    <tripinfo id="flow_route_96_duration_20250327_2220.1" depart="20.00" departLane="1341093416#0_0" departPos="257.48" departSpeed="0.00" departDelay="0.00" arrival="35.00" arrivalLane="1254519229#0_1" arrivalPos="50.41" arrivalSpeed="11.80" duration="15.00" routeLength="87.94" waitingTime="0.00" waitingCount="0" stopTime="0.00" timeLoss="8.15" rerouteNo="0" devices="tripinfo_flow_route_96_duration_20250327_2220.1" vType="car" speedFactor="1.03" vaporized=""/>
    <tripinfo id="flow_route_94_duration_20250327_2220.0" depart="0.00" departLane="1341093416#0_0" departPos="204.30" departSpeed="0.00" departDelay="0.00" arrival="37.00" arrivalLane="799091563#0_0" arrivalPos="338.33" arrivalSpeed="16.41" duration="37.00" routeLength="440.38" waitingTime="0.00" waitingCount="0" stopTime="0.00" timeLoss="9.94" rerouteNo="0" devices="tripinfo_flow_route_94_duration_20250327_2220.0" vType="car" speedFactor="1.06" vaporized=""/>
    <tripinfo id="flow_route_111_duration_20250327_2220.0" depart="0.00" departLane="1253188486#8_0" departPos="138.93" departSpeed="0.00" departDelay="0.00" arrival="46.00" arrivalLane="1254519229#0_0" arrivalPos="3.47" arrivalSpeed="6.83" duration="46.00" routeLength="140.76" waitingTime="18.00" waitingCount="1" stopTime="0.00" timeLoss="37.29" rerouteNo="0" devices="tripinfo_flow_route_111_duration_20250327_2220.0" vType="car" speedFactor="0.83" vaporized=""/>
    <tripinfo id="flow_route_95_duration_20250327_2220.1" depart="12.00" departLane="1341093416#0_0" departPos="140.65" departSpeed="0.00" departDelay="0.00" arrival="46.00" arrivalLane="1254519225#0.109_0" arrivalPos="42.65" arrivalSpeed="14.25" duration="34.00" routeLength="284.37" waitingTime="0.00" waitingCount="0" stopTime="0.00" timeLoss="14.18" rerouteNo="0" devices="tripinfo_flow_route_95_duration_20250327_2220.1" vType="car" speedFactor="0.86" vaporized=""/>
    <tripinfo id="flow_route_111_duration_20250327_2220.1" depart="12.00" departLane="1253188486#8_0" departPos="75.33" departSpeed="0.00" departDelay="0.00" arrival="46.00" arrivalLane="1254519229#0_1" arrivalPos="3.68" arrivalSpeed="7.45" duration="34.00" routeLength="204.56" waitingTime="1.00" waitingCount="1" stopTime="0.00" timeLoss="21.41" rerouteNo="0" devices="tripinfo_flow_route_111_duration_20250327_2220.1" vType="car" speedFactor="1.09" vaporized=""/>
    <tripinfo id="flow_route_95_duration_20250327_2220.0" depart="0.00" departLane="1341093416#0_0" departPos="1.65" departSpeed="0.00" departDelay="0.00" arrival="48.00" arrivalLane="1254519225#0.109_0" arrivalPos="44.45" arrivalSpeed="15.36" duration="48.00" routeLength="425.17" waitingTime="0.00" waitingCount="0" stopTime="0.00" timeLoss="20.36" rerouteNo="0" devices="tripinfo_flow_route_95_duration_20250327_2220.0" vType="car" speedFactor="0.94" vaporized=""/>
    <tripinfo id="flow_route_111_duration_20250327_2220.2" depart="24.00" departLane="1253188486#8_0" departPos="133.54" departSpeed="0.00" departDelay="0.00" arrival="55.00" arrivalLane="1254519229#0_0" arrivalPos="70.63" arrivalSpeed="12.25" duration="31.00" routeLength="213.31" waitingTime="0.00" waitingCount="0" stopTime="0.00" timeLoss="17.80" rerouteNo="0" devices="tripinfo_flow_route_111_duration_20250327_2220.2" vType="car" speedFactor="1.12" vaporized=""/>
    <tripinfo id="flow_route_104_duration_20250327_2220.0" depart="0.00" departLane="189240001_0" departPos="36.52" departSpeed="0.00" departDelay="0.00" arrival="56.00" arrivalLane="1254519225#0.109_0" arrivalPos="30.66" arrivalSpeed="15.39" duration="56.00" routeLength="198.30" waitingTime="24.00" waitingCount="1" stopTime="0.00" timeLoss="43.57" rerouteNo="0" devices="tripinfo_flow_route_104_duration_20250327_2220.0" vType="car" speedFactor="1.08" vaporized=""/>
    <tripinfo id="flow_route_104_duration_20250327_2220.1" depart="30.00" departLane="189240001_0" departPos="12.47" departSpeed="0.00" departDelay="0.00" arrival="56.00" arrivalLane="1254519225#0.109_0" arrivalPos="2.02" arrivalSpeed="14.56" duration="26.00" routeLength="193.72" waitingTime="0.00" waitingCount="0" stopTime="0.00" timeLoss="12.64" rerouteNo="0" devices="tripinfo_flow_route_104_duration_20250327_2220.1" vType="car" speedFactor="0.93" vaporized=""/>
    <tripinfo id="flow_route_112_duration_20250327_2220.0" depart="0.00" departLane="1253188486#8_0" departPos="64.90" departSpeed="0.00" departDelay="0.00" arrival="64.00" arrivalLane="799091563#0_0" arrivalPos="282.23" arrivalSpeed="16.44" duration="64.00" routeLength="472.04" waitingTime="12.00" waitingCount="1" stopTime="0.00" timeLoss="34.15" rerouteNo="0" devices="tripinfo_flow_route_112_duration_20250327_2220.0" vType="car" speedFactor="1.05" vaporized=""/>
    <tripinfo id="flow_route_111_duration_20250327_2220.3" depart="36.00" departLane="1253188486#8_0" departPos="31.74" departSpeed="0.00" departDelay="0.00" arrival="66.00" arrivalLane="1254519229#0_0" arrivalPos="54.51" arrivalSpeed="16.52" duration="30.00" routeLength="298.99" waitingTime="0.00" waitingCount="0" stopTime="0.00" timeLoss="11.01" rerouteNo="0" devices="tripinfo_flow_route_111_duration_20250327_2220.3" vType="car" speedFactor="0.94" vaporized=""/>
    <tripinfo id="flow_route_105_duration_20250327_2220.0" depart="1.00" departLane="189240001_0" departPos="25.23" departSpeed="0.00" departDelay="1.00" arrival="73.00" arrivalLane="799091563#0_2" arrivalPos="224.02" arrivalSpeed="16.14" duration="72.00" routeLength="308.35" waitingTime="27.00" waitingCount="2" stopTime="0.00" timeLoss="53.03" rerouteNo="0" devices="tripinfo_flow_route_105_duration_20250327_2220.0" vType="car" speedFactor="1.03" vaporized=""/>
    <tripinfo id="flow_route_96_duration_20250327_2220.2" depart="40.00" departLane="1341093416#0_0" departPos="112.79" departSpeed="0.00" departDelay="0.00" arrival="82.00" arrivalLane="1254519229#0_1" arrivalPos="9.98" arrivalSpeed="6.97" duration="42.00" routeLength="192.20" waitingTime="11.00" waitingCount="1" stopTime="0.00" timeLoss="29.57" rerouteNo="0" devices="tripinfo_flow_route_96_duration_20250327_2220.2" vType="car" speedFactor="1.16" vaporized=""/>
    <tripinfo id="flow_route_123_duration_20250327_2220.1" depart="30.00" departLane="189240000#0-AddedOnRampEdge_0" departPos="90.31" departSpeed="0.00" departDelay="0.00" arrival="84.00" arrivalLane="1254519229#0_0" arrivalPos="24.01" arrivalSpeed="8.20" duration="54.00" routeLength="76.03" waitingTime="34.00" waitingCount="1" stopTime="0.00" timeLoss="48.27" rerouteNo="0" devices="tripinfo_flow_route_123_duration_20250327_2220.1" vType="car" speedFactor="0.88" vaporized=""/>
    <tripinfo id="flow_route_94_duration_20250327_2220.1" depart="30.00" departLane="1341093416#0_0" departPos="209.62" departSpeed="0.00" departDelay="0.00" arrival="91.00" arrivalLane="799091563#0_0" arrivalPos="89.89" arrivalSpeed="13.26" duration="61.00" routeLength="186.62" waitingTime="29.00" waitingCount="1" stopTime="0.00" timeLoss="49.66" rerouteNo="0" devices="tripinfo_flow_route_94_duration_20250327_2220.1" vType="car" speedFactor="0.99" vaporized=""/>
    <tripinfo id="flow_route_95_duration_20250327_2220.3" depart="36.00" departLane="1341093416#0_0" departPos="90.84" departSpeed="0.00" departDelay="0.00" arrival="94.00" arrivalLane="1254519225#0.109_0" arrivalPos="1.86" arrivalSpeed="14.34" duration="58.00" routeLength="293.39" waitingTime="13.00" waitingCount="1" stopTime="0.00" timeLoss="38.30" rerouteNo="0" devices="tripinfo_flow_route_95_duration_20250327_2220.3" vType="car" speedFactor="0.94" vaporized=""/>
    <tripinfo id="flow_route_95_duration_20250327_2220.2" depart="24.00" departLane="1341093416#0_0" departPos="108.74" departSpeed="0.00" departDelay="0.00" arrival="95.00" arrivalLane="1254519225#0.109_0" arrivalPos="51.43" arrivalSpeed="15.92" duration="71.00" routeLength="325.06" waitingTime="28.00" waitingCount="1" stopTime="0.00" timeLoss="50.15" rerouteNo="0" devices="tripinfo_flow_route_95_duration_20250327_2220.2" vType="car" speedFactor="1.05" vaporized=""/>
    <tripinfo id="flow_route_95_duration_20250327_2220.4" depart="48.00" departLane="1341093416#0_0" departPos="61.18" departSpeed="0.00" departDelay="0.00" arrival="99.00" arrivalLane="1254519225#0.109_0" arrivalPos="60.18" arrivalSpeed="16.45" duration="51.00" routeLength="381.37" waitingTime="2.00" waitingCount="1" stopTime="0.00" timeLoss="27.07" rerouteNo="0" devices="tripinfo_flow_route_95_duration_20250327_2220.4" vType="car" speedFactor="1.02" vaporized=""/>
    <tripinfo id="flow_route_111_duration_20250327_2220.4" depart="48.00" departLane="1253188486#8_0" departPos="41.21" departSpeed="0.00" departDelay="0.00" arrival="122.00" arrivalLane="1254519229#0_0" arrivalPos="21.01" arrivalSpeed="8.75" duration="74.00" routeLength="256.03" waitingTime="35.00" waitingCount="1" stopTime="0.00" timeLoss="58.36" rerouteNo="0" devices="tripinfo_flow_route_111_duration_20250327_2220.4" vType="car" speedFactor="1.01" vaporized=""/>
</tripinfos>
