<?xml version="1.0" encoding="UTF-8"?>

<!-- generated on 2025-05-06 21:09:15 by Eclipse SUMO sumo Version 1.20.0
<configuration xmlns:xsi="http://www.w3.org/2001/XMLSchema-instance" xsi:noNamespaceSchemaLocation="http://sumo.dlr.de/xsd/sumoConfiguration.xsd">

    <input>
        <net-file value="osm.net.xml"/>
        <route-files value="xml/route_rl_cluster3828547534_cluster_1507433914_2954854770_2954854771_2954854772_#9more_9.rou.xml"/>
    </input>

    <output>
        <tripinfo-output value="xml/tripinfo_rl_cluster3828547534_cluster_1507433914_2954854770_2954854771_2954854772_#9more_9.xml"/>
    </output>

    <traci_server>
        <remote-port value="33779"/>
    </traci_server>

</configuration>
-->

<tripinfos xmlns:xsi="http://www.w3.org/2001/XMLSchema-instance" xsi:noNamespaceSchemaLocation="http://sumo.dlr.de/xsd/tripinfo_file.xsd">
    <tripinfo id="flow_route_6_duration_without_traffic.0" depart="0.00" departLane="1252820505#0_0" departPos="39.30" departSpeed="0.00" departDelay="0.00" arrival="18.00" arrivalLane="379698350#0_0" arrivalPos="9.38" arrivalSpeed="13.97" duration="18.00" routeLength="129.45" waitingTime="0.00" waitingCount="0" stopTime="0.00" timeLoss="9.92" rerouteNo="0" devices="tripinfo_flow_route_6_duration_without_traffic.0" vType="car" speedFactor="1.01" vaporized=""/>
    <tripinfo id="flow_route_22_duration_without_traffic.0" depart="0.00" departLane="137415945#0_0" departPos="8.70" departSpeed="0.00" departDelay="0.00" arrival="24.00" arrivalLane="1342054204_0" arrivalPos="47.56" arrivalSpeed="15.23" duration="24.00" routeLength="232.19" waitingTime="0.00" waitingCount="0" stopTime="0.00" timeLoss="9.09" rerouteNo="0" devices="tripinfo_flow_route_22_duration_without_traffic.0" vType="car" speedFactor="0.94" vaporized=""/>
    <tripinfo id="flow_route_24_duration_without_traffic.0" depart="5.00" departLane="137415945#0_0" departPos="11.30" departSpeed="0.00" departDelay="5.00" arrival="25.00" arrivalLane="137406408#0_0" arrivalPos="0.56" arrivalSpeed="15.27" duration="20.00" routeLength="158.26" waitingTime="0.00" waitingCount="0" stopTime="0.00" timeLoss="10.15" rerouteNo="0" devices="tripinfo_flow_route_24_duration_without_traffic.0" vType="car" speedFactor="1.09" vaporized=""/>
    <tripinfo id="flow_route_10_duration_without_traffic.0" depart="0.00" departLane="1252820505#0_0" departPos="5.24" departSpeed="0.00" departDelay="0.00" arrival="28.00" arrivalLane="1235147073.116_0" arrivalPos="0.67" arrivalSpeed="13.80" duration="28.00" routeLength="263.17" waitingTime="0.00" waitingCount="0" stopTime="0.00" timeLoss="8.26" rerouteNo="0" devices="tripinfo_flow_route_10_duration_without_traffic.0" vType="car" speedFactor="0.83" vaporized=""/>
    <tripinfo id="flow_route_8_duration_without_traffic.0" depart="0.00" departLane="133000078#0_0" departPos="54.62" departSpeed="0.00" departDelay="0.00" arrival="33.00" arrivalLane="1235147073.116_0" arrivalPos="9.03" arrivalSpeed="16.16" duration="33.00" routeLength="314.60" waitingTime="0.00" waitingCount="0" stopTime="0.00" timeLoss="12.74" rerouteNo="0" devices="tripinfo_flow_route_8_duration_without_traffic.0" vType="car" speedFactor="1.03" vaporized=""/>
    <tripinfo id="flow_route_11_duration_without_traffic.0" depart="0.00" departLane="1252820505#0_0" departPos="76.11" departSpeed="0.00" departDelay="0.00" arrival="37.00" arrivalLane="137406408#0_2" arrivalPos="68.60" arrivalSpeed="12.72" duration="37.00" routeLength="154.08" waitingTime="7.00" waitingCount="1" stopTime="0.00" timeLoss="27.06" rerouteNo="0" devices="tripinfo_flow_route_11_duration_without_traffic.0" vType="car" speedFactor="1.05" vaporized=""/>
    <tripinfo id="flow_route_8_duration_without_traffic.1" depart="20.00" departLane="133000078#0_0" departPos="6.69" departSpeed="0.00" departDelay="0.00" arrival="57.00" arrivalLane="1235147073.116_0" arrivalPos="3.62" arrivalSpeed="16.18" duration="37.00" routeLength="357.11" waitingTime="0.00" waitingCount="0" stopTime="0.00" timeLoss="13.81" rerouteNo="0" devices="tripinfo_flow_route_8_duration_without_traffic.1" vType="car" speedFactor="1.05" vaporized=""/>
    <tripinfo id="flow_route_8_duration_without_traffic.2" depart="41.00" departLane="133000078#0_0" departPos="6.16" departSpeed="0.00" departDelay="1.00" arrival="78.00" arrivalLane="1235147073.116_0" arrivalPos="2.44" arrivalSpeed="16.38" duration="37.00" routeLength="356.46" waitingTime="0.00" waitingCount="0" stopTime="0.00" timeLoss="14.16" rerouteNo="0" devices="tripinfo_flow_route_8_duration_without_traffic.2" vType="car" speedFactor="0.99" vaporized=""/>
    <tripinfo id="flow_route_5_duration_without_traffic.0" depart="0.00" departLane="291974733#0_0" departPos="43.68" departSpeed="0.00" departDelay="0.00" arrival="90.00" arrivalLane="1342054204_0" arrivalPos="62.15" arrivalSpeed="12.94" duration="90.00" routeLength="156.72" waitingTime="62.00" waitingCount="1" stopTime="0.00" timeLoss="78.88" rerouteNo="0" devices="tripinfo_flow_route_5_duration_without_traffic.0" vType="car" speedFactor="0.94" vaporized=""/>
    <tripinfo id="flow_route_23_duration_without_traffic.0" depart="0.00" departLane="137415945#0_0" departPos="0.59" departSpeed="0.00" departDelay="0.00" arrival="97.00" arrivalLane="379698350#0_2" arrivalPos="153.67" arrivalSpeed="14.18" duration="97.00" routeLength="345.44" waitingTime="53.00" waitingCount="1" stopTime="0.00" timeLoss="72.34" rerouteNo="0" devices="tripinfo_flow_route_23_duration_without_traffic.0" vType="car" speedFactor="0.86" vaporized=""/>
    <tripinfo id="flow_route_4_duration_without_traffic.0" depart="0.00" departLane="291974733#0_0" departPos="63.06" departSpeed="0.00" departDelay="0.00" arrival="99.00" arrivalLane="379698350#0_0" arrivalPos="183.76" arrivalSpeed="16.14" duration="99.00" routeLength="311.60" waitingTime="62.00" waitingCount="1" stopTime="0.00" timeLoss="80.23" rerouteNo="0" devices="tripinfo_flow_route_4_duration_without_traffic.0" vType="car" speedFactor="1.06" vaporized=""/>
    <tripinfo id="flow_route_12_duration_without_traffic.0" depart="0.00" departLane="133000078#0_0" departPos="66.48" departSpeed="0.00" departDelay="0.00" arrival="126.00" arrivalLane="1342054204_3" arrivalPos="21.59" arrivalSpeed="12.83" duration="126.00" routeLength="252.91" waitingTime="88.00" waitingCount="1" stopTime="0.00" timeLoss="108.68" rerouteNo="0" devices="tripinfo_flow_route_12_duration_without_traffic.0" vType="car" speedFactor="0.89" vaporized=""/>
    <tripinfo id="flow_route_7_duration_without_traffic.0" depart="0.00" departLane="133000078#0_0" departPos="116.92" departSpeed="0.00" departDelay="0.00" arrival="129.00" arrivalLane="137406408#0_1" arrivalPos="45.36" arrivalSpeed="15.55" duration="129.00" routeLength="233.24" waitingTime="91.00" waitingCount="1" stopTime="0.00" timeLoss="114.16" rerouteNo="0" devices="tripinfo_flow_route_7_duration_without_traffic.0" vType="car" speedFactor="1.08" vaporized=""/>
    <tripinfo id="flow_route_12_duration_without_traffic.1" depart="15.00" departLane="133000078#0_0" departPos="112.39" departSpeed="0.00" departDelay="0.00" arrival="129.00" arrivalLane="1342054204_3" arrivalPos="34.59" arrivalSpeed="14.74" duration="114.00" routeLength="220.00" waitingTime="79.00" waitingCount="1" stopTime="0.00" timeLoss="100.17" rerouteNo="0" devices="tripinfo_flow_route_12_duration_without_traffic.1" vType="car" speedFactor="1.03" vaporized=""/>
    <tripinfo id="flow_route_12_duration_without_traffic.2" depart="30.00" departLane="133000078#0_0" departPos="157.85" departSpeed="0.00" departDelay="0.00" arrival="131.00" arrivalLane="1342054204_3" arrivalPos="26.32" arrivalSpeed="14.35" duration="101.00" routeLength="166.27" waitingTime="71.00" waitingCount="1" stopTime="0.00" timeLoss="90.31" rerouteNo="0" devices="tripinfo_flow_route_12_duration_without_traffic.2" vType="car" speedFactor="1.12" vaporized=""/>
    <tripinfo id="flow_route_12_duration_without_traffic.3" depart="45.00" departLane="133000078#0_0" departPos="68.41" departSpeed="0.00" departDelay="0.00" arrival="136.00" arrivalLane="1342054204_3" arrivalPos="59.76" arrivalSpeed="15.15" duration="91.00" routeLength="289.15" waitingTime="49.00" waitingCount="1" stopTime="0.00" timeLoss="71.52" rerouteNo="0" devices="tripinfo_flow_route_12_duration_without_traffic.3" vType="car" speedFactor="0.93" vaporized=""/>
</tripinfos>
