<?xml version="1.0" encoding="UTF-8"?>

<!-- generated on 2025-05-06 21:08:12 by Eclipse SUMO sumo Version 1.20.0
<configuration xmlns:xsi="http://www.w3.org/2001/XMLSchema-instance" xsi:noNamespaceSchemaLocation="http://sumo.dlr.de/xsd/sumoConfiguration.xsd">

    <input>
        <net-file value="osm.net.xml"/>
        <route-files value="xml/route_rl_cluster_4110471701_632031939_3.rou.xml"/>
    </input>

    <output>
        <tripinfo-output value="xml/tripinfo_rl_cluster_4110471701_632031939_3.xml"/>
    </output>

    <traci_server>
        <remote-port value="54429"/>
    </traci_server>

</configuration>
-->

<tripinfos xmlns:xsi="http://www.w3.org/2001/XMLSchema-instance" xsi:noNamespaceSchemaLocation="http://sumo.dlr.de/xsd/tripinfo_file.xsd">
    <tripinfo id="flow_route_83_duration_20250327_2300.0" depart="0.00" departLane="423956929_0" departPos="101.16" departSpeed="0.00" departDelay="0.00" arrival="17.00" arrivalLane="186407685_0" arrivalPos="8.05" arrivalSpeed="6.86" duration="17.00" routeLength="101.45" waitingTime="0.00" waitingCount="0" stopTime="0.00" timeLoss="10.18" rerouteNo="0" devices="tripinfo_flow_route_83_duration_20250327_2300.0" vType="car" speedFactor="1.01" vaporized=""/>
    <tripinfo id="flow_route_62_duration_20250327_2300.0" depart="0.00" departLane="409155823_0" departPos="65.43" departSpeed="0.00" departDelay="0.00" arrival="23.00" arrivalLane="1091883842_0" arrivalPos="165.47" arrivalSpeed="16.29" duration="23.00" routeLength="205.45" waitingTime="0.00" waitingCount="0" stopTime="0.00" timeLoss="10.50" rerouteNo="0" devices="tripinfo_flow_route_62_duration_20250327_2300.0" vType="car" speedFactor="1.06" vaporized=""/>
    <tripinfo id="flow_route_82_duration_20250327_2300.0" depart="0.00" departLane="423956929_0" departPos="45.92" departSpeed="0.00" departDelay="0.00" arrival="24.00" arrivalLane="186407684#0_0" arrivalPos="62.79" arrivalSpeed="15.18" duration="24.00" routeLength="219.95" waitingTime="0.00" waitingCount="0" stopTime="0.00" timeLoss="8.99" rerouteNo="0" devices="tripinfo_flow_route_82_duration_20250327_2300.0" vType="car" speedFactor="0.94" vaporized=""/>
    <tripinfo id="flow_route_88_duration_20250327_2300.3" depart="9.00" departLane="430416184_0" departPos="253.21" departSpeed="0.00" departDelay="0.82" arrival="48.00" arrivalLane="186407684#0_1" arrivalPos="5.31" arrivalSpeed="7.74" duration="39.00" routeLength="69.73" waitingTime="18.00" waitingCount="1" stopTime="0.00" timeLoss="33.60" rerouteNo="0" devices="tripinfo_flow_route_88_duration_20250327_2300.3" vType="car" speedFactor="0.94" vaporized=""/>
    <tripinfo id="flow_route_87_duration_20250327_2300.0" depart="0.00" departLane="430416184_0" departPos="1.75" departSpeed="0.00" departDelay="0.00" arrival="50.00" arrivalLane="1091883842_0" arrivalPos="109.56" arrivalSpeed="14.05" duration="50.00" routeLength="408.27" waitingTime="0.00" waitingCount="0" stopTime="0.00" timeLoss="24.31" rerouteNo="0" devices="tripinfo_flow_route_87_duration_20250327_2300.0" vType="car" speedFactor="1.03" vaporized=""/>
    <tripinfo id="flow_route_88_duration_20250327_2300.0" depart="0.00" departLane="430416184_0" departPos="194.63" departSpeed="0.00" departDelay="0.00" arrival="50.00" arrivalLane="186407684#0_1" arrivalPos="3.84" arrivalSpeed="8.14" duration="50.00" routeLength="126.85" waitingTime="17.00" waitingCount="1" stopTime="0.00" timeLoss="40.70" rerouteNo="0" devices="tripinfo_flow_route_88_duration_20250327_2300.0" vType="car" speedFactor="0.83" vaporized=""/>
    <tripinfo id="flow_route_87_duration_20250327_2300.1" depart="30.00" departLane="430416184_0" departPos="276.64" departSpeed="0.00" departDelay="0.00" arrival="51.00" arrivalLane="1091883842_0" arrivalPos="141.98" arrivalSpeed="14.37" duration="21.00" routeLength="165.79" waitingTime="0.00" waitingCount="0" stopTime="0.00" timeLoss="8.17" rerouteNo="0" devices="tripinfo_flow_route_87_duration_20250327_2300.1" vType="car" speedFactor="0.88" vaporized=""/>
    <tripinfo id="flow_route_86_duration_20250327_2300.0" depart="0.00" departLane="430416184_0" departPos="215.48" departSpeed="0.00" departDelay="0.00" arrival="54.00" arrivalLane="186407685_1" arrivalPos="87.02" arrivalSpeed="13.89" duration="54.00" routeLength="195.42" waitingTime="20.00" waitingCount="1" stopTime="0.00" timeLoss="41.73" rerouteNo="0" devices="tripinfo_flow_route_86_duration_20250327_2300.0" vType="car" speedFactor="1.08" vaporized=""/>
    <tripinfo id="flow_route_88_duration_20250327_2300.4" depart="11.00" departLane="430416184_0" departPos="197.69" departSpeed="0.00" departDelay="0.09" arrival="57.00" arrivalLane="186407684#0_1" arrivalPos="28.37" arrivalSpeed="11.06" duration="46.00" routeLength="148.31" waitingTime="10.00" waitingCount="2" stopTime="0.00" timeLoss="34.79" rerouteNo="0" devices="tripinfo_flow_route_88_duration_20250327_2300.4" vType="car" speedFactor="0.86" vaporized=""/>
    <tripinfo id="flow_route_88_duration_20250327_2300.7" depart="20.00" departLane="430416184_0" departPos="238.38" departSpeed="0.00" departDelay="0.91" arrival="59.00" arrivalLane="186407684#0_1" arrivalPos="82.76" arrivalSpeed="13.86" duration="39.00" routeLength="162.01" waitingTime="8.00" waitingCount="1" stopTime="0.00" timeLoss="28.18" rerouteNo="0" devices="tripinfo_flow_route_88_duration_20250327_2300.7" vType="car" speedFactor="1.05" vaporized=""/>
    <tripinfo id="flow_route_88_duration_20250327_2300.1" depart="3.00" departLane="430416184_0" departPos="130.75" departSpeed="0.00" departDelay="0.27" arrival="60.00" arrivalLane="186407684#0_1" arrivalPos="41.08" arrivalSpeed="12.83" duration="57.00" routeLength="227.97" waitingTime="9.00" waitingCount="2" stopTime="0.00" timeLoss="41.81" rerouteNo="0" devices="tripinfo_flow_route_88_duration_20250327_2300.1" vType="car" speedFactor="1.05" vaporized=""/>
    <tripinfo id="flow_route_88_duration_20250327_2300.15" depart="41.00" departLane="430416184_0" departPos="234.74" departSpeed="0.00" departDelay="0.10" arrival="66.00" arrivalLane="186407684#0_1" arrivalPos="21.27" arrivalSpeed="11.20" duration="25.00" routeLength="104.17" waitingTime="1.00" waitingCount="1" stopTime="0.00" timeLoss="17.34" rerouteNo="0" devices="tripinfo_flow_route_88_duration_20250327_2300.15" vType="car" speedFactor="1.01" vaporized=""/>
    <tripinfo id="flow_route_88_duration_20250327_2300.18" depart="50.00" departLane="430416184_0" departPos="270.41" departSpeed="0.00" departDelay="0.91" arrival="67.00" arrivalLane="186407684#0_1" arrivalPos="60.95" arrivalSpeed="12.82" duration="17.00" routeLength="108.17" waitingTime="0.00" waitingCount="0" stopTime="0.00" timeLoss="7.37" rerouteNo="0" devices="tripinfo_flow_route_88_duration_20250327_2300.18" vType="car" speedFactor="0.83" vaporized=""/>
    <tripinfo id="flow_route_88_duration_20250327_2300.21" depart="58.00" departLane="430416184_0" departPos="276.15" departSpeed="0.00" departDelay="0.73" arrival="70.00" arrivalLane="186407684#0_1" arrivalPos="14.84" arrivalSpeed="9.55" duration="12.00" routeLength="56.32" waitingTime="0.00" waitingCount="0" stopTime="0.00" timeLoss="7.25" rerouteNo="0" devices="tripinfo_flow_route_88_duration_20250327_2300.21" vType="car" speedFactor="0.95" vaporized=""/>
    <tripinfo id="flow_route_88_duration_20250327_2300.5" depart="14.00" departLane="430416184_0" departPos="148.34" departSpeed="0.00" departDelay="0.37" arrival="74.00" arrivalLane="186407684#0_1" arrivalPos="4.07" arrivalSpeed="9.76" duration="60.00" routeLength="173.36" waitingTime="13.00" waitingCount="2" stopTime="0.00" timeLoss="48.62" rerouteNo="0" devices="tripinfo_flow_route_88_duration_20250327_2300.5" vType="car" speedFactor="1.09" vaporized=""/>
    <tripinfo id="flow_route_88_duration_20250327_2300.6" depart="17.00" departLane="430416184_0" departPos="183.20" departSpeed="0.00" departDelay="0.64" arrival="74.00" arrivalLane="186407684#0_1" arrivalPos="27.06" arrivalSpeed="10.44" duration="57.00" routeLength="161.50" waitingTime="13.00" waitingCount="2" stopTime="0.00" timeLoss="46.16" rerouteNo="0" devices="tripinfo_flow_route_88_duration_20250327_2300.6" vType="car" speedFactor="1.03" vaporized=""/>
    <tripinfo id="flow_route_88_duration_20250327_2300.2" depart="6.00" departLane="430416184_0" departPos="76.50" departSpeed="0.00" departDelay="0.55" arrival="126.00" arrivalLane="186407684#0_1" arrivalPos="49.91" arrivalSpeed="11.13" duration="120.00" routeLength="291.04" waitingTime="47.00" waitingCount="2" stopTime="0.00" timeLoss="100.16" rerouteNo="0" devices="tripinfo_flow_route_88_duration_20250327_2300.2" vType="car" speedFactor="0.89" vaporized=""/>
    <tripinfo id="flow_route_88_duration_20250327_2300.16" depart="44.00" departLane="430416184_0" departPos="193.22" departSpeed="0.00" departDelay="0.37" arrival="128.00" arrivalLane="186407684#0_1" arrivalPos="7.85" arrivalSpeed="9.44" duration="84.00" routeLength="132.26" waitingTime="38.00" waitingCount="2" stopTime="0.00" timeLoss="74.51" rerouteNo="0" devices="tripinfo_flow_route_88_duration_20250327_2300.16" vType="car" speedFactor="0.97" vaporized=""/>
    <tripinfo id="flow_route_88_duration_20250327_2300.9" depart="25.00" departLane="430416184_0" departPos="68.46" departSpeed="0.00" departDelay="0.46" arrival="129.00" arrivalLane="186407684#0_1" arrivalPos="47.97" arrivalSpeed="11.12" duration="104.00" routeLength="297.14" waitingTime="43.00" waitingCount="2" stopTime="0.00" timeLoss="85.08" rerouteNo="0" devices="tripinfo_flow_route_88_duration_20250327_2300.9" vType="car" speedFactor="0.99" vaporized=""/>
    <tripinfo id="flow_route_88_duration_20250327_2300.8" depart="22.00" departLane="430416184_0" departPos="114.69" departSpeed="0.00" departDelay="0.18" arrival="130.00" arrivalLane="186407684#0_1" arrivalPos="78.23" arrivalSpeed="12.71" duration="108.00" routeLength="281.17" waitingTime="45.00" waitingCount="2" stopTime="0.00" timeLoss="89.96" rerouteNo="0" devices="tripinfo_flow_route_88_duration_20250327_2300.8" vType="car" speedFactor="1.12" vaporized=""/>
    <tripinfo id="flow_route_88_duration_20250327_2300.10" depart="28.00" departLane="430416184_0" departPos="87.27" departSpeed="0.00" departDelay="0.73" arrival="131.00" arrivalLane="186407684#0_1" arrivalPos="2.86" arrivalSpeed="9.37" duration="103.00" routeLength="233.22" waitingTime="35.00" waitingCount="2" stopTime="0.00" timeLoss="87.38" rerouteNo="0" devices="tripinfo_flow_route_88_duration_20250327_2300.10" vType="car" speedFactor="0.93" vaporized=""/>
    <tripinfo id="flow_route_88_duration_20250327_2300.14" depart="40.00" departLane="430416184_0" departPos="165.30" departSpeed="0.00" departDelay="1.82" arrival="131.00" arrivalLane="186407684#0_1" arrivalPos="19.66" arrivalSpeed="10.82" duration="91.00" routeLength="171.99" waitingTime="36.00" waitingCount="2" stopTime="0.00" timeLoss="79.27" rerouteNo="0" devices="tripinfo_flow_route_88_duration_20250327_2300.14" vType="car" speedFactor="1.02" vaporized=""/>
    <tripinfo id="flow_route_88_duration_20250327_2300.11" depart="30.00" departLane="430416184_0" departPos="8.62" departSpeed="0.00" departDelay="0.00" arrival="134.00" arrivalLane="186407684#0_1" arrivalPos="14.02" arrivalSpeed="10.65" duration="104.00" routeLength="323.03" waitingTime="33.00" waitingCount="1" stopTime="0.00" timeLoss="83.46" rerouteNo="0" devices="tripinfo_flow_route_88_duration_20250327_2300.11" vType="car" speedFactor="0.94" vaporized=""/>
    <tripinfo id="flow_route_88_duration_20250327_2300.13" depart="38.00" departLane="430416184_0" departPos="76.37" departSpeed="0.00" departDelay="2.55" arrival="140.00" arrivalLane="186407684#0_1" arrivalPos="11.05" arrivalSpeed="10.24" duration="102.00" routeLength="252.31" waitingTime="41.00" waitingCount="3" stopTime="0.00" timeLoss="85.93" rerouteNo="0" devices="tripinfo_flow_route_88_duration_20250327_2300.13" vType="car" speedFactor="1.16" vaporized=""/>
    <tripinfo id="flow_route_88_duration_20250327_2300.17" depart="47.00" departLane="430416184_0" departPos="172.42" departSpeed="0.00" departDelay="0.64" arrival="141.00" arrivalLane="186407684#0_1" arrivalPos="63.06" arrivalSpeed="13.70" duration="94.00" routeLength="208.27" waitingTime="43.00" waitingCount="3" stopTime="0.00" timeLoss="78.91" rerouteNo="0" devices="tripinfo_flow_route_88_duration_20250327_2300.17" vType="car" speedFactor="0.89" vaporized=""/>
    <tripinfo id="flow_route_88_duration_20250327_2300.20" depart="55.00" departLane="430416184_0" departPos="167.75" departSpeed="0.00" departDelay="0.46" arrival="141.00" arrivalLane="186407684#0_1" arrivalPos="43.41" arrivalSpeed="12.23" duration="86.00" routeLength="193.29" waitingTime="38.00" waitingCount="2" stopTime="0.00" timeLoss="72.56" rerouteNo="0" devices="tripinfo_flow_route_88_duration_20250327_2300.20" vType="car" speedFactor="0.92" vaporized=""/>
    <tripinfo id="flow_route_88_duration_20250327_2300.12" depart="34.00" departLane="430416184_0" departPos="37.41" departSpeed="0.00" departDelay="1.28" arrival="146.00" arrivalLane="186407684#0_1" arrivalPos="60.38" arrivalSpeed="13.95" duration="112.00" routeLength="340.59" waitingTime="37.00" waitingCount="3" stopTime="0.00" timeLoss="89.51" rerouteNo="0" devices="tripinfo_flow_route_88_duration_20250327_2300.12" vType="car" speedFactor="0.94" vaporized=""/>
    <tripinfo id="flow_route_88_duration_20250327_2300.19" depart="52.00" departLane="430416184_0" departPos="89.01" departSpeed="0.00" departDelay="0.19" arrival="150.00" arrivalLane="186407684#0_1" arrivalPos="84.60" arrivalSpeed="14.34" duration="98.00" routeLength="313.22" waitingTime="33.00" waitingCount="1" stopTime="0.00" timeLoss="77.03" rerouteNo="0" devices="tripinfo_flow_route_88_duration_20250327_2300.19" vType="car" speedFactor="0.87" vaporized=""/>
</tripinfos>
