<?xml version="1.0" encoding="UTF-8"?>

<!-- generated on 2025-05-06 21:08:17 by Eclipse SUMO sumo Version 1.20.0
<configuration xmlns:xsi="http://www.w3.org/2001/XMLSchema-instance" xsi:noNamespaceSchemaLocation="http://sumo.dlr.de/xsd/sumoConfiguration.xsd">

    <input>
        <net-file value="osm.net.xml"/>
        <route-files value="xml/route_static_cluster3839130731_cluster_11644940326_11644940327_11648561426_3.rou.xml"/>
    </input>

    <output>
        <tripinfo-output value="xml/tripinfo_static_cluster3839130731_cluster_11644940326_11644940327_11648561426_3.xml"/>
    </output>

    <traci_server>
        <remote-port value="37561"/>
    </traci_server>

</configuration>
-->

<tripinfos xmlns:xsi="http://www.w3.org/2001/XMLSchema-instance" xsi:noNamespaceSchemaLocation="http://sumo.dlr.de/xsd/tripinfo_file.xsd">
    <tripinfo id="flow_route_123_duration_20250327_2050.0" depart="0.00" departLane="189240000#0-AddedOnRampEdge_0" departPos="5.69" departSpeed="0.00" departDelay="0.00" arrival="22.00" arrivalLane="1254519229#0_0" arrivalPos="19.69" arrivalSpeed="10.74" duration="22.00" routeLength="156.33" waitingTime="0.00" waitingCount="0" stopTime="0.00" timeLoss="10.66" rerouteNo="0" devices="tripinfo_flow_route_123_duration_20250327_2050.0" vType="car" speedFactor="0.89" vaporized=""/>
    <tripinfo id="flow_route_96_duration_20250327_2050.0" depart="0.00" departLane="1341093416#0_0" departPos="184.53" departSpeed="0.00" departDelay="0.00" arrival="26.00" arrivalLane="1254519229#0_1" arrivalPos="3.62" arrivalSpeed="4.86" duration="26.00" routeLength="114.10" waitingTime="0.00" waitingCount="0" stopTime="0.00" timeLoss="17.85" rerouteNo="0" devices="tripinfo_flow_route_96_duration_20250327_2050.0" vType="car" speedFactor="1.01" vaporized=""/>
    <tripinfo id="flow_route_111_duration_20250327_2050.0" depart="0.00" departLane="1253188486#8_0" departPos="138.93" departSpeed="0.00" departDelay="0.00" arrival="32.00" arrivalLane="1254519229#0_1" arrivalPos="3.47" arrivalSpeed="7.14" duration="32.00" routeLength="140.76" waitingTime="5.00" waitingCount="1" stopTime="0.00" timeLoss="23.52" rerouteNo="0" devices="tripinfo_flow_route_111_duration_20250327_2050.0" vType="car" speedFactor="0.83" vaporized=""/>
    <tripinfo id="flow_route_96_duration_20250327_2050.1" depart="6.00" departLane="1341093416#0_0" departPos="243.38" departSpeed="0.00" departDelay="0.00" arrival="32.00" arrivalLane="1254519229#0_1" arrivalPos="65.59" arrivalSpeed="10.05" duration="26.00" routeLength="117.22" waitingTime="1.00" waitingCount="1" stopTime="0.00" timeLoss="17.79" rerouteNo="0" devices="tripinfo_flow_route_96_duration_20250327_2050.1" vType="car" speedFactor="1.05" vaporized=""/>
    <tripinfo id="flow_route_124_duration_20250327_2050.0" depart="0.00" departLane="189240000#0-AddedOnRampEdge_0" departPos="82.66" departSpeed="0.00" departDelay="0.00" arrival="36.00" arrivalLane="1254519225#0.109_3" arrivalPos="34.02" arrivalSpeed="14.59" duration="36.00" routeLength="196.39" waitingTime="4.00" waitingCount="1" stopTime="0.00" timeLoss="21.63" rerouteNo="0" devices="tripinfo_flow_route_124_duration_20250327_2050.0" vType="car" speedFactor="0.94" vaporized=""/>
    <tripinfo id="flow_route_94_duration_20250327_2050.0" depart="0.00" departLane="1341093416#0_0" departPos="204.30" departSpeed="0.00" departDelay="0.00" arrival="37.00" arrivalLane="799091563#0_0" arrivalPos="338.33" arrivalSpeed="16.50" duration="37.00" routeLength="440.38" waitingTime="0.00" waitingCount="0" stopTime="0.00" timeLoss="10.44" rerouteNo="0" devices="tripinfo_flow_route_94_duration_20250327_2050.0" vType="car" speedFactor="1.06" vaporized=""/>
    <tripinfo id="flow_route_111_duration_20250327_2050.1" depart="5.00" departLane="1253188486#8_0" departPos="230.38" departSpeed="0.00" departDelay="0.00" arrival="37.00" arrivalLane="1254519229#0_0" arrivalPos="50.41" arrivalSpeed="10.14" duration="32.00" routeLength="96.24" waitingTime="11.00" waitingCount="1" stopTime="0.00" timeLoss="26.20" rerouteNo="0" devices="tripinfo_flow_route_111_duration_20250327_2050.1" vType="car" speedFactor="1.03" vaporized=""/>
    <tripinfo id="flow_route_124_duration_20250327_2050.2" depart="8.00" departLane="189240000#0-AddedOnRampEdge_0" departPos="90.31" departSpeed="0.00" departDelay="0.50" arrival="39.00" arrivalLane="1254519225#0.109_3" arrivalPos="47.70" arrivalSpeed="14.55" duration="31.00" routeLength="202.42" waitingTime="0.00" waitingCount="0" stopTime="0.00" timeLoss="15.27" rerouteNo="0" devices="tripinfo_flow_route_124_duration_20250327_2050.2" vType="car" speedFactor="0.88" vaporized=""/>
    <tripinfo id="flow_route_111_duration_20250327_2050.2" depart="10.00" departLane="1253188486#8_0" departPos="31.74" departSpeed="0.00" departDelay="0.00" arrival="39.00" arrivalLane="1254519229#0_1" arrivalPos="54.51" arrivalSpeed="16.32" duration="29.00" routeLength="298.99" waitingTime="0.00" waitingCount="0" stopTime="0.00" timeLoss="10.79" rerouteNo="0" devices="tripinfo_flow_route_111_duration_20250327_2050.2" vType="car" speedFactor="0.94" vaporized=""/>
    <tripinfo id="flow_route_111_duration_20250327_2050.3" depart="15.00" departLane="1253188486#8_0" departPos="120.85" departSpeed="0.00" departDelay="0.00" arrival="40.00" arrivalLane="1254519229#0_0" arrivalPos="56.94" arrivalSpeed="16.38" duration="25.00" routeLength="212.31" waitingTime="0.00" waitingCount="0" stopTime="0.00" timeLoss="11.48" rerouteNo="0" devices="tripinfo_flow_route_111_duration_20250327_2050.3" vType="car" speedFactor="0.87" vaporized=""/>
    <tripinfo id="flow_route_104_duration_20250327_2050.0" depart="0.00" departLane="189240001_0" departPos="36.52" departSpeed="0.00" departDelay="0.00" arrival="43.00" arrivalLane="1254519225#0.109_0" arrivalPos="30.66" arrivalSpeed="15.10" duration="43.00" routeLength="198.30" waitingTime="10.00" waitingCount="1" stopTime="0.00" timeLoss="30.75" rerouteNo="0" devices="tripinfo_flow_route_104_duration_20250327_2050.0" vType="car" speedFactor="1.08" vaporized=""/>
    <tripinfo id="flow_route_104_duration_20250327_2050.1" depart="8.00" departLane="189240001_0" departPos="12.47" departSpeed="0.00" departDelay="0.50" arrival="45.00" arrivalLane="1254519225#0.109_0" arrivalPos="18.83" arrivalSpeed="14.96" duration="37.00" routeLength="210.52" waitingTime="3.00" waitingCount="1" stopTime="0.00" timeLoss="22.43" rerouteNo="0" devices="tripinfo_flow_route_104_duration_20250327_2050.1" vType="car" speedFactor="0.93" vaporized=""/>
    <tripinfo id="flow_route_112_duration_20250327_2050.2" depart="14.00" departLane="1253188486#8_0" departPos="199.14" departSpeed="0.00" departDelay="0.67" arrival="45.00" arrivalLane="799091563#0_0" arrivalPos="217.05" arrivalSpeed="15.88" duration="31.00" routeLength="272.62" waitingTime="0.00" waitingCount="0" stopTime="0.00" timeLoss="13.33" rerouteNo="0" devices="tripinfo_flow_route_112_duration_20250327_2050.2" vType="car" speedFactor="0.97" vaporized=""/>
    <tripinfo id="flow_route_111_duration_20250327_2050.4" depart="20.00" departLane="1253188486#8_0" departPos="83.17" departSpeed="0.00" departDelay="0.00" arrival="45.00" arrivalLane="1254519229#0_1" arrivalPos="14.24" arrivalSpeed="16.47" duration="25.00" routeLength="207.29" waitingTime="0.00" waitingCount="0" stopTime="0.00" timeLoss="11.67" rerouteNo="0" devices="tripinfo_flow_route_111_duration_20250327_2050.4" vType="car" speedFactor="1.01" vaporized=""/>
    <tripinfo id="flow_route_104_duration_20250327_2050.3" depart="23.00" departLane="189240001_0" departPos="56.56" departSpeed="0.00" departDelay="0.50" arrival="46.00" arrivalLane="1254519225#0.109_0" arrivalPos="11.27" arrivalSpeed="14.72" duration="23.00" routeLength="158.87" waitingTime="0.00" waitingCount="0" stopTime="0.00" timeLoss="13.36" rerouteNo="0" devices="tripinfo_flow_route_104_duration_20250327_2050.3" vType="car" speedFactor="0.99" vaporized=""/>
    <tripinfo id="flow_route_112_duration_20250327_2050.0" depart="0.00" departLane="1253188486#8_0" departPos="64.90" departSpeed="0.00" departDelay="0.00" arrival="51.00" arrivalLane="799091563#0_0" arrivalPos="282.23" arrivalSpeed="16.15" duration="51.00" routeLength="472.04" waitingTime="0.00" waitingCount="0" stopTime="0.00" timeLoss="21.19" rerouteNo="0" devices="tripinfo_flow_route_112_duration_20250327_2050.0" vType="car" speedFactor="1.05" vaporized=""/>
    <tripinfo id="flow_route_111_duration_20250327_2050.5" depart="26.00" departLane="1253188486#8_0" departPos="143.53" departSpeed="0.00" departDelay="1.00" arrival="53.00" arrivalLane="1254519229#0_0" arrivalPos="33.68" arrivalSpeed="14.42" duration="27.00" routeLength="166.37" waitingTime="0.00" waitingCount="0" stopTime="0.00" timeLoss="16.88" rerouteNo="0" devices="tripinfo_flow_route_111_duration_20250327_2050.5" vType="car" speedFactor="1.10" vaporized=""/>
    <tripinfo id="flow_route_104_duration_20250327_2050.4" depart="30.00" departLane="189240001_0" departPos="26.86" departSpeed="0.00" departDelay="0.00" arrival="53.00" arrivalLane="1254519225#0.109_0" arrivalPos="28.44" arrivalSpeed="16.47" duration="23.00" routeLength="205.73" waitingTime="0.00" waitingCount="0" stopTime="0.00" timeLoss="10.32" rerouteNo="0" devices="tripinfo_flow_route_104_duration_20250327_2050.4" vType="car" speedFactor="1.09" vaporized=""/>
    <tripinfo id="flow_route_111_duration_20250327_2050.6" depart="30.00" departLane="1253188486#8_0" departPos="171.61" departSpeed="0.00" departDelay="0.00" arrival="53.00" arrivalLane="1254519229#0_0" arrivalPos="69.53" arrivalSpeed="15.25" duration="23.00" routeLength="174.14" waitingTime="0.00" waitingCount="0" stopTime="0.00" timeLoss="11.91" rerouteNo="0" devices="tripinfo_flow_route_111_duration_20250327_2050.6" vType="car" speedFactor="1.00" vaporized=""/>
    <tripinfo id="flow_route_112_duration_20250327_2050.5" depart="36.00" departLane="1253188486#8_0" departPos="207.43" departSpeed="0.00" departDelay="2.67" arrival="56.00" arrivalLane="799091563#0_0" arrivalPos="53.60" arrivalSpeed="10.51" duration="20.00" routeLength="100.88" waitingTime="0.00" waitingCount="0" stopTime="0.00" timeLoss="11.49" rerouteNo="0" devices="tripinfo_flow_route_112_duration_20250327_2050.5" vType="car" speedFactor="0.85" vaporized=""/>
    <tripinfo id="flow_route_123_duration_20250327_2050.3" depart="45.00" departLane="189240000#0-AddedOnRampEdge_0" departPos="80.37" departSpeed="0.00" departDelay="0.00" arrival="65.00" arrivalLane="1254519229#0_1" arrivalPos="0.93" arrivalSpeed="7.08" duration="20.00" routeLength="66.40" waitingTime="0.00" waitingCount="0" stopTime="0.00" timeLoss="14.84" rerouteNo="0" devices="tripinfo_flow_route_123_duration_20250327_2050.3" vType="car" speedFactor="0.91" vaporized=""/>
    <tripinfo id="flow_route_94_duration_20250327_2050.1" depart="16.00" departLane="1341093416#0_0" departPos="50.27" departSpeed="0.00" departDelay="1.00" arrival="68.00" arrivalLane="799091563#0_0" arrivalPos="33.80" arrivalSpeed="10.36" duration="52.00" routeLength="289.88" waitingTime="10.00" waitingCount="1" stopTime="0.00" timeLoss="33.69" rerouteNo="0" devices="tripinfo_flow_route_94_duration_20250327_2050.1" vType="car" speedFactor="0.89" vaporized=""/>
    <tripinfo id="flow_route_123_duration_20250327_2050.1" depart="15.00" departLane="189240000#0-AddedOnRampEdge_0" departPos="54.76" departSpeed="0.00" departDelay="0.00" arrival="68.00" arrivalLane="1254519229#0_0" arrivalPos="47.44" arrivalSpeed="10.26" duration="53.00" routeLength="135.01" waitingTime="24.00" waitingCount="1" stopTime="0.00" timeLoss="43.57" rerouteNo="0" devices="tripinfo_flow_route_123_duration_20250327_2050.1" vType="car" speedFactor="0.92" vaporized=""/>
    <tripinfo id="flow_route_123_duration_20250327_2050.2" depart="30.00" departLane="189240000#0-AddedOnRampEdge_0" departPos="9.59" departSpeed="0.00" departDelay="0.00" arrival="68.00" arrivalLane="1254519229#0_1" arrivalPos="45.65" arrivalSpeed="10.78" duration="38.00" routeLength="181.90" waitingTime="2.00" waitingCount="1" stopTime="0.00" timeLoss="25.25" rerouteNo="0" devices="tripinfo_flow_route_123_duration_20250327_2050.2" vType="car" speedFactor="0.90" vaporized=""/>
    <tripinfo id="flow_route_112_duration_20250327_2050.1" depart="7.00" departLane="1253188486#8_0" departPos="7.95" departSpeed="0.00" departDelay="0.33" arrival="69.00" arrivalLane="799091563#0_0" arrivalPos="206.69" arrivalSpeed="16.31" duration="62.00" routeLength="453.44" waitingTime="0.00" waitingCount="0" stopTime="0.00" timeLoss="32.93" rerouteNo="0" devices="tripinfo_flow_route_112_duration_20250327_2050.1" vType="car" speedFactor="0.99" vaporized=""/>
    <tripinfo id="flow_route_104_duration_20250327_2050.2" depart="15.00" departLane="189240001_0" departPos="24.11" departSpeed="0.00" departDelay="0.00" arrival="69.00" arrivalLane="1254519225#0.109_0" arrivalPos="41.68" arrivalSpeed="13.57" duration="54.00" routeLength="221.73" waitingTime="17.00" waitingCount="1" stopTime="0.00" timeLoss="36.98" rerouteNo="0" devices="tripinfo_flow_route_104_duration_20250327_2050.2" vType="car" speedFactor="0.83" vaporized=""/>
    <tripinfo id="flow_route_96_duration_20250327_2050.2" depart="15.00" departLane="1341093416#0_0" departPos="256.38" departSpeed="0.00" departDelay="3.00" arrival="71.00" arrivalLane="1254519229#0_1" arrivalPos="9.98" arrivalSpeed="4.40" duration="56.00" routeLength="48.60" waitingTime="34.00" waitingCount="2" stopTime="0.00" timeLoss="52.24" rerouteNo="0" devices="tripinfo_flow_route_96_duration_20250327_2050.2" vType="car" speedFactor="1.16" vaporized=""/>
    <tripinfo id="flow_route_95_duration_20250327_2050.4" depart="16.00" departLane="1341093416#0_0" departPos="261.83" departSpeed="0.00" departDelay="2.67" arrival="72.00" arrivalLane="1254519225#0.109_0" arrivalPos="10.48" arrivalSpeed="13.82" duration="56.00" routeLength="131.02" waitingTime="32.00" waitingCount="1" stopTime="0.00" timeLoss="46.77" rerouteNo="0" devices="tripinfo_flow_route_95_duration_20250327_2050.4" vType="car" speedFactor="1.01" vaporized=""/>
    <tripinfo id="flow_route_96_duration_20250327_2050.3" depart="18.00" departLane="1341093416#0_0" departPos="76.46" departSpeed="0.00" departDelay="0.00" arrival="73.00" arrivalLane="1254519229#0_1" arrivalPos="2.22" arrivalSpeed="4.49" duration="55.00" routeLength="220.77" waitingTime="17.00" waitingCount="2" stopTime="0.00" timeLoss="40.24" rerouteNo="0" devices="tripinfo_flow_route_96_duration_20250327_2050.3" vType="car" speedFactor="0.93" vaporized=""/>
    <tripinfo id="flow_route_94_duration_20250327_2050.3" depart="48.00" departLane="1341093416#0_0" departPos="88.68" departSpeed="0.00" departDelay="3.00" arrival="73.00" arrivalLane="799091563#0_1" arrivalPos="0.32" arrivalSpeed="15.97" duration="25.00" routeLength="217.99" waitingTime="0.00" waitingCount="0" stopTime="0.00" timeLoss="11.63" rerouteNo="0" devices="tripinfo_flow_route_94_duration_20250327_2050.3" vType="car" speedFactor="0.99" vaporized=""/>
    <tripinfo id="flow_route_95_duration_20250327_2050.3" depart="10.00" departLane="1341093416#0_0" departPos="90.84" departSpeed="0.00" departDelay="0.00" arrival="75.00" arrivalLane="1254519225#0.109_0" arrivalPos="1.86" arrivalSpeed="13.94" duration="65.00" routeLength="293.39" waitingTime="23.00" waitingCount="1" stopTime="0.00" timeLoss="45.46" rerouteNo="0" devices="tripinfo_flow_route_95_duration_20250327_2050.3" vType="car" speedFactor="0.94" vaporized=""/>
    <tripinfo id="flow_route_95_duration_20250327_2050.1" depart="4.00" departLane="1341093416#0_0" departPos="140.65" departSpeed="0.00" departDelay="0.67" arrival="76.00" arrivalLane="1254519225#0.109_0" arrivalPos="42.65" arrivalSpeed="14.09" duration="72.00" routeLength="284.37" waitingTime="31.00" waitingCount="1" stopTime="0.00" timeLoss="51.85" rerouteNo="0" devices="tripinfo_flow_route_95_duration_20250327_2050.1" vType="car" speedFactor="0.86" vaporized=""/>
    <tripinfo id="flow_route_105_duration_20250327_2050.0" depart="1.00" departLane="189240001_0" departPos="25.23" departSpeed="0.00" departDelay="1.00" arrival="77.00" arrivalLane="799091563#0_2" arrivalPos="224.02" arrivalSpeed="16.25" duration="76.00" routeLength="308.35" waitingTime="31.00" waitingCount="2" stopTime="0.00" timeLoss="57.42" rerouteNo="0" devices="tripinfo_flow_route_105_duration_20250327_2050.0" vType="car" speedFactor="1.03" vaporized=""/>
    <tripinfo id="flow_route_95_duration_20250327_2050.2" depart="7.00" departLane="1341093416#0_0" departPos="64.91" departSpeed="0.00" departDelay="0.33" arrival="78.00" arrivalLane="1254519225#0.109_0" arrivalPos="24.74" arrivalSpeed="15.47" duration="71.00" routeLength="342.21" waitingTime="22.00" waitingCount="1" stopTime="0.00" timeLoss="49.25" rerouteNo="0" devices="tripinfo_flow_route_95_duration_20250327_2050.2" vType="car" speedFactor="1.12" vaporized=""/>
    <tripinfo id="flow_route_96_duration_20250327_2050.4" depart="27.00" departLane="1341093416#0_0" departPos="6.54" departSpeed="0.00" departDelay="3.00" arrival="78.00" arrivalLane="1254519229#0_1" arrivalPos="16.90" arrivalSpeed="7.42" duration="51.00" routeLength="305.37" waitingTime="2.00" waitingCount="2" stopTime="0.00" timeLoss="31.42" rerouteNo="0" devices="tripinfo_flow_route_96_duration_20250327_2050.4" vType="car" speedFactor="1.18" vaporized=""/>
    <tripinfo id="flow_route_94_duration_20250327_2050.2" depart="31.00" departLane="1341093416#0_0" departPos="181.46" departSpeed="0.00" departDelay="1.00" arrival="79.00" arrivalLane="799091563#0_1" arrivalPos="187.08" arrivalSpeed="16.23" duration="48.00" routeLength="311.97" waitingTime="5.00" waitingCount="1" stopTime="0.00" timeLoss="28.27" rerouteNo="0" devices="tripinfo_flow_route_94_duration_20250327_2050.2" vType="car" speedFactor="1.09" vaporized=""/>
    <tripinfo id="flow_route_95_duration_20250327_2050.0" depart="0.00" departLane="1341093416#0_0" departPos="1.65" departSpeed="0.00" departDelay="0.00" arrival="82.00" arrivalLane="1254519225#0.109_0" arrivalPos="44.45" arrivalSpeed="15.57" duration="82.00" routeLength="425.17" waitingTime="20.00" waitingCount="1" stopTime="0.00" timeLoss="54.64" rerouteNo="0" devices="tripinfo_flow_route_95_duration_20250327_2050.0" vType="car" speedFactor="0.94" vaporized=""/>
    <tripinfo id="flow_route_95_duration_20250327_2050.9" depart="33.00" departLane="1341093416#0_0" departPos="195.28" departSpeed="0.00" departDelay="3.00" arrival="83.00" arrivalLane="1254519225#0.109_0" arrivalPos="26.52" arrivalSpeed="16.17" duration="50.00" routeLength="213.61" waitingTime="15.00" waitingCount="1" stopTime="0.00" timeLoss="35.98" rerouteNo="0" devices="tripinfo_flow_route_95_duration_20250327_2050.9" vType="car" speedFactor="1.04" vaporized=""/>
    <tripinfo id="flow_route_95_duration_20250327_2050.7" depart="26.00" departLane="1341093416#0_0" departPos="140.61" departSpeed="0.00" departDelay="2.67" arrival="85.00" arrivalLane="1254519225#0.109_0" arrivalPos="18.10" arrivalSpeed="14.58" duration="59.00" routeLength="259.85" waitingTime="15.00" waitingCount="1" stopTime="0.00" timeLoss="41.64" rerouteNo="0" devices="tripinfo_flow_route_95_duration_20250327_2050.7" vType="car" speedFactor="0.97" vaporized=""/>
    <tripinfo id="flow_route_96_duration_20250327_2050.6" depart="38.00" departLane="1341093416#0_0" departPos="76.03" departSpeed="0.00" departDelay="2.00" arrival="86.00" arrivalLane="1254519229#0_1" arrivalPos="77.84" arrivalSpeed="12.82" duration="48.00" routeLength="296.82" waitingTime="1.00" waitingCount="1" stopTime="0.00" timeLoss="28.90" rerouteNo="0" devices="tripinfo_flow_route_96_duration_20250327_2050.6" vType="car" speedFactor="1.10" vaporized=""/>
    <tripinfo id="flow_route_95_duration_20250327_2050.5" depart="17.00" departLane="1341093416#0_0" departPos="41.63" departSpeed="0.00" departDelay="0.34" arrival="88.00" arrivalLane="1254519225#0.109_0" arrivalPos="40.03" arrivalSpeed="16.08" duration="71.00" routeLength="380.77" waitingTime="15.00" waitingCount="1" stopTime="0.00" timeLoss="46.65" rerouteNo="0" devices="tripinfo_flow_route_95_duration_20250327_2050.5" vType="car" speedFactor="1.13" vaporized=""/>
    <tripinfo id="flow_route_124_duration_20250327_2050.1" depart="4.00" departLane="189240000#0-AddedOnRampEdge_0" departPos="28.99" departSpeed="0.00" departDelay="0.25" arrival="91.00" arrivalLane="1254519225#0.109_3" arrivalPos="2.88" arrivalSpeed="13.67" duration="87.00" routeLength="218.92" waitingTime="46.00" waitingCount="2" stopTime="0.00" timeLoss="72.56" rerouteNo="0" devices="tripinfo_flow_route_124_duration_20250327_2050.1" vType="car" speedFactor="1.09" vaporized=""/>
    <tripinfo id="flow_route_111_duration_20250327_2050.7" depart="36.00" departLane="1253188486#8_0" departPos="37.67" departSpeed="0.00" departDelay="1.00" arrival="93.00" arrivalLane="1254519229#0_1" arrivalPos="31.08" arrivalSpeed="9.56" duration="57.00" routeLength="269.63" waitingTime="17.00" waitingCount="1" stopTime="0.00" timeLoss="40.70" rerouteNo="0" devices="tripinfo_flow_route_111_duration_20250327_2050.7" vType="car" speedFactor="1.02" vaporized=""/>
    <tripinfo id="flow_route_111_duration_20250327_2050.8" depart="40.00" departLane="1253188486#8_0" departPos="134.75" departSpeed="0.00" departDelay="0.00" arrival="93.00" arrivalLane="1254519229#0_0" arrivalPos="51.01" arrivalSpeed="10.51" duration="53.00" routeLength="192.48" waitingTime="19.00" waitingCount="1" stopTime="0.00" timeLoss="41.35" rerouteNo="0" devices="tripinfo_flow_route_111_duration_20250327_2050.8" vType="car" speedFactor="1.02" vaporized=""/>
    <tripinfo id="flow_route_124_duration_20250327_2050.5" depart="19.00" departLane="189240000#0-AddedOnRampEdge_0" departPos="87.62" departSpeed="0.00" departDelay="0.25" arrival="95.00" arrivalLane="1254519225#0.109_3" arrivalPos="34.11" arrivalSpeed="15.05" duration="76.00" routeLength="191.52" waitingTime="41.00" waitingCount="2" stopTime="0.00" timeLoss="63.78" rerouteNo="0" devices="tripinfo_flow_route_124_duration_20250327_2050.5" vType="car" speedFactor="1.18" vaporized=""/>
    <tripinfo id="flow_route_111_duration_20250327_2050.10" depart="55.00" departLane="1253188486#8_0" departPos="194.56" departSpeed="0.00" departDelay="5.00" arrival="95.00" arrivalLane="1254519229#0_0" arrivalPos="46.12" arrivalSpeed="11.23" duration="40.00" routeLength="127.78" waitingTime="13.00" waitingCount="1" stopTime="0.00" timeLoss="31.97" rerouteNo="0" devices="tripinfo_flow_route_111_duration_20250327_2050.10" vType="car" speedFactor="1.06" vaporized=""/>
    <tripinfo id="flow_route_111_duration_20250327_2050.11" depart="55.00" departLane="1253188486#8_0" departPos="139.74" departSpeed="0.00" departDelay="0.00" arrival="97.00" arrivalLane="1254519229#0_0" arrivalPos="45.24" arrivalSpeed="11.57" duration="42.00" routeLength="181.72" waitingTime="8.00" waitingCount="1" stopTime="0.00" timeLoss="30.72" rerouteNo="0" devices="tripinfo_flow_route_111_duration_20250327_2050.11" vType="car" speedFactor="1.09" vaporized=""/>
    <tripinfo id="flow_route_104_duration_20250327_2050.5" depart="39.00" departLane="189240001_0" departPos="8.06" departSpeed="0.00" departDelay="1.50" arrival="98.00" arrivalLane="1254519225#0.109_0" arrivalPos="26.88" arrivalSpeed="15.44" duration="59.00" routeLength="222.98" waitingTime="25.00" waitingCount="1" stopTime="0.00" timeLoss="45.37" rerouteNo="0" devices="tripinfo_flow_route_104_duration_20250327_2050.5" vType="car" speedFactor="1.00" vaporized=""/>
    <tripinfo id="flow_route_111_duration_20250327_2050.9" depart="45.00" departLane="1253188486#8_0" departPos="28.05" departSpeed="0.00" departDelay="0.00" arrival="99.00" arrivalLane="1254519229#0_1" arrivalPos="73.10" arrivalSpeed="12.80" duration="54.00" routeLength="321.26" waitingTime="8.00" waitingCount="1" stopTime="0.00" timeLoss="34.37" rerouteNo="0" devices="tripinfo_flow_route_111_duration_20250327_2050.9" vType="car" speedFactor="0.88" vaporized=""/>
    <tripinfo id="flow_route_104_duration_20250327_2050.7" depart="53.00" departLane="189240001_0" departPos="66.66" departSpeed="0.00" departDelay="0.50" arrival="99.00" arrivalLane="1254519225#0.109_2" arrivalPos="57.37" arrivalSpeed="15.87" duration="46.00" routeLength="194.87" waitingTime="17.00" waitingCount="1" stopTime="0.00" timeLoss="33.69" rerouteNo="0" devices="tripinfo_flow_route_104_duration_20250327_2050.7" vType="car" speedFactor="0.96" vaporized=""/>
    <tripinfo id="flow_route_112_duration_20250327_2050.4" depart="27.00" departLane="1253188486#8_0" departPos="25.69" departSpeed="0.00" departDelay="0.34" arrival="100.00" arrivalLane="799091563#0_0" arrivalPos="138.66" arrivalSpeed="15.04" duration="73.00" routeLength="367.68" waitingTime="19.00" waitingCount="1" stopTime="0.00" timeLoss="49.04" rerouteNo="0" devices="tripinfo_flow_route_112_duration_20250327_2050.4" vType="car" speedFactor="1.03" vaporized=""/>
    <tripinfo id="flow_route_104_duration_20250327_2050.6" depart="47.00" departLane="189240001_0" departPos="26.08" departSpeed="0.00" departDelay="2.00" arrival="102.00" arrivalLane="1254519225#0.109_0" arrivalPos="41.09" arrivalSpeed="15.54" duration="55.00" routeLength="219.17" waitingTime="20.00" waitingCount="1" stopTime="0.00" timeLoss="40.00" rerouteNo="0" devices="tripinfo_flow_route_104_duration_20250327_2050.6" vType="car" speedFactor="0.94" vaporized=""/>
    <tripinfo id="flow_route_112_duration_20250327_2050.7" depart="47.00" departLane="1253188486#8_0" departPos="50.91" departSpeed="0.00" departDelay="0.34" arrival="104.00" arrivalLane="799091563#0_0" arrivalPos="175.77" arrivalSpeed="16.59" duration="57.00" routeLength="379.57" waitingTime="9.00" waitingCount="1" stopTime="0.00" timeLoss="32.73" rerouteNo="0" devices="tripinfo_flow_route_112_duration_20250327_2050.7" vType="car" speedFactor="1.02" vaporized=""/>
    <tripinfo id="flow_route_112_duration_20250327_2050.3" depart="20.00" departLane="1253188486#8_0" departPos="21.10" departSpeed="0.00" departDelay="0.00" arrival="113.00" arrivalLane="799091563#0_0" arrivalPos="376.78" arrivalSpeed="16.46" duration="93.00" routeLength="610.39" waitingTime="25.00" waitingCount="1" stopTime="0.00" timeLoss="54.68" rerouteNo="0" devices="tripinfo_flow_route_112_duration_20250327_2050.3" vType="car" speedFactor="1.17" vaporized=""/>
    <tripinfo id="flow_route_112_duration_20250327_2050.6" depart="40.00" departLane="1253188486#8_0" departPos="3.59" departSpeed="0.00" departDelay="0.00" arrival="117.00" arrivalLane="799091563#0_0" arrivalPos="311.79" arrivalSpeed="15.71" duration="77.00" routeLength="562.91" waitingTime="9.00" waitingCount="1" stopTime="0.00" timeLoss="40.38" rerouteNo="0" devices="tripinfo_flow_route_112_duration_20250327_2050.6" vType="car" speedFactor="0.97" vaporized=""/>
    <tripinfo id="flow_route_112_duration_20250327_2050.8" depart="55.00" departLane="1253188486#8_0" departPos="20.75" departSpeed="0.00" departDelay="1.67" arrival="122.00" arrivalLane="799091563#0_0" arrivalPos="357.20" arrivalSpeed="16.29" duration="67.00" routeLength="591.16" waitingTime="2.00" waitingCount="1" stopTime="0.00" timeLoss="29.80" rerouteNo="0" devices="tripinfo_flow_route_112_duration_20250327_2050.8" vType="car" speedFactor="1.01" vaporized=""/>
    <tripinfo id="flow_route_96_duration_20250327_2050.5" depart="33.00" departLane="1341093416#0_0" departPos="34.08" departSpeed="0.00" departDelay="3.00" arrival="124.00" arrivalLane="1254519229#0_1" arrivalPos="56.55" arrivalSpeed="10.52" duration="91.00" routeLength="317.48" waitingTime="32.00" waitingCount="1" stopTime="0.00" timeLoss="70.95" rerouteNo="0" devices="tripinfo_flow_route_96_duration_20250327_2050.5" vType="car" speedFactor="1.04" vaporized=""/>
    <tripinfo id="flow_route_96_duration_20250327_2050.8" depart="51.00" departLane="1341093416#0_0" departPos="26.79" departSpeed="0.00" departDelay="3.00" arrival="124.00" arrivalLane="1254519229#0_1" arrivalPos="12.20" arrivalSpeed="7.29" duration="73.00" routeLength="280.42" waitingTime="30.00" waitingCount="1" stopTime="0.00" timeLoss="55.01" rerouteNo="0" devices="tripinfo_flow_route_96_duration_20250327_2050.8" vType="car" speedFactor="1.02" vaporized=""/>
    <tripinfo id="flow_route_96_duration_20250327_2050.7" depart="46.00" departLane="1341093416#0_0" departPos="107.89" departSpeed="0.00" departDelay="4.00" arrival="127.00" arrivalLane="1254519229#0_1" arrivalPos="70.60" arrivalSpeed="11.66" duration="81.00" routeLength="257.72" waitingTime="30.00" waitingCount="1" stopTime="0.00" timeLoss="64.49" rerouteNo="0" devices="tripinfo_flow_route_96_duration_20250327_2050.7" vType="car" speedFactor="1.08" vaporized=""/>
    <tripinfo id="flow_route_96_duration_20250327_2050.9" depart="57.00" departLane="1341093416#0_0" departPos="32.75" departSpeed="0.00" departDelay="3.00" arrival="127.00" arrivalLane="1254519229#0_1" arrivalPos="18.97" arrivalSpeed="8.72" duration="70.00" routeLength="281.23" waitingTime="29.00" waitingCount="1" stopTime="0.00" timeLoss="51.64" rerouteNo="0" devices="tripinfo_flow_route_96_duration_20250327_2050.9" vType="car" speedFactor="0.98" vaporized=""/>
    <tripinfo id="flow_route_95_duration_20250327_2050.11" depart="39.00" departLane="1341093416#0_0" departPos="157.20" departSpeed="0.00" departDelay="2.34" arrival="128.00" arrivalLane="1254519225#0.109_0" arrivalPos="21.50" arrivalSpeed="13.41" duration="89.00" routeLength="246.66" waitingTime="41.00" waitingCount="2" stopTime="0.00" timeLoss="73.20" rerouteNo="0" devices="tripinfo_flow_route_95_duration_20250327_2050.11" vType="car" speedFactor="1.00" vaporized=""/>