<?xml version="1.0" encoding="UTF-8"?>

<!-- generated on 2025-05-06 21:07:52 by Eclipse SUMO sumo Version 1.20.0
<configuration xmlns:xsi="http://www.w3.org/2001/XMLSchema-instance" xsi:noNamespaceSchemaLocation="http://sumo.dlr.de/xsd/sumoConfiguration.xsd">

    <input>
        <net-file value="osm.net.xml"/>
        <route-files value="xml/route_rl_cluster_11648561428_407729599_1.rou.xml"/>
    </input>

    <output>
        <tripinfo-output value="xml/tripinfo_rl_cluster_11648561428_407729599_1.xml"/>
    </output>

    <traci_server>
        <remote-port value="41589"/>
    </traci_server>

</configuration>
-->

<tripinfos xmlns:xsi="http://www.w3.org/2001/XMLSchema-instance" xsi:noNamespaceSchemaLocation="http://sumo.dlr.de/xsd/tripinfo_file.xsd">
    <tripinfo id="flow_route_106_duration_20250327_2200.0" depart="0.00" departLane="1254519229#0_0" departPos="19.69" departSpeed="0.00" departDelay="0.00" arrival="17.00" arrivalLane="430416184_1" arrivalPos="13.15" arrivalSpeed="9.64" duration="17.00" routeLength="94.14" waitingTime="0.00" waitingCount="0" stopTime="0.00" timeLoss="10.37" rerouteNo="0" devices="tripinfo_flow_route_106_duration_20250327_2200.0" vType="car" speedFactor="1.01" vaporized=""/>
    <tripinfo id="flow_route_107_duration_20250327_2200.0" depart="0.00" departLane="1254519229#0_0" departPos="43.39" departSpeed="0.00" departDelay="0.00" arrival="20.00" arrivalLane="1342963997_0" arrivalPos="88.24" arrivalSpeed="14.75" duration="20.00" routeLength="145.44" waitingTime="0.00" waitingCount="0" stopTime="0.00" timeLoss="10.92" rerouteNo="0" devices="tripinfo_flow_route_107_duration_20250327_2200.0" vType="car" speedFactor="1.08" vaporized=""/>
    <tripinfo id="flow_route_106_duration_20250327_2200.1" depart="9.00" departLane="1254519229#0_0" departPos="53.55" departSpeed="0.00" departDelay="0.43" arrival="25.00" arrivalLane="430416184_1" arrivalPos="1.75" arrivalSpeed="4.89" duration="16.00" routeLength="48.87" waitingTime="0.00" waitingCount="0" stopTime="0.00" timeLoss="11.77" rerouteNo="0" devices="tripinfo_flow_route_106_duration_20250327_2200.1" vType="car" speedFactor="0.83" vaporized=""/>
    <tripinfo id="flow_route_106_duration_20250327_2200.2" depart="18.00" departLane="1254519229#0_0" departPos="69.67" departSpeed="0.00" departDelay="0.86" arrival="29.00" arrivalLane="430416184_1" arrivalPos="17.43" arrivalSpeed="8.13" duration="11.00" routeLength="48.44" waitingTime="0.00" waitingCount="0" stopTime="0.00" timeLoss="7.34" rerouteNo="0" devices="tripinfo_flow_route_106_duration_20250327_2200.2" vType="car" speedFactor="0.94" vaporized=""/>
    <tripinfo id="flow_route_101_duration_20250327_2200.0" depart="0.00" departLane="186409193_0" departPos="43.42" departSpeed="0.00" departDelay="0.00" arrival="34.00" arrivalLane="430416184_0" arrivalPos="206.05" arrivalSpeed="16.29" duration="34.00" routeLength="297.12" waitingTime="0.00" waitingCount="0" stopTime="0.00" timeLoss="14.80" rerouteNo="0" devices="tripinfo_flow_route_101_duration_20250327_2200.0" vType="car" speedFactor="0.94" vaporized=""/>
    <tripinfo id="flow_route_100_duration_20250327_2200.0" depart="0.00" departLane="186409193_0" departPos="2.55" departSpeed="0.00" departDelay="0.00" arrival="37.00" arrivalLane="1254519229#0_1" arrivalPos="70.90" arrivalSpeed="7.63" duration="37.00" routeLength="299.97" waitingTime="0.00" waitingCount="0" stopTime="0.00" timeLoss="18.24" rerouteNo="0" devices="tripinfo_flow_route_100_duration_20250327_2200.0" vType="car" speedFactor="1.06" vaporized=""/>
    <tripinfo id="flow_route_107_duration_20250327_2200.1" depart="15.00" departLane="1254519229#0_0" departPos="21.05" departSpeed="0.00" departDelay="0.00" arrival="37.00" arrivalLane="1342963997_0" arrivalPos="101.68" arrivalSpeed="16.18" duration="22.00" routeLength="181.21" waitingTime="0.00" waitingCount="0" stopTime="0.00" timeLoss="10.65" rerouteNo="0" devices="tripinfo_flow_route_107_duration_20250327_2200.1" vType="car" speedFactor="0.89" vaporized=""/>
    <tripinfo id="flow_route_106_duration_20250327_2200.3" depart="26.00" departLane="1254519229#0_0" departPos="40.82" departSpeed="0.00" departDelay="0.29" arrival="42.00" arrivalLane="430416184_1" arrivalPos="13.36" arrivalSpeed="8.75" duration="16.00" routeLength="73.22" waitingTime="0.00" waitingCount="0" stopTime="0.00" timeLoss="10.69" rerouteNo="0" devices="tripinfo_flow_route_106_duration_20250327_2200.3" vType="car" speedFactor="1.09" vaporized=""/>
    <tripinfo id="flow_route_101_duration_20250327_2200.1" depart="12.00" departLane="186409193_0" departPos="26.41" departSpeed="0.00" departDelay="0.00" arrival="43.00" arrivalLane="430416184_0" arrivalPos="134.81" arrivalSpeed="15.29" duration="31.00" routeLength="242.90" waitingTime="0.00" waitingCount="0" stopTime="0.00" timeLoss="14.96" rerouteNo="0" devices="tripinfo_flow_route_101_duration_20250327_2200.1" vType="car" speedFactor="1.05" vaporized=""/>
    <tripinfo id="flow_route_107_duration_20250327_2200.2" depart="30.00" departLane="1254519229#0_0" departPos="50.41" departSpeed="0.00" departDelay="0.00" arrival="47.00" arrivalLane="1342963997_0" arrivalPos="55.14" arrivalSpeed="12.84" duration="17.00" routeLength="105.31" waitingTime="0.00" waitingCount="0" stopTime="0.00" timeLoss="10.09" rerouteNo="0" devices="tripinfo_flow_route_107_duration_20250327_2200.2" vType="car" speedFactor="1.03" vaporized=""/>
    <tripinfo id="flow_route_107_duration_20250327_2200.3" depart="45.00" departLane="1254519229#0_0" departPos="60.83" departSpeed="0.00" departDelay="0.00" arrival="61.00" arrivalLane="1342963997_0" arrivalPos="54.18" arrivalSpeed="12.53" duration="16.00" routeLength="93.93" waitingTime="0.00" waitingCount="0" stopTime="0.00" timeLoss="9.76" rerouteNo="0" devices="tripinfo_flow_route_107_duration_20250327_2200.3" vType="car" speedFactor="0.93" vaporized=""/>
    <tripinfo id="flow_route_106_duration_20250327_2200.6" depart="52.00" departLane="1254519229#0_0" departPos="54.51" departSpeed="0.00" departDelay="0.57" arrival="64.00" arrivalLane="430416184_1" arrivalPos="8.62" arrivalSpeed="9.14" duration="12.00" routeLength="54.79" waitingTime="0.00" waitingCount="0" stopTime="0.00" timeLoss="7.53" rerouteNo="0" devices="tripinfo_flow_route_106_duration_20250327_2200.6" vType="car" speedFactor="0.94" vaporized=""/>
    <tripinfo id="flow_route_106_duration_20250327_2200.4" depart="36.00" departLane="1254519229#0_0" departPos="31.56" departSpeed="0.00" departDelay="1.72" arrival="68.00" arrivalLane="430416184_1" arrivalPos="271.56" arrivalSpeed="16.11" duration="32.00" routeLength="340.69" waitingTime="0.00" waitingCount="0" stopTime="0.00" timeLoss="10.37" rerouteNo="0" devices="tripinfo_flow_route_106_duration_20250327_2200.4" vType="car" speedFactor="1.05" vaporized=""/>
    <tripinfo id="flow_route_106_duration_20250327_2200.5" depart="43.00" departLane="1254519229#0_0" departPos="2.58" departSpeed="0.00" departDelay="0.15" arrival="71.00" arrivalLane="430416184_1" arrivalPos="68.46" arrivalSpeed="13.75" duration="28.00" routeLength="166.56" waitingTime="0.00" waitingCount="0" stopTime="0.00" timeLoss="16.58" rerouteNo="0" devices="tripinfo_flow_route_106_duration_20250327_2200.5" vType="car" speedFactor="0.99" vaporized=""/>
    <tripinfo id="flow_route_149_duration_20250327_2200.0" depart="0.00" departLane="186410975#0_0" departPos="192.32" departSpeed="0.00" departDelay="0.00" arrival="97.00" arrivalLane="430416184_1" arrivalPos="170.61" arrivalSpeed="16.55" duration="97.00" routeLength="523.96" waitingTime="40.00" waitingCount="1" stopTime="0.00" timeLoss="61.23" rerouteNo="0" devices="tripinfo_flow_route_149_duration_20250327_2200.0" vType="car" speedFactor="1.03" vaporized=""/>
    <tripinfo id="flow_route_101_duration_20250327_2200.2" depart="24.00" departLane="186409193_0" departPos="39.94" departSpeed="0.00" departDelay="0.00" arrival="127.00" arrivalLane="430416184_0" arrivalPos="93.11" arrivalSpeed="12.13" duration="103.00" routeLength="187.67" waitingTime="70.00" waitingCount="1" stopTime="0.00" timeLoss="89.58" rerouteNo="0" devices="tripinfo_flow_route_101_duration_20250327_2200.2" vType="car" speedFactor="0.86" vaporized=""/>
    <tripinfo id="flow_route_101_duration_20250327_2200.4" depart="48.00" departLane="186409193_0" departPos="55.88" departSpeed="0.00" departDelay="0.00" arrival="128.00" arrivalLane="430416184_0" arrivalPos="46.01" arrivalSpeed="10.28" duration="80.00" routeLength="124.63" waitingTime="51.00" waitingCount="1" stopTime="0.00" timeLoss="70.14" rerouteNo="0" devices="tripinfo_flow_route_101_duration_20250327_2200.4" vType="car" speedFactor="0.88" vaporized=""/>
    <tripinfo id="flow_route_101_duration_20250327_2200.3" depart="36.00" departLane="186409193_0" departPos="31.80" departSpeed="0.00" departDelay="0.00" arrival="140.00" arrivalLane="430416184_0" arrivalPos="256.69" arrivalSpeed="16.20" duration="104.00" routeLength="359.39" waitingTime="57.00" waitingCount="1" stopTime="0.00" timeLoss="81.26" rerouteNo="0" devices="tripinfo_flow_route_101_duration_20250327_2200.3" vType="car" speedFactor="1.12" vaporized=""/>
</tripinfos>
