<?xml version="1.0" encoding="UTF-8"?>

<!-- generated on 2025-05-06 21:08:16 by Eclipse SUMO sumo Version 1.20.0
<configuration xmlns:xsi="http://www.w3.org/2001/XMLSchema-instance" xsi:noNamespaceSchemaLocation="http://sumo.dlr.de/xsd/sumoConfiguration.xsd">

    <input>
        <net-file value="osm.net.xml"/>
        <route-files value="xml/route_static_cluster3828547534_cluster_1507433914_2954854770_2954854771_2954854772_#9more_3.rou.xml"/>
    </input>

    <output>
        <tripinfo-output value="xml/tripinfo_static_cluster3828547534_cluster_1507433914_2954854770_2954854771_2954854772_#9more_3.xml"/>
    </output>

    <traci_server>
        <remote-port value="33991"/>
    </traci_server>

</configuration>
-->

<tripinfos xmlns:xsi="http://www.w3.org/2001/XMLSchema-instance" xsi:noNamespaceSchemaLocation="http://sumo.dlr.de/xsd/tripinfo_file.xsd">
    <tripinfo id="flow_route_6_duration_20250327_2020.0" depart="0.00" departLane="1252820505#0_0" departPos="39.30" departSpeed="0.00" departDelay="0.00" arrival="18.00" arrivalLane="379698350#0_0" arrivalPos="9.38" arrivalSpeed="13.87" duration="18.00" routeLength="129.45" waitingTime="0.00" waitingCount="0" stopTime="0.00" timeLoss="9.97" rerouteNo="0" devices="tripinfo_flow_route_6_duration_20250327_2020.0" vType="car" speedFactor="1.01" vaporized=""/>
    <tripinfo id="flow_route_22_duration_20250327_2020.0" depart="0.00" departLane="137415945#0_0" departPos="8.70" departSpeed="0.00" departDelay="0.00" arrival="24.00" arrivalLane="1342054204_0" arrivalPos="47.56" arrivalSpeed="15.23" duration="24.00" routeLength="232.19" waitingTime="0.00" waitingCount="0" stopTime="0.00" timeLoss="8.92" rerouteNo="0" devices="tripinfo_flow_route_22_duration_20250327_2020.0" vType="car" speedFactor="0.94" vaporized=""/>
    <tripinfo id="flow_route_24_duration_20250327_2020.0" depart="4.00" departLane="137415945#0_0" departPos="5.05" departSpeed="0.00" departDelay="4.00" arrival="26.00" arrivalLane="137406408#0_0" arrivalPos="0.56" arrivalSpeed="15.37" duration="22.00" routeLength="164.51" waitingTime="0.00" waitingCount="0" stopTime="0.00" timeLoss="11.32" rerouteNo="0" devices="tripinfo_flow_route_24_duration_20250327_2020.0" vType="car" speedFactor="1.09" vaporized=""/>
    <tripinfo id="flow_route_10_duration_20250327_2020.0" depart="0.00" departLane="1252820505#0_0" departPos="5.24" departSpeed="0.00" departDelay="0.00" arrival="28.00" arrivalLane="1235147073.116_0" arrivalPos="0.67" arrivalSpeed="13.73" duration="28.00" routeLength="263.17" waitingTime="0.00" waitingCount="0" stopTime="0.00" timeLoss="8.26" rerouteNo="0" devices="tripinfo_flow_route_10_duration_20250327_2020.0" vType="car" speedFactor="0.83" vaporized=""/>
    <tripinfo id="flow_route_8_duration_20250327_2020.0" depart="0.00" departLane="133000078#0_0" departPos="54.62" departSpeed="0.00" departDelay="0.00" arrival="35.00" arrivalLane="1235147073.116_0" arrivalPos="9.03" arrivalSpeed="16.37" duration="35.00" routeLength="314.60" waitingTime="0.00" waitingCount="0" stopTime="0.00" timeLoss="15.04" rerouteNo="0" devices="tripinfo_flow_route_8_duration_20250327_2020.0" vType="car" speedFactor="1.03" vaporized=""/>
    <tripinfo id="flow_route_22_duration_20250327_2020.1" depart="7.00" departLane="137415945#0_0" departPos="1.65" departSpeed="0.00" departDelay="4.14" arrival="35.00" arrivalLane="1342054204_0" arrivalPos="81.91" arrivalSpeed="16.25" duration="28.00" routeLength="273.60" waitingTime="0.00" waitingCount="0" stopTime="0.00" timeLoss="11.25" rerouteNo="0" devices="tripinfo_flow_route_22_duration_20250327_2020.1" vType="car" speedFactor="1.03" vaporized=""/>
    <tripinfo id="flow_route_10_duration_20250327_2020.1" depart="8.00" departLane="1252820505#0_0" departPos="19.39" departSpeed="0.00" departDelay="1.33" arrival="36.00" arrivalLane="1235147073.116_1" arrivalPos="10.49" arrivalSpeed="14.18" duration="28.00" routeLength="258.83" waitingTime="0.00" waitingCount="0" stopTime="0.00" timeLoss="9.75" rerouteNo="0" devices="tripinfo_flow_route_10_duration_20250327_2020.1" vType="car" speedFactor="0.88" vaporized=""/>
    <tripinfo id="flow_route_10_duration_20250327_2020.2" depart="14.00" departLane="1252820505#0_0" departPos="47.53" departSpeed="0.00" departDelay="0.67" arrival="39.00" arrivalLane="1235147073.116_0" arrivalPos="9.82" arrivalSpeed="14.13" duration="25.00" routeLength="230.04" waitingTime="0.00" waitingCount="0" stopTime="0.00" timeLoss="8.81" rerouteNo="0" devices="tripinfo_flow_route_10_duration_20250327_2020.2" vType="car" speedFactor="0.87" vaporized=""/>
    <tripinfo id="flow_route_11_duration_20250327_2020.0" depart="0.00" departLane="1252820505#0_0" departPos="76.11" departSpeed="0.00" departDelay="0.00" arrival="46.00" arrivalLane="137406408#0_2" arrivalPos="68.60" arrivalSpeed="12.26" duration="46.00" routeLength="154.08" waitingTime="16.00" waitingCount="1" stopTime="0.00" timeLoss="36.44" rerouteNo="0" devices="tripinfo_flow_route_11_duration_20250327_2020.0" vType="car" speedFactor="1.05" vaporized=""/>
    <tripinfo id="flow_route_6_duration_20250327_2020.1" depart="20.00" departLane="1252820505#0_0" departPos="2.07" departSpeed="0.00" departDelay="0.00" arrival="46.00" arrivalLane="379698350#0_0" arrivalPos="80.38" arrivalSpeed="16.44" duration="26.00" routeLength="237.68" waitingTime="0.00" waitingCount="0" stopTime="0.00" timeLoss="11.08" rerouteNo="0" devices="tripinfo_flow_route_6_duration_20250327_2020.1" vType="car" speedFactor="0.99" vaporized=""/>
    <tripinfo id="flow_route_10_duration_20250327_2020.3" depart="20.00" departLane="1252820505#0_0" departPos="26.31" departSpeed="0.00" departDelay="0.00" arrival="47.00" arrivalLane="1235147073.116_0" arrivalPos="7.85" arrivalSpeed="16.44" duration="27.00" routeLength="249.28" waitingTime="0.00" waitingCount="0" stopTime="0.00" timeLoss="11.02" rerouteNo="0" devices="tripinfo_flow_route_10_duration_20250327_2020.3" vType="car" speedFactor="1.02" vaporized=""/>
    <tripinfo id="flow_route_11_duration_20250327_2020.1" depart="21.00" departLane="1252820505#0_0" departPos="42.82" departSpeed="0.00" departDelay="1.00" arrival="48.00" arrivalLane="137406408#0_2" arrivalPos="76.20" arrivalSpeed="12.79" duration="27.00" routeLength="194.95" waitingTime="0.00" waitingCount="0" stopTime="0.00" timeLoss="14.74" rerouteNo="0" devices="tripinfo_flow_route_11_duration_20250327_2020.1" vType="car" speedFactor="0.97" vaporized=""/>
    <tripinfo id="flow_route_5_duration_20250327_2020.1" depart="9.00" departLane="291974733#0_0" departPos="8.34" departSpeed="0.00" departDelay="0.43" arrival="55.00" arrivalLane="1342054204_0" arrivalPos="14.65" arrivalSpeed="11.00" duration="46.00" routeLength="144.56" waitingTime="15.00" waitingCount="1" stopTime="0.00" timeLoss="35.32" rerouteNo="0" devices="tripinfo_flow_route_5_duration_20250327_2020.1" vType="car" speedFactor="0.94" vaporized=""/>
    <tripinfo id="flow_route_5_duration_20250327_2020.0" depart="0.00" departLane="291974733#0_0" departPos="43.68" departSpeed="0.00" departDelay="0.00" arrival="56.00" arrivalLane="1342054204_0" arrivalPos="62.15" arrivalSpeed="12.72" duration="56.00" routeLength="156.72" waitingTime="27.00" waitingCount="1" stopTime="0.00" timeLoss="44.89" rerouteNo="0" devices="tripinfo_flow_route_5_duration_20250327_2020.0" vType="car" speedFactor="0.94" vaporized=""/>
    <tripinfo id="flow_route_8_duration_20250327_2020.3" depart="19.00" departLane="133000078#0_0" departPos="127.01" departSpeed="0.00" departDelay="1.00" arrival="56.00" arrivalLane="1235147073.116_0" arrivalPos="3.17" arrivalSpeed="15.60" duration="37.00" routeLength="236.34" waitingTime="2.00" waitingCount="1" stopTime="0.00" timeLoss="21.88" rerouteNo="0" devices="tripinfo_flow_route_8_duration_20250327_2020.3" vType="car" speedFactor="1.18" vaporized=""/>
    <tripinfo id="flow_route_23_duration_20250327_2020.1" depart="30.00" departLane="137415945#0_0" departPos="8.44" departSpeed="0.00" departDelay="21.43" arrival="59.00" arrivalLane="379698350#0_2" arrivalPos="49.78" arrivalSpeed="13.50" duration="29.00" routeLength="233.69" waitingTime="0.00" waitingCount="0" stopTime="0.00" timeLoss="14.18" rerouteNo="0" devices="tripinfo_flow_route_23_duration_20250327_2020.1" vType="car" speedFactor="1.02" vaporized=""/>
    <tripinfo id="flow_route_8_duration_20250327_2020.2" depart="14.00" departLane="133000078#0_0" departPos="57.58" departSpeed="0.00" departDelay="2.00" arrival="60.00" arrivalLane="1235147073.116_0" arrivalPos="14.32" arrivalSpeed="15.75" duration="46.00" routeLength="316.92" waitingTime="2.00" waitingCount="1" stopTime="0.00" timeLoss="25.07" rerouteNo="0" devices="tripinfo_flow_route_8_duration_20250327_2020.2" vType="car" speedFactor="0.97" vaporized=""/>
    <tripinfo id="flow_route_5_duration_20250327_2020.2" depart="23.00" departLane="291974733#0_0" departPos="53.75" departSpeed="0.00" departDelay="5.86" arrival="60.00" arrivalLane="1342054204_0" arrivalPos="49.47" arrivalSpeed="13.14" duration="37.00" routeLength="133.97" waitingTime="11.00" waitingCount="1" stopTime="0.00" timeLoss="27.13" rerouteNo="0" devices="tripinfo_flow_route_5_duration_20250327_2020.2" vType="car" speedFactor="0.93" vaporized=""/>
    <tripinfo id="flow_route_5_duration_20250327_2020.3" depart="26.00" departLane="291974733#0_0" departPos="13.23" departSpeed="0.00" departDelay="0.29" arrival="60.00" arrivalLane="1342054204_0" arrivalPos="24.53" arrivalSpeed="12.03" duration="34.00" routeLength="149.55" waitingTime="3.00" waitingCount="1" stopTime="0.00" timeLoss="23.86" rerouteNo="0" devices="tripinfo_flow_route_5_duration_20250327_2020.3" vType="car" speedFactor="1.04" vaporized=""/>
    <tripinfo id="flow_route_8_duration_20250327_2020.1" depart="6.00" departLane="133000078#0_0" departPos="6.16" departSpeed="0.00" departDelay="0.00" arrival="61.00" arrivalLane="1235147073.116_0" arrivalPos="4.62" arrivalSpeed="15.67" duration="55.00" routeLength="358.64" waitingTime="0.00" waitingCount="0" stopTime="0.00" timeLoss="32.29" rerouteNo="0" devices="tripinfo_flow_route_8_duration_20250327_2020.1" vType="car" speedFactor="1.12" vaporized=""/>
    <tripinfo id="flow_route_5_duration_20250327_2020.4" depart="35.00" departLane="291974733#0_0" departPos="15.70" departSpeed="0.00" departDelay="0.72" arrival="61.00" arrivalLane="1342054204_0" arrivalPos="1.28" arrivalSpeed="9.63" duration="26.00" routeLength="123.83" waitingTime="0.00" waitingCount="0" stopTime="0.00" timeLoss="17.64" rerouteNo="0" devices="tripinfo_flow_route_5_duration_20250327_2020.4" vType="car" speedFactor="1.00" vaporized=""/>
    <tripinfo id="flow_route_8_duration_20250327_2020.5" depart="30.00" departLane="133000078#0_0" departPos="121.64" departSpeed="0.00" departDelay="0.00" arrival="63.00" arrivalLane="1235147073.116_0" arrivalPos="2.35" arrivalSpeed="14.15" duration="33.00" routeLength="240.90" waitingTime="0.00" waitingCount="0" stopTime="0.00" timeLoss="14.38" rerouteNo="0" devices="tripinfo_flow_route_8_duration_20250327_2020.5" vType="car" speedFactor="0.85" vaporized=""/>
    <tripinfo id="flow_route_23_duration_20250327_2020.0" depart="0.00" departLane="137415945#0_0" departPos="0.59" departSpeed="0.00" departDelay="0.00" arrival="64.00" arrivalLane="379698350#0_2" arrivalPos="153.67" arrivalSpeed="13.79" duration="64.00" routeLength="345.44" waitingTime="19.00" waitingCount="1" stopTime="0.00" timeLoss="39.25" rerouteNo="0" devices="tripinfo_flow_route_23_duration_20250327_2020.0" vType="car" speedFactor="0.86" vaporized=""/>
    <tripinfo id="flow_route_4_duration_20250327_2020.0" depart="0.00" departLane="291974733#0_0" departPos="63.06" departSpeed="0.00" departDelay="0.00" arrival="66.00" arrivalLane="379698350#0_0" arrivalPos="183.76" arrivalSpeed="16.29" duration="66.00" routeLength="311.60" waitingTime="27.00" waitingCount="1" stopTime="0.00" timeLoss="46.35" rerouteNo="0" devices="tripinfo_flow_route_4_duration_20250327_2020.0" vType="car" speedFactor="1.06" vaporized=""/>
    <tripinfo id="flow_route_5_duration_20250327_2020.6" depart="52.00" departLane="291974733#0_0" departPos="69.25" departSpeed="0.00" departDelay="0.57" arrival="66.00" arrivalLane="1342054204_0" arrivalPos="0.64" arrivalSpeed="10.78" duration="14.00" routeLength="69.64" waitingTime="0.00" waitingCount="0" stopTime="0.00" timeLoss="8.61" rerouteNo="0" devices="tripinfo_flow_route_5_duration_20250327_2020.6" vType="car" speedFactor="1.03" vaporized=""/>
    <tripinfo id="flow_route_8_duration_20250327_2020.4" depart="24.00" departLane="133000078#0_0" departPos="20.96" departSpeed="0.00" departDelay="0.00" arrival="67.00" arrivalLane="1235147073.116_0" arrivalPos="14.87" arrivalSpeed="16.56" duration="43.00" routeLength="354.09" waitingTime="0.00" waitingCount="0" stopTime="0.00" timeLoss="20.06" rerouteNo="0" devices="tripinfo_flow_route_8_duration_20250327_2020.4" vType="car" speedFactor="1.03" vaporized=""/>
    <tripinfo id="flow_route_8_duration_20250327_2020.6" depart="38.00" departLane="133000078#0_0" departPos="85.04" departSpeed="0.00" departDelay="2.00" arrival="70.00" arrivalLane="1235147073.116_0" arrivalPos="5.29" arrivalSpeed="16.18" duration="32.00" routeLength="280.43" waitingTime="0.00" waitingCount="0" stopTime="0.00" timeLoss="13.86" rerouteNo="0" devices="tripinfo_flow_route_8_duration_20250327_2020.6" vType="car" speedFactor="1.02" vaporized=""/>
    <tripinfo id="flow_route_5_duration_20250327_2020.5" depart="44.00" departLane="291974733#0_0" departPos="21.17" departSpeed="0.00" departDelay="1.15" arrival="74.00" arrivalLane="1342054204_0" arrivalPos="69.94" arrivalSpeed="14.57" duration="30.00" routeLength="187.01" waitingTime="0.00" waitingCount="0" stopTime="0.00" timeLoss="17.30" rerouteNo="0" devices="tripinfo_flow_route_5_duration_20250327_2020.5" vType="car" speedFactor="1.02" vaporized=""/>
    <tripinfo id="flow_route_23_duration_20250327_2020.2" depart="51.00" departLane="137415945#0_0" departPos="8.48" departSpeed="0.00" departDelay="33.86" arrival="75.00" arrivalLane="379698350#0_2" arrivalPos="9.66" arrivalSpeed="13.64" duration="24.00" routeLength="193.53" waitingTime="0.00" waitingCount="0" stopTime="0.00" timeLoss="12.01" rerouteNo="0" devices="tripinfo_flow_route_23_duration_20250327_2020.2" vType="car" speedFactor="1.01" vaporized=""/>
    <tripinfo id="flow_route_8_duration_20250327_2020.9" depart="55.00" departLane="133000078#0_0" departPos="189.06" departSpeed="0.00" departDelay="1.00" arrival="77.00" arrivalLane="1235147073.116_0" arrivalPos="15.04" arrivalSpeed="15.72" duration="22.00" routeLength="186.16" waitingTime="0.00" waitingCount="0" stopTime="0.00" timeLoss="9.30" rerouteNo="0" devices="tripinfo_flow_route_8_duration_20250327_2020.9" vType="car" speedFactor="0.97" vaporized=""/>
    <tripinfo id="flow_route_8_duration_20250327_2020.7" depart="42.00" departLane="133000078#0_0" departPos="75.68" departSpeed="0.00" departDelay="0.00" arrival="79.00" arrivalLane="1235147073.116_0" arrivalPos="4.95" arrivalSpeed="14.81" duration="37.00" routeLength="289.45" waitingTime="0.00" waitingCount="0" stopTime="0.00" timeLoss="16.18" rerouteNo="0" devices="tripinfo_flow_route_8_duration_20250327_2020.7" vType="car" speedFactor="0.91" vaporized=""/>
    <tripinfo id="flow_route_8_duration_20250327_2020.8" depart="48.00" departLane="133000078#0_0" departPos="83.28" departSpeed="0.00" departDelay="0.00" arrival="80.00" arrivalLane="1235147073.116_0" arrivalPos="3.38" arrivalSpeed="16.29" duration="32.00" routeLength="280.28" waitingTime="0.00" waitingCount="0" stopTime="0.00" timeLoss="13.98" rerouteNo="0" devices="tripinfo_flow_route_8_duration_20250327_2020.8" vType="car" speedFactor="1.03" vaporized=""/>
    <tripinfo id="flow_route_12_duration_20250327_2020.2" depart="7.00" departLane="133000078#0_0" departPos="199.16" departSpeed="0.00" departDelay="0.33" arrival="91.00" arrivalLane="1342054204_3" arrivalPos="28.90" arrivalSpeed="13.82" duration="84.00" routeLength="127.54" waitingTime="63.00" waitingCount="1" stopTime="0.00" timeLoss="75.74" rerouteNo="0" devices="tripinfo_flow_route_12_duration_20250327_2020.2" vType="car" speedFactor="0.94" vaporized=""/>
    <tripinfo id="flow_route_12_duration_20250327_2020.0" depart="0.00" departLane="133000078#0_0" departPos="66.48" departSpeed="0.00" departDelay="0.00" arrival="93.00" arrivalLane="1342054204_3" arrivalPos="21.59" arrivalSpeed="14.10" duration="93.00" routeLength="252.91" waitingTime="52.00" waitingCount="1" stopTime="0.00" timeLoss="75.39" rerouteNo="0" devices="tripinfo_flow_route_12_duration_20250327_2020.0" vType="car" speedFactor="0.89" vaporized=""/>
    <tripinfo id="flow_route_7_duration_20250327_2020.0" depart="0.00" departLane="133000078#0_0" departPos="116.92" departSpeed="0.00" departDelay="0.00" arrival="94.00" arrivalLane="137406408#0_1" arrivalPos="45.36" arrivalSpeed="15.65" duration="94.00" routeLength="233.24" waitingTime="57.00" waitingCount="1" stopTime="0.00" timeLoss="79.04" rerouteNo="0" devices="tripinfo_flow_route_7_duration_20250327_2020.0" vType="car" speedFactor="1.08" vaporized=""/>
    <tripinfo id="flow_route_12_duration_20250327_2020.4" depart="14.00" departLane="133000078#0_0" departPos="191.64" departSpeed="0.00" departDelay="0.67" arrival="96.00" arrivalLane="1342054204_3" arrivalPos="13.24" arrivalSpeed="12.29" duration="82.00" routeLength="119.41" waitingTime="61.00" waitingCount="1" stopTime="0.00" timeLoss="74.11" rerouteNo="0" devices="tripinfo_flow_route_12_duration_20250327_2020.4" vType="car" speedFactor="0.92" vaporized=""/>
    <tripinfo id="flow_route_12_duration_20250327_2020.3" depart="10.00" departLane="133000078#0_0" departPos="123.11" departSpeed="0.00" departDelay="0.00" arrival="102.00" arrivalLane="1342054204_3" arrivalPos="58.28" arrivalSpeed="15.22" duration="92.00" routeLength="232.97" waitingTime="49.00" waitingCount="2" stopTime="0.00" timeLoss="77.49" rerouteNo="0" devices="tripinfo_flow_route_12_duration_20250327_2020.3" vType="car" speedFactor="1.01" vaporized=""/>
    <tripinfo id="flow_route_12_duration_20250327_2020.6" depart="20.00" departLane="133000078#0_0" departPos="180.78" departSpeed="0.00" departDelay="0.00" arrival="106.00" arrivalLane="1342054204_3" arrivalPos="51.03" arrivalSpeed="14.47" duration="86.00" routeLength="168.05" waitingTime="56.00" waitingCount="3" stopTime="0.00" timeLoss="75.74" rerouteNo="0" devices="tripinfo_flow_route_12_duration_20250327_2020.6" vType="car" speedFactor="1.18" vaporized=""/>
    <tripinfo id="flow_route_12_duration_20250327_2020.1" depart="4.00" departLane="133000078#0_0" departPos="48.88" departSpeed="0.00" departDelay="0.67" arrival="110.00" arrivalLane="1342054204_3" arrivalPos="77.43" arrivalSpeed="16.46" duration="106.00" routeLength="326.35" waitingTime="53.00" waitingCount="2" stopTime="0.00" timeLoss="85.42" rerouteNo="0" devices="tripinfo_flow_route_12_duration_20250327_2020.1" vType="car" speedFactor="1.05" vaporized=""/>
    <tripinfo id="flow_route_12_duration_20250327_2020.7" depart="25.00" departLane="133000078#0_0" departPos="161.26" departSpeed="0.00" departDelay="1.67" arrival="112.00" arrivalLane="1342054204_3" arrivalPos="25.85" arrivalSpeed="15.09" duration="87.00" routeLength="162.39" waitingTime="57.00" waitingCount="2" stopTime="0.00" timeLoss="76.53" rerouteNo="0" devices="tripinfo_flow_route_12_duration_20250327_2020.7" vType="car" speedFactor="0.96" vaporized=""/>
    <tripinfo id="flow_route_12_duration_20250327_2020.14" depart="48.00" departLane="133000078#0_0" departPos="163.74" departSpeed="0.00" departDelay="1.34" arrival="112.00" arrivalLane="1342054204_3" arrivalPos="40.63" arrivalSpeed="15.63" duration="64.00" routeLength="174.69" waitingTime="35.00" waitingCount="1" stopTime="0.00" timeLoss="52.51" rerouteNo="0" devices="tripinfo_flow_route_12_duration_20250327_2020.14" vType="car" speedFactor="0.98" vaporized=""/>
    <tripinfo id="flow_route_12_duration_20250327_2020.5" depart="17.00" departLane="133000078#0_0" departPos="17.76" departSpeed="0.00" departDelay="0.34" arrival="115.00" arrivalLane="1342054204_3" arrivalPos="27.38" arrivalSpeed="15.27" duration="98.00" routeLength="307.42" waitingTime="53.00" waitingCount="2" stopTime="0.00" timeLoss="78.58" rerouteNo="0" devices="tripinfo_flow_route_12_duration_20250327_2020.5" vType="car" speedFactor="1.13" vaporized=""/>
    <tripinfo id="flow_route_12_duration_20250327_2020.8" depart="27.00" departLane="133000078#0_0" departPos="80.66" departSpeed="0.00" departDelay="0.34" arrival="116.00" arrivalLane="1342054204_3" arrivalPos="32.42" arrivalSpeed="14.69" duration="89.00" routeLength="249.55" waitingTime="47.00" waitingCount="2" stopTime="0.00" timeLoss="72.36" rerouteNo="0" devices="tripinfo_flow_route_12_duration_20250327_2020.8" vType="car" speedFactor="0.90" vaporized=""/>
    <tripinfo id="flow_route_12_duration_20250327_2020.10" depart="34.00" departLane="133000078#0_0" departPos="113.41" departSpeed="0.00" departDelay="0.67" arrival="119.00" arrivalLane="1342054204_3" arrivalPos="55.93" arrivalSpeed="16.21" duration="85.00" routeLength="240.32" waitingTime="45.00" waitingCount="1" stopTime="0.00" timeLoss="70.50" rerouteNo="0" devices="tripinfo_flow_route_12_duration_20250327_2020.10" vType="car" speedFactor="1.00" vaporized=""/>
    <tripinfo id="flow_route_12_duration_20250327_2020.12" depart="40.00" departLane="133000078#0_0" departPos="42.85" departSpeed="0.00" departDelay="0.00" arrival="126.00" arrivalLane="1342054204_3" arrivalPos="42.52" arrivalSpeed="14.32" duration="86.00" routeLength="297.47" waitingTime="39.00" waitingCount="1" stopTime="0.00" timeLoss="65.47" rerouteNo="0" devices="tripinfo_flow_route_12_duration_20250327_2020.12" vType="car" speedFactor="0.88" vaporized=""/>
    <tripinfo id="flow_route_12_duration_20250327_2020.9" depart="30.00" departLane="133000078#0_0" departPos="57.25" departSpeed="0.00" departDelay="0.00" arrival="127.00" arrivalLane="1342054204_3" arrivalPos="78.89" arrivalSpeed="14.07" duration="97.00" routeLength="319.44" waitingTime="45.00" waitingCount="1" stopTime="0.00" timeLoss="74.11" rerouteNo="0" devices="tripinfo_flow_route_12_duration_20250327_2020.9" vType="car" speedFactor="0.85" vaporized=""/>
    <tripinfo id="flow_route_12_duration_20250327_2020.13" depart="44.00" departLane="133000078#0_0" departPos="47.03" departSpeed="0.00" departDelay="0.67" arrival="127.00" arrivalLane="1342054204_3" arrivalPos="10.00" arrivalSpeed="13.57" duration="83.00" routeLength="260.78" waitingTime="38.00" waitingCount="1" stopTime="0.00" timeLoss="65.54" rerouteNo="0" devices="tripinfo_flow_route_12_duration_20250327_2020.13" vType="car" speedFactor="0.94" vaporized=""/>
    <tripinfo id="flow_route_12_duration_20250327_2020.17" depart="57.00" departLane="133000078#0_0" departPos="92.29" departSpeed="0.00" departDelay="0.34" arrival="130.00" arrivalLane="1342054204_3" arrivalPos="30.24" arrivalSpeed="15.29" duration="73.00" routeLength="235.76" waitingTime="33.00" waitingCount="1" stopTime="0.00" timeLoss="57.93" rerouteNo="0" devices="tripinfo_flow_route_12_duration_20250327_2020.17" vType="car" speedFactor="1.01" vaporized=""/>
    <tripinfo id="flow_route_12_duration_20250327_2020.11" depart="38.00" departLane="133000078#0_0" departPos="23.61" departSpeed="0.00" departDelay="1.34" arrival="131.00" arrivalLane="1342054204_3" arrivalPos="0.07" arrivalSpeed="13.03" duration="93.00" routeLength="274.27" waitingTime="33.00" waitingCount="3" stopTime="0.00" timeLoss="75.83" rerouteNo="0" devices="tripinfo_flow_route_12_duration_20250327_2020.11" vType="car" speedFactor="1.08" vaporized=""/>
    <tripinfo id="flow_route_24_duration_20250327_2020.1" depart="19.00" departLane="137415945#0_0" departPos="2.70" departSpeed="0.00" departDelay="13.00" arrival="139.00" arrivalLane="137406408#0_0" arrivalPos="14.69" arrivalSpeed="9.94" duration="120.00" routeLength="180.98" waitingTime="87.00" waitingCount="1" stopTime="0.00" timeLoss="107.44" rerouteNo="0" devices="tripinfo_flow_route_24_duration_20250327_2020.1" vType="car" speedFactor="0.93" vaporized=""/>
    <tripinfo id="flow_route_22_duration_20250327_2020.3" depart="24.00" departLane="137415945#0_0" departPos="4.36" departSpeed="0.00" departDelay="15.43" arrival="142.00" arrivalLane="1342054204_1" arrivalPos="49.86" arrivalSpeed="13.22" duration="118.00" routeLength="238.83" waitingTime="80.00" waitingCount="1" stopTime="0.00" timeLoss="102.98" rerouteNo="0" devices="tripinfo_flow_route_22_duration_20250327_2020.3" vType="car" speedFactor="1.16" vaporized=""/>
    <tripinfo id="flow_route_24_duration_20250327_2020.2" depart="38.00" departLane="137415945#0_0" departPos="6.19" departSpeed="0.00" departDelay="26.00" arrival="142.00" arrivalLane="137406408#0_0" arrivalPos="28.41" arrivalSpeed="11.76" duration="104.00" routeLength="191.22" waitingTime="69.00" waitingCount="1" stopTime="0.00" timeLoss="89.28" rerouteNo="0" devices="tripinfo_flow_route_24_duration_20250327_2020.2" vType="car" speedFactor="0.83" vaporized=""/>
    <tripinfo id="flow_route_22_duration_20250327_2020.5" depart="41.00" departLane="137415945#0_0" departPos="1.95" departSpeed="0.00" departDelay="26.72" arrival="142.00" arrivalLane="1342054204_1" arrivalPos="5.84" arrivalSpeed="10.87" duration="101.00" routeLength="197.22" waitingTime="64.00" waitingCount="1" stopTime="0.00" timeLoss="88.36" rerouteNo="0" devices="tripinfo_flow_route_22_duration_20250327_2020.5" vType="car" speedFactor="0.95" vaporized=""/>
    <tripinfo id="flow_route_22_duration_20250327_2020.2" depart="13.00" departLane="137415945#0_0" departPos="2.14" departSpeed="0.00" departDelay="7.29" arrival="143.00" arrivalLane="1342054204_0" arrivalPos="66.69" arrivalSpeed="13.83" duration="130.00" routeLength="257.87" waitingTime="91.00" waitingCount="1" stopTime="0.00" timeLoss="114.10" rerouteNo="0" devices="tripinfo_flow_route_22_duration_20250327_2020.2" vType="car" speedFactor="0.99" vaporized=""/>
    <tripinfo id="flow_route_24_duration_20250327_2020.3" depart="54.00" departLane="137415945#0_0" departPos="0.15" departSpeed="0.00" departDelay="36.00" arrival="144.00" arrivalLane="137406408#0_0" arrivalPos="7.38" arrivalSpeed="11.34" duration="90.00" routeLength="176.24" waitingTime="56.00" waitingCount="1" stopTime="0.00" timeLoss="78.96" rerouteNo="0" devices="tripinfo_flow_route_24_duration_20250327_2020.3" vType="car" speedFactor="1.17" vaporized=""/>
    <tripinfo id="flow_route_22_duration_20250327_2020.6" depart="46.00" departLane="137415945#0_0" departPos="4.08" departSpeed="0.00" departDelay="28.86" arrival="145.00" arrivalLane="1342054204_0" arrivalPos="15.76" arrivalSpeed="12.56" duration="99.00" routeLength="205.00" waitingTime="64.00" waitingCount="1" stopTime="0.00" timeLoss="86.11" rerouteNo="0" devices="tripinfo_flow_route_22_duration_20250327_2020.6" vType="car" speedFactor="1.15" vaporized=""/>
    <tripinfo id="flow_route_22_duration_20250327_2020.4" depart="33.00" departLane="137415945#0_0" departPos="7.30" departSpeed="0.00" departDelay="21.57" arrival="146.00" arrivalLane="1342054204_1" arrivalPos="83.74" arrivalSpeed="14.48" duration="113.00" routeLength="269.77" waitingTime="73.00" waitingCount="1" stopTime="0.00" timeLoss="94.77" rerouteNo="0" devices="tripinfo_flow_route_22_duration_20250327_2020.4" vType="car" speedFactor="0.89" vaporized=""/>
    <tripinfo id="flow_route_10_duration_20250327_2020.5" depart="35.00" departLane="1252820505#0_0" departPos="78.52" departSpeed="0.00" departDelay="1.67" arrival="146.00" arrivalLane="1235147073.116_0" arrivalPos="13.11" arrivalSpeed="16.36" duration="111.00" routeLength="202.33" waitingTime="83.00" waitingCount="1" stopTime="0.00" timeLoss="98.45" rerouteNo="0" devices="tripinfo_flow_route_10_duration_20250327_2020.5" vType="car" speedFactor="1.10" vaporized=""/>
    <tripinfo id="flow_route_22_duration_20250327_2020.7" depart="55.00" departLane="137415945#0_0" departPos="11.52" departSpeed="0.00" departDelay="35.00" arrival="147.00" arrivalLane="1342054204_1" arrivalPos="36.39" arrivalSpeed="13.62" duration="92.00" routeLength="218.20" waitingTime="55.00" waitingCount="1" stopTime="0.00" timeLoss="78.19" rerouteNo="0" devices="tripinfo_flow_route_22_duration_20250327_2020.7" vType="car" speedFactor="1.10" vaporized=""/>
    <tripinfo id="flow_route_10_duration_20250327_2020.4" depart="27.00" departLane="1252820505#0_0" departPos="3.70" departSpeed="0.00" departDelay="0.34" arrival="147.00" arrivalLane="1235147073.116_1" arrivalPos="13.50" arrivalSpeed="16.10" duration="120.00" routeLength="277.54" waitingTime="81.00" waitingCount="1" stopTime="0.00" timeLoss="102.40" rerouteNo="0" devices="tripinfo_flow_route_10_duration_20250327_2020.4" vType="car" speedFactor="1.00" vaporized=""/>
    <tripinfo id="flow_route_10_duration_20250327_2020.7" depart="47.00" departLane="1252820505#0_0" departPos="20.72" departSpeed="0.00" departDelay="0.34" arrival="147.00" arrivalLane="1235147073.116_2" arrivalPos="13.03" arrivalSpeed="15.61" duration="100.00" routeLength="260.04" waitingTime="63.00" waitingCount="1" stopTime="0.00" timeLoss="82.73" rerouteNo="0" devices="tripinfo_flow_route_10_duration_20250327_2020.7" vType="car" speedFactor="0.96" vaporized=""/>
    <tripinfo id="flow_route_24_duration_20250327_2020.4" depart="65.00" departLane="137415945#0_0" departPos="0.62" departSpeed="0.00" departDelay="41.00" arrival="148.00" arrivalLane="137406408#0_0" arrivalPos="37.94" arrivalSpeed="13.76" duration="83.00" routeLength="206.32" waitingTime="47.00" waitingCount="1" stopTime="0.00" timeLoss="70.16" rerouteNo="0" devices="tripinfo_flow_route_24_duration_20250327_2020.4" vType="car" speedFactor="1.09" vaporized=""/>