<?xml version="1.0" encoding="UTF-8"?>

<!-- generated on 2025-05-06 21:09:04 by Eclipse SUMO sumo Version 1.20.0
<configuration xmlns:xsi="http://www.w3.org/2001/XMLSchema-instance" xsi:noNamespaceSchemaLocation="http://sumo.dlr.de/xsd/sumoConfiguration.xsd">

    <input>
        <net-file value="osm.net.xml"/>
        <route-files value="xml/route_rl_cluster_11648745684_256036885_3839031483_8.rou.xml"/>
    </input>

    <output>
        <tripinfo-output value="xml/tripinfo_rl_cluster_11648745684_256036885_3839031483_8.xml"/>
    </output>

    <traci_server>
        <remote-port value="50695"/>
    </traci_server>

</configuration>
-->

<tripinfos xmlns:xsi="http://www.w3.org/2001/XMLSchema-instance" xsi:noNamespaceSchemaLocation="http://sumo.dlr.de/xsd/tripinfo_file.xsd">
    <tripinfo id="flow_route_72_duration_20250327_2200.0" depart="0.00" departLane="1369578052#0_0" departPos="161.40" departSpeed="0.00" departDelay="0.00" arrival="15.00" arrivalLane="133342692#0_0" arrivalPos="42.43" arrivalSpeed="11.65" duration="15.00" routeLength="81.12" waitingTime="0.00" waitingCount="0" stopTime="0.00" timeLoss="8.08" rerouteNo="0" devices="tripinfo_flow_route_72_duration_20250327_2200.0" vType="car" speedFactor="0.89" vaporized=""/>
    <tripinfo id="flow_route_68_duration_20250327_2200.0" depart="0.00" departLane="1253209803#0_0" departPos="143.52" departSpeed="0.00" departDelay="0.00" arrival="30.00" arrivalLane="-138002002#2_1" arrivalPos="90.53" arrivalSpeed="16.53" duration="30.00" routeLength="298.33" waitingTime="0.00" waitingCount="0" stopTime="0.00" timeLoss="11.24" rerouteNo="0" devices="tripinfo_flow_route_68_duration_20250327_2200.0" vType="car" speedFactor="1.08" vaporized=""/>
    <tripinfo id="flow_route_70_duration_20250327_2200.0" depart="0.00" departLane="1253209803#0_0" departPos="83.97" departSpeed="0.00" departDelay="0.00" arrival="32.00" arrivalLane="133342692#0_2" arrivalPos="7.48" arrivalSpeed="9.70" duration="32.00" routeLength="271.18" waitingTime="0.00" waitingCount="0" stopTime="0.00" timeLoss="13.58" rerouteNo="0" devices="tripinfo_flow_route_70_duration_20250327_2200.0" vType="car" speedFactor="0.83" vaporized=""/>
    <tripinfo id="flow_route_69_duration_20250327_2200.0" depart="0.00" departLane="1253209803#0_0" departPos="179.76" departSpeed="0.00" departDelay="0.00" arrival="33.00" arrivalLane="380585337#0_0" arrivalPos="14.31" arrivalSpeed="16.58" duration="33.00" routeLength="299.43" waitingTime="0.00" waitingCount="0" stopTime="0.00" timeLoss="14.38" rerouteNo="0" devices="tripinfo_flow_route_69_duration_20250327_2200.0" vType="car" speedFactor="1.03" vaporized=""/>
    <tripinfo id="flow_route_71_duration_20250327_2200.0" depart="0.00" departLane="1369578052#0_0" departPos="11.11" departSpeed="0.00" departDelay="0.00" arrival="38.00" arrivalLane="138002016#0_0" arrivalPos="236.62" arrivalSpeed="16.36" duration="38.00" routeLength="443.19" waitingTime="0.00" waitingCount="0" stopTime="0.00" timeLoss="10.85" rerouteNo="0" devices="tripinfo_flow_route_71_duration_20250327_2200.0" vType="car" speedFactor="1.05" vaporized=""/>
    <tripinfo id="flow_route_68_duration_20250327_2200.1" depart="12.00" departLane="1253209803#0_0" departPos="9.47" departSpeed="0.00" departDelay="0.00" arrival="51.00" arrivalLane="-138002002#2_0" arrivalPos="29.31" arrivalSpeed="16.35" duration="39.00" routeLength="371.16" waitingTime="0.00" waitingCount="0" stopTime="0.00" timeLoss="16.04" rerouteNo="0" devices="tripinfo_flow_route_68_duration_20250327_2200.1" vType="car" speedFactor="1.05" vaporized=""/>
    <tripinfo id="flow_route_70_duration_20250327_2200.2" depart="30.00" departLane="1253209803#0_0" departPos="304.73" departSpeed="0.00" departDelay="0.00" arrival="51.00" arrivalLane="133342692#0_2" arrivalPos="114.55" arrivalSpeed="15.08" duration="21.00" routeLength="157.49" waitingTime="0.00" waitingCount="0" stopTime="0.00" timeLoss="9.92" rerouteNo="0" devices="tripinfo_flow_route_70_duration_20250327_2200.2" vType="car" speedFactor="1.02" vaporized=""/>
    <tripinfo id="flow_route_70_duration_20250327_2200.1" depart="15.00" departLane="1253209803#0_0" departPos="41.07" departSpeed="0.00" departDelay="0.00" arrival="57.00" arrivalLane="133342692#0_2" arrivalPos="117.46" arrivalSpeed="15.10" duration="42.00" routeLength="424.06" waitingTime="0.00" waitingCount="0" stopTime="0.00" timeLoss="15.88" rerouteNo="0" devices="tripinfo_flow_route_70_duration_20250327_2200.1" vType="car" speedFactor="1.12" vaporized=""/>
    <tripinfo id="flow_route_68_duration_20250327_2200.2" depart="24.00" departLane="1253209803#0_0" departPos="76.63" departSpeed="0.00" departDelay="0.00" arrival="58.00" arrivalLane="-138002002#2_0" arrivalPos="105.30" arrivalSpeed="15.37" duration="34.00" routeLength="379.99" waitingTime="0.00" waitingCount="0" stopTime="0.00" timeLoss="10.25" rerouteNo="0" devices="tripinfo_flow_route_68_duration_20250327_2200.2" vType="car" speedFactor="0.94" vaporized=""/>
    <tripinfo id="flow_route_68_duration_20250327_2200.4" depart="48.00" departLane="1253209803#0_0" departPos="180.04" departSpeed="0.00" departDelay="0.00" arrival="70.00" arrivalLane="-138002002#2_0" arrivalPos="15.85" arrivalSpeed="16.41" duration="22.00" routeLength="187.12" waitingTime="0.00" waitingCount="0" stopTime="0.00" timeLoss="10.40" rerouteNo="0" devices="tripinfo_flow_route_68_duration_20250327_2200.4" vType="car" speedFactor="1.13" vaporized=""/>
    <tripinfo id="flow_route_68_duration_20250327_2200.3" depart="36.00" departLane="1253209803#0_0" departPos="48.20" departSpeed="0.00" departDelay="0.00" arrival="74.00" arrivalLane="-138002002#2_1" arrivalPos="118.20" arrivalSpeed="14.51" duration="38.00" routeLength="421.32" waitingTime="0.00" waitingCount="0" stopTime="0.00" timeLoss="11.23" rerouteNo="0" devices="tripinfo_flow_route_68_duration_20250327_2200.3" vType="car" speedFactor="0.89" vaporized=""/>
    <tripinfo id="flow_route_70_duration_20250327_2200.3" depart="45.00" departLane="1253209803#0_0" departPos="99.64" departSpeed="0.00" departDelay="0.00" arrival="77.00" arrivalLane="133342692#0_2" arrivalPos="30.69" arrivalSpeed="11.70" duration="32.00" routeLength="278.72" waitingTime="0.00" waitingCount="0" stopTime="0.00" timeLoss="13.17" rerouteNo="0" devices="tripinfo_flow_route_70_duration_20250327_2200.3" vType="car" speedFactor="0.92" vaporized=""/>
    <tripinfo id="flow_route_65_duration_20250327_2200.0" depart="8.00" departLane="133131666#1_0" departPos="5.26" departSpeed="0.00" departDelay="8.00" arrival="83.00" arrivalLane="138002016#0_2" arrivalPos="14.48" arrivalSpeed="7.87" duration="75.00" routeLength="193.68" waitingTime="41.00" waitingCount="1" stopTime="0.00" timeLoss="62.47" rerouteNo="0" devices="tripinfo_flow_route_65_duration_20250327_2200.0" vType="car" speedFactor="1.01" vaporized=""/>
    <tripinfo id="flow_route_64_duration_20250327_2200.1" depart="12.00" departLane="133131666#1_0" departPos="21.24" departSpeed="0.00" departDelay="2.00" arrival="84.00" arrivalLane="-138002002#2_0" arrivalPos="5.97" arrivalSpeed="6.87" duration="72.00" routeLength="150.29" waitingTime="42.00" waitingCount="1" stopTime="0.00" timeLoss="61.52" rerouteNo="0" devices="tripinfo_flow_route_64_duration_20250327_2200.1" vType="car" speedFactor="1.03" vaporized=""/>
    <tripinfo id="flow_route_65_duration_20250327_2200.1" depart="33.00" departLane="133131666#1_0" departPos="4.07" departSpeed="0.00" departDelay="3.00" arrival="86.00" arrivalLane="138002016#0_2" arrivalPos="28.34" arrivalSpeed="9.98" duration="53.00" routeLength="208.73" waitingTime="18.00" waitingCount="1" stopTime="0.00" timeLoss="40.05" rerouteNo="0" devices="tripinfo_flow_route_65_duration_20250327_2200.1" vType="car" speedFactor="1.16" vaporized=""/>
    <tripinfo id="flow_route_64_duration_20250327_2200.4" depart="40.00" departLane="133131666#1_0" departPos="12.14" departSpeed="0.00" departDelay="0.00" arrival="92.00" arrivalLane="-138002002#2_0" arrivalPos="5.13" arrivalSpeed="5.81" duration="52.00" routeLength="158.54" waitingTime="20.00" waitingCount="1" stopTime="0.00" timeLoss="39.00" rerouteNo="0" devices="tripinfo_flow_route_64_duration_20250327_2200.4" vType="car" speedFactor="0.83" vaporized=""/>
    <tripinfo id="flow_route_64_duration_20250327_2200.0" depart="2.00" departLane="133131666#1_0" departPos="6.82" departSpeed="0.00" departDelay="2.00" arrival="93.00" arrivalLane="-138002002#2_0" arrivalPos="131.25" arrivalSpeed="14.68" duration="91.00" routeLength="289.98" waitingTime="51.00" waitingCount="1" stopTime="0.00" timeLoss="71.56" rerouteNo="0" devices="tripinfo_flow_route_64_duration_20250327_2200.0" vType="car" speedFactor="0.94" vaporized=""/>
    <tripinfo id="flow_route_63_duration_20250327_2200.0" depart="0.00" departLane="133131666#1_0" departPos="14.94" departSpeed="0.00" departDelay="0.00" arrival="94.00" arrivalLane="133342692#0_0" arrivalPos="152.76" arrivalSpeed="16.16" duration="94.00" routeLength="321.54" waitingTime="52.00" waitingCount="1" stopTime="0.00" timeLoss="74.60" rerouteNo="0" devices="tripinfo_flow_route_63_duration_20250327_2200.0" vType="car" speedFactor="1.06" vaporized=""/>
    <tripinfo id="flow_route_64_duration_20250327_2200.2" depart="20.00" departLane="133131666#1_0" departPos="5.86" departSpeed="0.00" departDelay="0.00" arrival="94.00" arrivalLane="-138002002#2_0" arrivalPos="75.77" arrivalSpeed="11.70" duration="74.00" routeLength="235.46" waitingTime="35.00" waitingCount="1" stopTime="0.00" timeLoss="57.36" rerouteNo="0" devices="tripinfo_flow_route_64_duration_20250327_2200.2" vType="car" speedFactor="0.93" vaporized=""/>
    <tripinfo id="flow_route_64_duration_20250327_2200.5" depart="50.00" departLane="133131666#1_0" departPos="4.01" departSpeed="0.00" departDelay="0.00" arrival="98.00" arrivalLane="-138002002#2_0" arrivalPos="38.16" arrivalSpeed="9.12" duration="48.00" routeLength="199.70" waitingTime="8.00" waitingCount="1" stopTime="0.00" timeLoss="34.48" rerouteNo="0" devices="tripinfo_flow_route_64_duration_20250327_2200.5" vType="car" speedFactor="0.93" vaporized=""/>
    <tripinfo id="flow_route_64_duration_20250327_2200.3" depart="30.00" departLane="133131666#1_0" departPos="15.35" departSpeed="0.00" departDelay="0.00" arrival="102.00" arrivalLane="-138002002#2_0" arrivalPos="149.52" arrivalSpeed="15.40" duration="72.00" routeLength="299.72" waitingTime="28.00" waitingCount="1" stopTime="0.00" timeLoss="50.97" rerouteNo="0" devices="tripinfo_flow_route_64_duration_20250327_2200.3" vType="car" speedFactor="0.94" vaporized=""/>
    <tripinfo id="flow_route_75_duration_20250327_2200.0" depart="0.00" departLane="380593307#0_0" departPos="8.02" departSpeed="0.00" departDelay="0.00" arrival="118.00" arrivalLane="-138002002#2_1" arrivalPos="1.11" arrivalSpeed="6.46" duration="118.00" routeLength="196.85" waitingTime="86.00" waitingCount="1" stopTime="0.00" timeLoss="105.48" rerouteNo="0" devices="tripinfo_flow_route_75_duration_20250327_2200.0" vType="car" speedFactor="1.09" vaporized=""/>
    <tripinfo id="flow_route_75_duration_20250327_2200.1" depart="30.00" departLane="380593307#0_0" departPos="85.52" departSpeed="0.00" departDelay="0.00" arrival="130.00" arrivalLane="-138002002#2_1" arrivalPos="109.83" arrivalSpeed="15.59" duration="100.00" routeLength="228.08" waitingTime="65.00" waitingCount="1" stopTime="0.00" timeLoss="84.42" rerouteNo="0" devices="tripinfo_flow_route_75_duration_20250327_2200.1" vType="car" speedFactor="0.97" vaporized=""/>
    <tripinfo id="flow_route_73_duration_20250327_2200.0" depart="0.00" departLane="380593307#0_0" departPos="55.90" departSpeed="0.00" departDelay="0.00" arrival="131.00" arrivalLane="380585337#0_1" arrivalPos="13.23" arrivalSpeed="15.40" duration="131.00" routeLength="294.01" waitingTime="90.00" waitingCount="1" stopTime="0.00" timeLoss="111.32" rerouteNo="0" devices="tripinfo_flow_route_73_duration_20250327_2200.0" vType="car" speedFactor="0.94" vaporized=""/>
    <tripinfo id="flow_route_74_duration_20250327_2200.0" depart="0.00" departLane="380593307#0_0" departPos="118.68" departSpeed="0.00" departDelay="0.00" arrival="135.00" arrivalLane="138002016#0_0" arrivalPos="237.21" arrivalSpeed="13.98" duration="135.00" routeLength="301.22" waitingTime="96.00" waitingCount="1" stopTime="0.00" timeLoss="112.67" rerouteNo="0" devices="tripinfo_flow_route_74_duration_20250327_2200.0" vType="car" speedFactor="0.86" vaporized=""/>
    <tripinfo id="flow_route_72_duration_20250327_2200.2" depart="41.00" departLane="1369578052#0_0" departPos="12.35" departSpeed="0.00" departDelay="1.00" arrival="163.00" arrivalLane="133342692#0_0" arrivalPos="47.81" arrivalSpeed="10.99" duration="122.00" routeLength="235.54" waitingTime="82.00" waitingCount="1" stopTime="0.00" timeLoss="104.35" rerouteNo="0" devices="tripinfo_flow_route_72_duration_20250327_2200.2" vType="car" speedFactor="0.87" vaporized=""/>
    <tripinfo id="flow_route_71_duration_20250327_2200.1" depart="15.00" departLane="1369578052#0_0" departPos="23.11" departSpeed="0.00" departDelay="0.00" arrival="166.00" arrivalLane="138002016#0_0" arrivalPos="105.47" arrivalSpeed="14.75" duration="151.00" routeLength="300.04" waitingTime="108.00" waitingCount="1" stopTime="0.00" timeLoss="132.13" rerouteNo="0" devices="tripinfo_flow_route_71_duration_20250327_2200.1" vType="car" speedFactor="0.99" vaporized=""/>
    <tripinfo id="flow_route_72_duration_20250327_2200.1" depart="21.00" departLane="1369578052#0_0" departPos="30.96" departSpeed="0.00" departDelay="1.00" arrival="170.00" arrivalLane="133342692#0_0" arrivalPos="165.37" arrivalSpeed="14.26" duration="149.00" routeLength="334.49" waitingTime="104.00" waitingCount="1" stopTime="0.00" timeLoss="124.78" rerouteNo="0" devices="tripinfo_flow_route_72_duration_20250327_2200.1" vType="car" speedFactor="0.88" vaporized=""/>
    <tripinfo id="flow_route_71_duration_20250327_2200.2" depart="31.00" departLane="1369578052#0_0" departPos="31.04" departSpeed="0.00" departDelay="1.00" arrival="173.00" arrivalLane="138002016#0_0" arrivalPos="227.80" arrivalSpeed="16.43" duration="142.00" routeLength="414.44" waitingTime="94.00" waitingCount="1" stopTime="0.00" timeLoss="116.80" rerouteNo="0" devices="tripinfo_flow_route_71_duration_20250327_2200.2" vType="car" speedFactor="1.01" vaporized=""/>
    <tripinfo id="flow_route_71_duration_20250327_2200.3" depart="45.00" departLane="1369578052#0_0" departPos="62.49" departSpeed="0.00" departDelay="0.00" arrival="181.00" arrivalLane="138002016#0_1" arrivalPos="315.89" arrivalSpeed="15.36" duration="136.00" routeLength="471.08" waitingTime="83.00" waitingCount="1" stopTime="0.00" timeLoss="105.67" rerouteNo="0" devices="tripinfo_flow_route_71_duration_20250327_2200.3" vType="car" speedFactor="0.95" vaporized=""/>
</tripinfos>
