<?xml version="1.0" encoding="UTF-8"?>

<!-- generated on 2025-05-06 21:09:08 by Eclipse SUMO sumo Version 1.20.0
<configuration xmlns:xsi="http://www.w3.org/2001/XMLSchema-instance" xsi:noNamespaceSchemaLocation="http://sumo.dlr.de/xsd/sumoConfiguration.xsd">

    <input>
        <net-file value="osm.net.xml"/>
        <route-files value="xml/route_static_J7_8.rou.xml"/>
    </input>

    <output>
        <tripinfo-output value="xml/tripinfo_static_J7_8.xml"/>
    </output>

    <traci_server>
        <remote-port value="56947"/>
    </traci_server>

</configuration>
-->

<tripinfos xmlns:xsi="http://www.w3.org/2001/XMLSchema-instance" xsi:noNamespaceSchemaLocation="http://sumo.dlr.de/xsd/tripinfo_file.xsd">
    <tripinfo id="flow_route_131_duration_20250327_2220.0" depart="0.00" departLane="714011134#0_0" departPos="6.35" departSpeed="0.00" departDelay="0.00" arrival="28.00" arrivalLane="134194079#0_1" arrivalPos="73.02" arrivalSpeed="14.32" duration="28.00" routeLength="232.63" waitingTime="0.00" waitingCount="0" stopTime="0.00" timeLoss="11.35" rerouteNo="0" devices="tripinfo_flow_route_131_duration_20250327_2220.0" vType="car" speedFactor="0.89" vaporized=""/>
    <tripinfo id="flow_route_127_duration_20250327_2220.0" depart="0.00" departLane="-138000461_0" departPos="55.90" departSpeed="0.00" departDelay="0.00" arrival="31.00" arrivalLane="189240000#0-AddedOnRampEdge_0" arrivalPos="70.17" arrivalSpeed="14.55" duration="31.00" routeLength="273.38" waitingTime="0.00" waitingCount="0" stopTime="0.00" timeLoss="13.71" rerouteNo="0" devices="tripinfo_flow_route_127_duration_20250327_2220.0" vType="car" speedFactor="1.05" vaporized=""/>
    <tripinfo id="flow_route_132_duration_20250327_2220.0" depart="0.00" departLane="714011134#0_0" departPos="92.28" departSpeed="0.00" departDelay="0.00" arrival="35.00" arrivalLane="189240000#0-AddedOnRampEdge_1" arrivalPos="51.48" arrivalSpeed="15.31" duration="35.00" routeLength="375.34" waitingTime="0.00" waitingCount="0" stopTime="0.00" timeLoss="10.03" rerouteNo="0" devices="tripinfo_flow_route_132_duration_20250327_2220.0" vType="car" speedFactor="0.94" vaporized=""/>
    <tripinfo id="flow_route_116_duration_20250327_2220.0" depart="0.00" departLane="177211987#1_0" departPos="0.88" departSpeed="0.00" departDelay="0.00" arrival="39.00" arrivalLane="688883939#0_1" arrivalPos="93.94" arrivalSpeed="16.42" duration="39.00" routeLength="448.08" waitingTime="0.00" waitingCount="0" stopTime="0.00" timeLoss="11.35" rerouteNo="0" devices="tripinfo_flow_route_116_duration_20250327_2220.0" vType="car" speedFactor="1.06" vaporized=""/>
    <tripinfo id="flow_route_121_duration_20250327_2220.0" depart="1.00" departLane="799091563#0_0" departPos="259.58" departSpeed="0.00" departDelay="1.00" arrival="39.00" arrivalLane="134194079#0_0" arrivalPos="144.99" arrivalSpeed="15.03" duration="38.00" routeLength="274.57" waitingTime="0.00" waitingCount="0" stopTime="0.00" timeLoss="20.44" rerouteNo="0" devices="tripinfo_flow_route_121_duration_20250327_2220.0" vType="car" speedFactor="1.08" vaporized=""/>
    <tripinfo id="flow_route_132_duration_20250327_2220.1" depart="5.00" departLane="714011134#0_0" departPos="32.36" departSpeed="0.00" departDelay="0.39" arrival="42.00" arrivalLane="189240000#0-AddedOnRampEdge_1" arrivalPos="48.43" arrivalSpeed="16.35" duration="37.00" routeLength="432.21" waitingTime="0.00" waitingCount="0" stopTime="0.00" timeLoss="10.80" rerouteNo="0" devices="tripinfo_flow_route_132_duration_20250327_2220.1" vType="car" speedFactor="1.09" vaporized=""/>
    <tripinfo id="flow_route_127_duration_20250327_2220.1" depart="10.00" departLane="-138000461_0" departPos="6.85" departSpeed="0.00" departDelay="0.00" arrival="45.00" arrivalLane="189240000#0-AddedOnRampEdge_0" arrivalPos="51.39" arrivalSpeed="12.73" duration="35.00" routeLength="303.65" waitingTime="0.00" waitingCount="0" stopTime="0.00" timeLoss="15.87" rerouteNo="0" devices="tripinfo_flow_route_127_duration_20250327_2220.1" vType="car" speedFactor="1.12" vaporized=""/>
    <tripinfo id="flow_route_132_duration_20250327_2220.2" depart="10.00" departLane="714011134#0_0" departPos="31.80" departSpeed="0.00" departDelay="0.77" arrival="45.00" arrivalLane="189240000#0-AddedOnRampEdge_1" arrivalPos="22.35" arrivalSpeed="16.24" duration="35.00" routeLength="406.69" waitingTime="0.00" waitingCount="0" stopTime="0.00" timeLoss="10.33" rerouteNo="0" devices="tripinfo_flow_route_132_duration_20250327_2220.2" vType="car" speedFactor="0.99" vaporized=""/>
    <tripinfo id="flow_route_127_duration_20250327_2220.2" depart="20.00" departLane="-138000461_0" departPos="146.16" departSpeed="0.00" departDelay="0.00" arrival="45.00" arrivalLane="189240000#0-AddedOnRampEdge_0" arrivalPos="76.63" arrivalSpeed="13.97" duration="25.00" routeLength="189.58" waitingTime="0.00" waitingCount="0" stopTime="0.00" timeLoss="11.61" rerouteNo="0" devices="tripinfo_flow_route_127_duration_20250327_2220.2" vType="car" speedFactor="0.89" vaporized=""/>
    <tripinfo id="flow_route_121_duration_20250327_2220.1" depart="6.00" departLane="799091563#0_0" departPos="337.05" departSpeed="0.00" departDelay="0.55" arrival="46.00" arrivalLane="134194079#0_0" arrivalPos="277.04" arrivalSpeed="16.25" duration="40.00" routeLength="329.15" waitingTime="0.00" waitingCount="0" stopTime="0.00" timeLoss="18.92" rerouteNo="0" devices="tripinfo_flow_route_121_duration_20250327_2220.1" vType="car" speedFactor="1.05" vaporized=""/>
    <tripinfo id="flow_route_121_duration_20250327_2220.5" depart="28.00" departLane="799091563#0_0" departPos="352.42" departSpeed="0.00" departDelay="0.73" arrival="47.00" arrivalLane="134194079#0_0" arrivalPos="82.26" arrivalSpeed="12.46" duration="19.00" routeLength="119.00" waitingTime="0.00" waitingCount="0" stopTime="0.00" timeLoss="11.01" rerouteNo="0" devices="tripinfo_flow_route_121_duration_20250327_2220.5" vType="car" speedFactor="1.13" vaporized=""/>
    <tripinfo id="flow_route_126_duration_20250327_2220.0" depart="0.00" departLane="-138000461_0" departPos="119.67" departSpeed="0.00" departDelay="0.00" arrival="52.00" arrivalLane="138000492#0_1" arrivalPos="18.35" arrivalSpeed="13.72" duration="52.00" routeLength="582.25" waitingTime="0.00" waitingCount="0" stopTime="0.00" timeLoss="9.16" rerouteNo="0" devices="tripinfo_flow_route_126_duration_20250327_2220.0" vType="car" speedFactor="0.83" vaporized=""/>
    <tripinfo id="flow_route_132_duration_20250327_2220.4" depart="23.00" departLane="714011134#0_0" departPos="61.13" departSpeed="0.00" departDelay="4.54" arrival="57.00" arrivalLane="189240000#0-AddedOnRampEdge_1" arrivalPos="21.07" arrivalSpeed="16.14" duration="34.00" routeLength="376.07" waitingTime="0.00" waitingCount="0" stopTime="0.00" timeLoss="10.39" rerouteNo="0" devices="tripinfo_flow_route_132_duration_20250327_2220.4" vType="car" speedFactor="1.02" vaporized=""/>
    <tripinfo id="flow_route_127_duration_20250327_2220.3" depart="30.00" departLane="-138000461_0" departPos="38.18" departSpeed="0.00" departDelay="0.00" arrival="58.00" arrivalLane="189240000#0-AddedOnRampEdge_0" arrivalPos="32.01" arrivalSpeed="11.29" duration="28.00" routeLength="252.94" waitingTime="0.00" waitingCount="0" stopTime="0.00" timeLoss="12.35" rerouteNo="0" devices="tripinfo_flow_route_127_duration_20250327_2220.3" vType="car" speedFactor="1.01" vaporized=""/>
    <tripinfo id="flow_route_133_duration_20250327_2220.0" depart="0.00" departLane="714011134#0_0" departPos="33.93" departSpeed="0.00" departDelay="0.00" arrival="59.00" arrivalLane="138000492#0_0" arrivalPos="313.58" arrivalSpeed="14.27" duration="59.00" routeLength="604.48" waitingTime="0.00" waitingCount="0" stopTime="0.00" timeLoss="15.55" rerouteNo="0" devices="tripinfo_flow_route_133_duration_20250327_2220.0" vType="car" speedFactor="0.86" vaporized=""/>
    <tripinfo id="flow_route_117_duration_20250327_2220.0" depart="0.00" departLane="177211987#1_0" departPos="98.51" departSpeed="0.00" departDelay="0.00" arrival="62.00" arrivalLane="138000492#0_0" arrivalPos="299.85" arrivalSpeed="15.44" duration="62.00" routeLength="701.60" waitingTime="0.00" waitingCount="0" stopTime="0.00" timeLoss="15.94" rerouteNo="0" devices="tripinfo_flow_route_117_duration_20250327_2220.0" vType="car" speedFactor="0.94" vaporized=""/>
    <tripinfo id="flow_route_132_duration_20250327_2220.3" depart="15.00" departLane="714011134#0_0" departPos="13.63" departSpeed="0.00" departDelay="1.16" arrival="62.00" arrivalLane="189240000#0-AddedOnRampEdge_1" arrivalPos="64.68" arrivalSpeed="15.63" duration="47.00" routeLength="467.18" waitingTime="0.00" waitingCount="0" stopTime="0.00" timeLoss="16.37" rerouteNo="0" devices="tripinfo_flow_route_132_duration_20250327_2220.3" vType="car" speedFactor="0.94" vaporized=""/>
    <tripinfo id="flow_route_133_duration_20250327_2220.1" depart="23.00" departLane="714011134#0_0" departPos="17.75" departSpeed="0.00" departDelay="3.00" arrival="65.00" arrivalLane="138000492#0_2" arrivalPos="37.46" arrivalSpeed="10.72" duration="42.00" routeLength="344.56" waitingTime="0.00" waitingCount="0" stopTime="0.00" timeLoss="16.06" rerouteNo="0" devices="tripinfo_flow_route_133_duration_20250327_2220.1" vType="car" speedFactor="0.83" vaporized=""/>
    <tripinfo id="flow_route_122_duration_20250327_2220.0" depart="1.00" departLane="799091563#0_0" departPos="17.54" departSpeed="0.00" departDelay="1.00" arrival="68.00" arrivalLane="688883939#0_2" arrivalPos="62.20" arrivalSpeed="14.05" duration="67.00" routeLength="483.30" waitingTime="13.00" waitingCount="1" stopTime="0.00" timeLoss="37.09" rerouteNo="0" devices="tripinfo_flow_route_122_duration_20250327_2220.0" vType="car" speedFactor="1.03" vaporized=""/>
    <tripinfo id="flow_route_121_duration_20250327_2220.3" depart="17.00" departLane="799091563#0_0" departPos="156.20" departSpeed="0.00" departDelay="0.64" arrival="68.00" arrivalLane="134194079#0_0" arrivalPos="36.99" arrivalSpeed="9.29" duration="51.00" routeLength="269.95" waitingTime="0.00" waitingCount="0" stopTime="0.00" timeLoss="32.08" rerouteNo="0" devices="tripinfo_flow_route_121_duration_20250327_2220.3" vType="car" speedFactor="0.94" vaporized=""/>
    <tripinfo id="flow_route_122_duration_20250327_2220.1" depart="30.00" departLane="799091563#0_0" departPos="78.67" departSpeed="0.00" departDelay="0.00" arrival="68.00" arrivalLane="688883939#0_2" arrivalPos="33.09" arrivalSpeed="14.23" duration="38.00" routeLength="393.06" waitingTime="0.00" waitingCount="0" stopTime="0.00" timeLoss="14.13" rerouteNo="0" devices="tripinfo_flow_route_122_duration_20250327_2220.1" vType="car" speedFactor="1.15" vaporized=""/>
    <tripinfo id="flow_route_127_duration_20250327_2220.4" depart="42.00" departLane="-138000461_0" departPos="86.87" departSpeed="0.00" departDelay="2.00" arrival="68.00" arrivalLane="189240000#0-AddedOnRampEdge_0" arrivalPos="28.58" arrivalSpeed="12.09" duration="26.00" routeLength="200.82" waitingTime="0.00" waitingCount="0" stopTime="0.00" timeLoss="13.06" rerouteNo="0" devices="tripinfo_flow_route_127_duration_20250327_2220.4" vType="car" speedFactor="1.03" vaporized=""/>
    <tripinfo id="flow_route_132_duration_20250327_2220.7" depart="34.00" departLane="714011134#0_0" departPos="71.53" departSpeed="0.00" departDelay="1.70" arrival="69.00" arrivalLane="189240000#0-AddedOnRampEdge_1" arrivalPos="33.22" arrivalSpeed="16.47" duration="35.00" routeLength="377.83" waitingTime="0.00" waitingCount="0" stopTime="0.00" timeLoss="11.50" rerouteNo="0" devices="tripinfo_flow_route_132_duration_20250327_2220.7" vType="car" speedFactor="0.99" vaporized=""/>
    <tripinfo id="flow_route_132_duration_20250327_2220.5" depart="25.00" departLane="714011134#0_0" departPos="2.93" departSpeed="0.00" departDelay="1.93" arrival="70.00" arrivalLane="189240000#0-AddedOnRampEdge_1" arrivalPos="17.31" arrivalSpeed="15.81" duration="45.00" routeLength="430.52" waitingTime="0.00" waitingCount="0" stopTime="0.00" timeLoss="17.25" rerouteNo="0" devices="tripinfo_flow_route_132_duration_20250327_2220.5" vType="car" speedFactor="0.95" vaporized=""/>
    <tripinfo id="flow_route_117_duration_20250327_2220.1" depart="7.00" departLane="177211987#1_0" departPos="58.05" departSpeed="0.00" departDelay="1.00" arrival="78.00" arrivalLane="138000492#0_0" arrivalPos="266.59" arrivalSpeed="16.41" duration="71.00" routeLength="708.81" waitingTime="3.00" waitingCount="1" stopTime="0.00" timeLoss="27.44" rerouteNo="0" devices="tripinfo_flow_route_117_duration_20250327_2220.1" vType="car" speedFactor="1.03" vaporized=""/>
    <tripinfo id="flow_route_121_duration_20250327_2220.8" depart="44.00" departLane="799091563#0_0" departPos="296.56" departSpeed="0.00" departDelay="0.37" arrival="81.00" arrivalLane="134194079#0_0" arrivalPos="137.58" arrivalSpeed="14.76" duration="37.00" routeLength="230.17" waitingTime="0.00" waitingCount="0" stopTime="0.00" timeLoss="21.81" rerouteNo="0" devices="tripinfo_flow_route_121_duration_20250327_2220.8" vType="car" speedFactor="1.04" vaporized=""/>
    <tripinfo id="flow_route_121_duration_20250327_2220.4" depart="22.00" departLane="799091563#0_0" departPos="187.04" departSpeed="0.00" departDelay="0.18" arrival="84.00" arrivalLane="134194079#0_0" arrivalPos="283.20" arrivalSpeed="14.31" duration="62.00" routeLength="485.32" waitingTime="0.00" waitingCount="0" stopTime="0.00" timeLoss="27.60" rerouteNo="0" devices="tripinfo_flow_route_121_duration_20250327_2220.4" vType="car" speedFactor="0.87" vaporized=""/>
    <tripinfo id="flow_route_121_duration_20250327_2220.2" depart="11.00" departLane="799091563#0_0" departPos="60.42" departSpeed="0.00" departDelay="0.09" arrival="85.00" arrivalLane="134194079#0_0" arrivalPos="225.54" arrivalSpeed="14.96" duration="74.00" routeLength="554.29" waitingTime="0.00" waitingCount="0" stopTime="0.00" timeLoss="36.05" rerouteNo="0" devices="tripinfo_flow_route_121_duration_20250327_2220.2" vType="car" speedFactor="0.93" vaporized=""/>
    <tripinfo id="flow_route_120_duration_20250327_2220.1" depart="20.00" departLane="799091563#0_0" departPos="226.40" departSpeed="0.00" departDelay="0.00" arrival="85.00" arrivalLane="138000492#0_0" arrivalPos="101.59" arrivalSpeed="15.14" duration="65.00" routeLength="473.35" waitingTime="8.00" waitingCount="1" stopTime="0.00" timeLoss="35.01" rerouteNo="0" devices="tripinfo_flow_route_120_duration_20250327_2220.1" vType="car" speedFactor="0.97" vaporized=""/>
    <tripinfo id="flow_route_120_duration_20250327_2220.0" depart="0.00" departLane="799091563#0_0" departPos="177.01" departSpeed="0.00" departDelay="0.00" arrival="86.00" arrivalLane="138000492#0_1" arrivalPos="19.14" arrivalSpeed="8.90" duration="86.00" routeLength="440.29" waitingTime="26.00" waitingCount="2" stopTime="0.00" timeLoss="59.17" rerouteNo="0" devices="tripinfo_flow_route_120_duration_20250327_2220.0" vType="car" speedFactor="1.01" vaporized=""/>
    <tripinfo id="flow_route_121_duration_20250327_2220.7" depart="39.00" departLane="799091563#0_0" departPos="138.66" departSpeed="0.00" departDelay="0.82" arrival="86.00" arrivalLane="134194079#0_0" arrivalPos="172.59" arrivalSpeed="16.37" duration="47.00" routeLength="423.09" waitingTime="0.00" waitingCount="0" stopTime="0.00" timeLoss="20.03" rerouteNo="0" devices="tripinfo_flow_route_121_duration_20250327_2220.7" vType="car" speedFactor="1.18" vaporized=""/>
    <tripinfo id="flow_route_120_duration_20250327_2220.2" depart="40.00" departLane="799091563#0_0" departPos="351.21" departSpeed="0.00" departDelay="0.00" arrival="86.00" arrivalLane="138000492#0_2" arrivalPos="10.04" arrivalSpeed="9.32" duration="46.00" routeLength="256.99" waitingTime="4.00" waitingCount="1" stopTime="0.00" timeLoss="28.95" rerouteNo="0" devices="tripinfo_flow_route_120_duration_20250327_2220.2" vType="car" speedFactor="0.90" vaporized=""/>
    <tripinfo id="flow_route_127_duration_20250327_2220.5" depart="50.00" departLane="-138000461_0" departPos="32.45" departSpeed="0.00" departDelay="0.00" arrival="87.00" arrivalLane="189240000#0-AddedOnRampEdge_0" arrivalPos="92.35" arrivalSpeed="14.13" duration="37.00" routeLength="319.01" waitingTime="0.00" waitingCount="0" stopTime="0.00" timeLoss="14.71" rerouteNo="0" devices="tripinfo_flow_route_127_duration_20250327_2220.5" vType="car" speedFactor="0.88" vaporized=""/>
    <tripinfo id="flow_route_121_duration_20250327_2220.10" depart="56.00" departLane="799091563#0_0" departPos="225.06" departSpeed="0.00" departDelay="1.46" arrival="88.00" arrivalLane="134194079#0_0" arrivalPos="81.80" arrivalSpeed="13.31" duration="32.00" routeLength="245.91" waitingTime="0.00" waitingCount="0" stopTime="0.00" timeLoss="16.09" rerouteNo="0" devices="tripinfo_flow_route_121_duration_20250327_2220.10" vType="car" speedFactor="1.17" vaporized=""/>
    <tripinfo id="flow_route_121_duration_20250327_2220.6" depart="33.00" departLane="799091563#0_0" departPos="110.13" departSpeed="0.00" departDelay="0.28" arrival="90.00" arrivalLane="134194079#0_0" arrivalPos="212.97" arrivalSpeed="16.50" duration="57.00" routeLength="491.99" waitingTime="0.00" waitingCount="0" stopTime="0.00" timeLoss="25.97" rerouteNo="0" devices="tripinfo_flow_route_121_duration_20250327_2220.6" vType="car" speedFactor="1.17" vaporized=""/>
    <tripinfo id="flow_route_121_duration_20250327_2220.9" depart="51.00" departLane="799091563#0_0" departPos="130.84" departSpeed="0.00" departDelay="1.91" arrival="100.00" arrivalLane="134194079#0_0" arrivalPos="199.24" arrivalSpeed="14.79" duration="49.00" routeLength="457.56" waitingTime="0.00" waitingCount="0" stopTime="0.00" timeLoss="16.60" rerouteNo="0" devices="tripinfo_flow_route_121_duration_20250327_2220.9" vType="car" speedFactor="0.90" vaporized=""/>
    <tripinfo id="flow_route_116_duration_20250327_2220.1" depart="20.00" departLane="177211987#1_0" departPos="104.74" departSpeed="0.00" departDelay="0.00" arrival="143.00" arrivalLane="688883939#0_0" arrivalPos="60.26" arrivalSpeed="13.25" duration="123.00" routeLength="310.55" waitingTime="80.00" waitingCount="1" stopTime="0.00" timeLoss="103.92" rerouteNo="0" devices="tripinfo_flow_route_116_duration_20250327_2220.1" vType="car" speedFactor="1.01" vaporized=""/>
    <tripinfo id="flow_route_116_duration_20250327_2220.2" depart="42.00" departLane="177211987#1_0" departPos="43.37" departSpeed="0.00" departDelay="2.00" arrival="147.00" arrivalLane="688883939#0_1" arrivalPos="102.99" arrivalSpeed="14.65" duration="105.00" routeLength="414.63" waitingTime="54.00" waitingCount="1" stopTime="0.00" timeLoss="79.86" rerouteNo="0" devices="tripinfo_flow_route_116_duration_20250327_2220.2" vType="car" speedFactor="1.10" vaporized=""/>
    <tripinfo id="flow_route_132_duration_20250327_2220.6" depart="31.00" departLane="714011134#0_0" departPos="4.94" departSpeed="0.00" departDelay="3.31" arrival="159.00" arrivalLane="189240000#0-AddedOnRampEdge_1" arrivalPos="51.62" arrivalSpeed="15.05" duration="128.00" routeLength="462.82" waitingTime="77.00" waitingCount="1" stopTime="0.00" timeLoss="97.97" rerouteNo="0" devices="tripinfo_flow_route_132_duration_20250327_2220.6" vType="car" speedFactor="0.93" vaporized=""/>
    <tripinfo id="flow_route_132_duration_20250327_2220.8" depart="45.00" departLane="714011134#0_0" departPos="29.64" departSpeed="0.00" departDelay="8.08" arrival="162.00" arrivalLane="189240000#0-AddedOnRampEdge_2" arrivalPos="36.80" arrivalSpeed="16.01" duration="117.00" routeLength="423.30" waitingTime="64.00" waitingCount="1" stopTime="0.00" timeLoss="90.07" rerouteNo="0" devices="tripinfo_flow_route_132_duration_20250327_2220.8" vType="car" speedFactor="0.97" vaporized=""/>
    <tripinfo id="flow_route_132_duration_20250327_2220.9" depart="45.00" departLane="714011134#0_0" departPos="13.10" departSpeed="0.00" departDelay="3.47" arrival="165.00" arrivalLane="189240000#0-AddedOnRampEdge_1" arrivalPos="54.16" arrivalSpeed="13.84" duration="120.00" routeLength="457.20" waitingTime="63.00" waitingCount="1" stopTime="0.00" timeLoss="91.74" rerouteNo="0" devices="tripinfo_flow_route_132_duration_20250327_2220.9" vType="car" speedFactor="1.04" vaporized=""/>
    <tripinfo id="flow_route_132_duration_20250327_2220.11" depart="51.00" departLane="714011134#0_0" departPos="69.91" departSpeed="0.00" departDelay="0.24" arrival="165.00" arrivalLane="189240000#0-AddedOnRampEdge_1" arrivalPos="85.39" arrivalSpeed="14.04" duration="114.00" routeLength="431.62" waitingTime="65.00" waitingCount="1" stopTime="0.00" timeLoss="83.26" rerouteNo="0" devices="tripinfo_flow_route_132_duration_20250327_2220.11" vType="car" speedFactor="0.85" vaporized=""/>
    <tripinfo id="flow_route_133_duration_20250327_2220.2" depart="45.00" departLane="714011134#0_0" departPos="75.06" departSpeed="0.00" departDelay="5.00" arrival="166.00" arrivalLane="138000492#0_2" arrivalPos="44.07" arrivalSpeed="13.53" duration="121.00" routeLength="293.85" waitingTime="74.00" waitingCount="2" stopTime="0.00" timeLoss="100.88" rerouteNo="0" devices="tripinfo_flow_route_133_duration_20250327_2220.2" vType="car" speedFactor="0.96" vaporized=""/>
    <tripinfo id="flow_route_132_duration_20250327_2220.10" depart="49.00" departLane="714011134#0_0" departPos="4.49" departSpeed="0.00" departDelay="2.85" arrival="167.00" arrivalLane="189240000#0-AddedOnRampEdge_1" arrivalPos="67.34" arrivalSpeed="15.69" duration="118.00" routeLength="478.99" waitingTime="62.00" waitingCount="1" stopTime="0.00" timeLoss="88.77" rerouteNo="0" devices="tripinfo_flow_route_132_duration_20250327_2220.10" vType="car" speedFactor="1.09" vaporized=""/>
    <tripinfo id="flow_route_132_duration_20250327_2220.12" depart="57.00" departLane="714011134#0_0" departPos="10.84" departSpeed="0.00" departDelay="1.62" arrival="168.00" arrivalLane="189240000#0-AddedOnRampEdge_1" arrivalPos="64.28" arrivalSpeed="15.67" duration="111.00" routeLength="469.58" waitingTime="60.00" waitingCount="1" stopTime="0.00" timeLoss="82.70" rerouteNo="0" devices="tripinfo_flow_route_132_duration_20250327_2220.12" vType="car" speedFactor="1.02" vaporized=""/>
    <tripinfo id="flow_route_117_duration_20250327_2220.6" depart="36.00" departLane="177211987#1_0" departPos="90.03" departSpeed="0.00" departDelay="0.00" arrival="171.00" arrivalLane="138000492#0_2" arrivalPos="178.11" arrivalSpeed="16.37" duration="135.00" routeLength="588.33" waitingTime="70.00" waitingCount="1" stopTime="0.00" timeLoss="98.70" rerouteNo="0" devices="tripinfo_flow_route_117_duration_20250327_2220.6" vType="car" speedFactor="1.02" vaporized=""/>
    <tripinfo id="flow_route_117_duration_20250327_2220.9" depart="54.00" departLane="177211987#1_0" departPos="86.23" departSpeed="0.00" departDelay="0.00" arrival="176.00" arrivalLane="138000492#0_0" arrivalPos="181.32" arrivalSpeed="14.13" duration="122.00" routeLength="595.36" waitingTime="54.00" waitingCount="1" stopTime="0.00" timeLoss="79.84" rerouteNo="0" devices="tripinfo_flow_route_117_duration_20250327_2220.9" vType="car" speedFactor="0.85" vaporized=""/>
    <tripinfo id="flow_route_117_duration_20250327_2220.3" depart="18.00" departLane="177211987#1_0" departPos="38.65" departSpeed="0.00" departDelay="0.00" arrival="180.00" arrivalLane="138000492#0_1" arrivalPos="405.92" arrivalSpeed="16.44" duration="162.00" routeLength="867.53" waitingTime="77.00" waitingCount="1" stopTime="0.00" timeLoss="109.14" rerouteNo="0" devices="tripinfo_flow_route_117_duration_20250327_2220.3" vType="car" speedFactor="1.16" vaporized=""/>
    <tripinfo id="flow_route_117_duration_20250327_2220.4" depart="24.00" departLane="177211987#1_0" departPos="93.92" departSpeed="0.00" departDelay="0.00" arrival="183.00" arrivalLane="138000492#0_0" arrivalPos="401.86" arrivalSpeed="14.92" duration="159.00" routeLength="808.21" waitingTime="77.00" waitingCount="1" stopTime="0.00" timeLoss="105.09" rerouteNo="0" devices="tripinfo_flow_route_117_duration_20250327_2220.4" vType="car" speedFactor="0.92" vaporized=""/>
    <tripinfo id="flow_route_117_duration_20250327_2220.2" depart="12.00" departLane="177211987#1_0" departPos="4.37" departSpeed="0.00" departDelay="0.00" arrival="185.00" arrivalLane="138000492#0_0" arrivalPos="402.57" arrivalSpeed="14.64" duration="173.00" routeLength="898.47" waitingTime="76.00" waitingCount="1" stopTime="0.00" timeLoss="111.26" rerouteNo="0" devices="tripinfo_flow_route_117_duration_20250327_2220.2" vType="car" speedFactor="0.88" vaporized=""/>
    <tripinfo id="flow_route_117_duration_20250327_2220.5" depart="31.00" departLane="177211987#1_0" departPos="11.71" departSpeed="0.00" departDelay="1.00" arrival="188.00" arrivalLane="138000492#0_1" arrivalPos="417.59" arrivalSpeed="16.43" duration="157.00" routeLength="906.14" waitingTime="69.00" waitingCount="1" stopTime="0.00" timeLoss="101.62" rerouteNo="0" devices="tripinfo_flow_route_117_duration_20250327_2220.5" vType="car" speedFactor="1.18" vaporized=""/>
    <tripinfo id="flow_route_117_duration_20250327_2220.7" depart="43.00" departLane="177211987#1_0" departPos="14.86" departSpeed="0.00" departDelay="1.00" arrival="191.00" arrivalLane="138000492#0_2" arrivalPos="367.74" arrivalSpeed="16.31" duration="148.00" routeLength="853.14" waitingTime="54.00" waitingCount="1" stopTime="0.00" timeLoss="96.44" rerouteNo="0" devices="tripinfo_flow_route_117_duration_20250327_2220.7" vType="car" speedFactor="1.09" vaporized=""/>
    <tripinfo id="flow_route_117_duration_20250327_2220.8" depart="49.00" departLane="177211987#1_0" departPos="57.18" departSpeed="0.00" departDelay="1.00" arrival="191.00" arrivalLane="138000492#0_0" arrivalPos="371.18" arrivalSpeed="16.52" duration="142.00" routeLength="814.26" waitingTime="54.00" waitingCount="1" stopTime="0.00" timeLoss="92.29" rerouteNo="0" devices="tripinfo_flow_route_117_duration_20250327_2220.8" vType="car" speedFactor="1.00" vaporized=""/>
</tripinfos>
