<?xml version="1.0" encoding="UTF-8"?>

<!-- generated on 2025-05-06 21:08:45 by Eclipse SUMO sumo Version 1.20.0
<configuration xmlns:xsi="http://www.w3.org/2001/XMLSchema-instance" xsi:noNamespaceSchemaLocation="http://sumo.dlr.de/xsd/sumoConfiguration.xsd">

    <input>
        <net-file value="osm.net.xml"/>
        <route-files value="xml/route_static_cluster10852700972_12154751993_6.rou.xml"/>
    </input>

    <output>
        <tripinfo-output value="xml/tripinfo_static_cluster10852700972_12154751993_6.xml"/>
    </output>

    <traci_server>
        <remote-port value="36393"/>
    </traci_server>

</configuration>
-->

<tripinfos xmlns:xsi="http://www.w3.org/2001/XMLSchema-instance" xsi:noNamespaceSchemaLocation="http://sumo.dlr.de/xsd/tripinfo_file.xsd">
    <tripinfo id="flow_route_61_duration_20250327_2150.0" depart="0.00" departLane="186407684#0_0" departPos="65.67" departSpeed="0.00" departDelay="0.00" arrival="23.00" arrivalLane="1341093416#0_1" arrivalPos="161.76" arrivalSpeed="16.51" duration="23.00" routeLength="210.27" waitingTime="0.00" waitingCount="0" stopTime="0.00" timeLoss="9.77" rerouteNo="0" devices="tripinfo_flow_route_61_duration_20250327_2150.0" vType="car" speedFactor="1.03" vaporized=""/>
    <tripinfo id="flow_route_60_duration_20250327_2150.0" depart="0.00" departLane="186407684#0_0" departPos="48.06" departSpeed="0.00" departDelay="0.00" arrival="25.00" arrivalLane="791826085_0" arrivalPos="160.28" arrivalSpeed="16.53" duration="25.00" routeLength="221.15" waitingTime="0.00" waitingCount="0" stopTime="0.00" timeLoss="11.04" rerouteNo="0" devices="tripinfo_flow_route_60_duration_20250327_2150.0" vType="car" speedFactor="1.08" vaporized=""/>
    <tripinfo id="flow_route_60_duration_20250327_2150.1" depart="15.00" departLane="186407684#0_0" departPos="77.17" departSpeed="0.00" departDelay="0.00" arrival="32.00" arrivalLane="791826085_0" arrivalPos="86.27" arrivalSpeed="13.27" duration="17.00" routeLength="118.03" waitingTime="0.00" waitingCount="0" stopTime="0.00" timeLoss="9.23" rerouteNo="0" devices="tripinfo_flow_route_60_duration_20250327_2150.1" vType="car" speedFactor="0.94" vaporized=""/>
    <tripinfo id="flow_route_61_duration_20250327_2150.1" depart="12.00" departLane="186407684#0_0" departPos="39.84" departSpeed="0.00" departDelay="0.00" arrival="39.00" arrivalLane="1341093416#0_1" arrivalPos="184.53" arrivalSpeed="16.16" duration="27.00" routeLength="258.87" waitingTime="0.00" waitingCount="0" stopTime="0.00" timeLoss="10.74" rerouteNo="0" devices="tripinfo_flow_route_61_duration_20250327_2150.1" vType="car" speedFactor="1.05" vaporized=""/>
    <tripinfo id="flow_route_56_duration_20250327_2150.0" depart="0.00" departLane="1341093415#0_0" departPos="44.11" departSpeed="0.00" departDelay="0.00" arrival="40.00" arrivalLane="409155823_0" arrivalPos="4.00" arrivalSpeed="6.74" duration="40.00" routeLength="164.73" waitingTime="11.00" waitingCount="1" stopTime="0.00" timeLoss="29.14" rerouteNo="0" devices="tripinfo_flow_route_56_duration_20250327_2150.0" vType="car" speedFactor="1.01" vaporized=""/>
    <tripinfo id="flow_route_56_duration_20250327_2150.1" depart="12.00" departLane="1341093415#0_0" departPos="83.09" departSpeed="0.00" departDelay="0.00" arrival="42.00" arrivalLane="409155823_0" arrivalPos="0.53" arrivalSpeed="6.93" duration="30.00" routeLength="122.28" waitingTime="2.00" waitingCount="1" stopTime="0.00" timeLoss="21.08" rerouteNo="0" devices="tripinfo_flow_route_56_duration_20250327_2150.1" vType="car" speedFactor="0.83" vaporized=""/>
    <tripinfo id="flow_route_55_duration_20250327_2150.2" depart="30.00" departLane="1341093415#0_0" departPos="167.37" departSpeed="0.00" departDelay="0.00" arrival="49.00" arrivalLane="791826085_0" arrivalPos="100.14" arrivalSpeed="13.26" duration="19.00" routeLength="122.48" waitingTime="0.00" waitingCount="0" stopTime="0.00" timeLoss="10.74" rerouteNo="0" devices="tripinfo_flow_route_55_duration_20250327_2150.2" vType="car" speedFactor="1.03" vaporized=""/>
    <tripinfo id="flow_route_56_duration_20250327_2150.2" depart="24.00" departLane="1341093415#0_0" departPos="8.23" departSpeed="0.00" departDelay="0.00" arrival="51.00" arrivalLane="409155823_0" arrivalPos="28.34" arrivalSpeed="10.82" duration="27.00" routeLength="224.95" waitingTime="0.00" waitingCount="0" stopTime="0.00" timeLoss="11.35" rerouteNo="0" devices="tripinfo_flow_route_56_duration_20250327_2150.2" vType="car" speedFactor="0.86" vaporized=""/>
    <tripinfo id="flow_route_55_duration_20250327_2150.0" depart="0.00" departLane="1341093415#0_0" departPos="132.48" departSpeed="0.00" departDelay="0.00" arrival="56.00" arrivalLane="791826085_0" arrivalPos="232.37" arrivalSpeed="15.58" duration="56.00" routeLength="289.60" waitingTime="17.00" waitingCount="1" stopTime="0.00" timeLoss="36.83" rerouteNo="0" devices="tripinfo_flow_route_55_duration_20250327_2150.0" vType="car" speedFactor="0.94" vaporized=""/>
    <tripinfo id="flow_route_55_duration_20250327_2150.1" depart="15.00" departLane="1341093415#0_0" departPos="10.74" departSpeed="0.00" departDelay="0.00" arrival="57.00" arrivalLane="791826085_0" arrivalPos="184.68" arrivalSpeed="14.47" duration="42.00" routeLength="363.65" waitingTime="0.00" waitingCount="0" stopTime="0.00" timeLoss="17.25" rerouteNo="0" devices="tripinfo_flow_route_55_duration_20250327_2150.1" vType="car" speedFactor="0.89" vaporized=""/>
    <tripinfo id="flow_route_54_duration_20250327_2150.0" depart="0.00" departLane="1341093415#0_0" departPos="7.77" departSpeed="0.00" departDelay="0.00" arrival="58.00" arrivalLane="1341093416#0_0" arrivalPos="244.31" arrivalSpeed="16.53" duration="58.00" routeLength="443.35" waitingTime="7.00" waitingCount="1" stopTime="0.00" timeLoss="30.59" rerouteNo="0" devices="tripinfo_flow_route_54_duration_20250327_2150.0" vType="car" speedFactor="1.06" vaporized=""/>
    <tripinfo id="flow_route_56_duration_20250327_2150.3" depart="36.00" departLane="1341093415#0_0" departPos="97.02" departSpeed="0.00" departDelay="0.00" arrival="58.00" arrivalLane="409155823_0" arrivalPos="78.14" arrivalSpeed="16.05" duration="22.00" routeLength="185.96" waitingTime="0.00" waitingCount="0" stopTime="0.00" timeLoss="9.69" rerouteNo="0" devices="tripinfo_flow_route_56_duration_20250327_2150.3" vType="car" speedFactor="1.12" vaporized=""/>
    <tripinfo id="flow_route_55_duration_20250327_2150.3" depart="45.00" departLane="1341093415#0_0" departPos="136.26" departSpeed="0.00" departDelay="0.00" arrival="59.00" arrivalLane="791826085_0" arrivalPos="10.57" arrivalSpeed="8.42" duration="14.00" routeLength="64.02" waitingTime="0.00" waitingCount="0" stopTime="0.00" timeLoss="8.82" rerouteNo="0" devices="tripinfo_flow_route_55_duration_20250327_2150.3" vType="car" speedFactor="0.93" vaporized=""/>
    <tripinfo id="flow_route_56_duration_20250327_2150.4" depart="48.00" departLane="1341093415#0_0" departPos="122.11" departSpeed="0.00" departDelay="0.00" arrival="70.00" arrivalLane="409155823_0" arrivalPos="84.21" arrivalSpeed="14.84" duration="22.00" routeLength="166.94" waitingTime="0.00" waitingCount="0" stopTime="0.00" timeLoss="10.06" rerouteNo="0" devices="tripinfo_flow_route_56_duration_20250327_2150.4" vType="car" speedFactor="0.94" vaporized=""/>
    <tripinfo id="flow_route_61_duration_20250327_2150.4" depart="48.00" departLane="186407684#0_0" departPos="29.20" departSpeed="0.00" departDelay="0.00" arrival="77.00" arrivalLane="1341093416#0_1" arrivalPos="8.18" arrivalSpeed="8.29" duration="29.00" routeLength="93.16" waitingTime="6.00" waitingCount="1" stopTime="0.00" timeLoss="22.15" rerouteNo="0" devices="tripinfo_flow_route_61_duration_20250327_2150.4" vType="car" speedFactor="0.94" vaporized=""/>
    <tripinfo id="flow_route_61_duration_20250327_2150.3" depart="36.00" departLane="186407684#0_0" departPos="20.86" departSpeed="0.00" departDelay="0.00" arrival="83.00" arrivalLane="1341093416#0_2" arrivalPos="108.74" arrivalSpeed="14.07" duration="47.00" routeLength="197.90" waitingTime="14.00" waitingCount="1" stopTime="0.00" timeLoss="34.16" rerouteNo="0" devices="tripinfo_flow_route_61_duration_20250327_2150.3" vType="car" speedFactor="0.99" vaporized=""/>
    <tripinfo id="flow_route_60_duration_20250327_2150.3" depart="45.00" departLane="186407684#0_0" departPos="14.02" departSpeed="0.00" departDelay="0.00" arrival="86.00" arrivalLane="791826085_0" arrivalPos="98.41" arrivalSpeed="13.53" duration="41.00" routeLength="193.32" waitingTime="2.00" waitingCount="1" stopTime="0.00" timeLoss="27.02" rerouteNo="0" devices="tripinfo_flow_route_60_duration_20250327_2150.3" vType="car" speedFactor="0.88" vaporized=""/>
    <tripinfo id="flow_route_61_duration_20250327_2150.2" depart="24.00" departLane="186407684#0_0" departPos="45.21" departSpeed="0.00" departDelay="0.00" arrival="89.00" arrivalLane="1341093416#0_1" arrivalPos="187.44" arrivalSpeed="16.12" duration="65.00" routeLength="256.41" waitingTime="29.00" waitingCount="1" stopTime="0.00" timeLoss="48.24" rerouteNo="0" devices="tripinfo_flow_route_61_duration_20250327_2150.2" vType="car" speedFactor="1.09" vaporized=""/>
    <tripinfo id="flow_route_60_duration_20250327_2150.2" depart="30.00" departLane="186407684#0_0" departPos="72.65" departSpeed="0.00" departDelay="0.00" arrival="91.00" arrivalLane="791826085_0" arrivalPos="206.60" arrivalSpeed="16.34" duration="61.00" routeLength="242.88" waitingTime="28.00" waitingCount="1" stopTime="0.00" timeLoss="46.13" rerouteNo="0" devices="tripinfo_flow_route_60_duration_20250327_2150.2" vType="car" speedFactor="1.05" vaporized=""/>
</tripinfos>
