<?xml version="1.0" encoding="UTF-8"?>

<!-- generated on 2025-05-06 21:08:05 by Eclipse SUMO sumo Version 1.20.0
<configuration xmlns:xsi="http://www.w3.org/2001/XMLSchema-instance" xsi:noNamespaceSchemaLocation="http://sumo.dlr.de/xsd/sumoConfiguration.xsd">

    <input>
        <net-file value="osm.net.xml"/>
        <route-files value="xml/route_static_cluster7571105647_7571105653_cluster_1141265322_11869698130_256036890_4227138136_#4more_2.rou.xml"/>
    </input>

    <output>
        <tripinfo-output value="xml/tripinfo_static_cluster7571105647_7571105653_cluster_1141265322_11869698130_256036890_4227138136_#4more_2.xml"/>
    </output>

    <traci_server>
        <remote-port value="57251"/>
    </traci_server>

</configuration>
-->

<tripinfos xmlns:xsi="http://www.w3.org/2001/XMLSchema-instance" xsi:noNamespaceSchemaLocation="http://sumo.dlr.de/xsd/tripinfo_file.xsd">
    <tripinfo id="flow_route_143_duration_20250327_2000.0" depart="0.00" departLane="1253222187#0_0" departPos="157.10" departSpeed="0.00" departDelay="0.00" arrival="28.00" arrivalLane="1310781056_0" arrivalPos="55.73" arrivalSpeed="16.37" duration="28.00" routeLength="267.13" waitingTime="0.00" waitingCount="0" stopTime="0.00" timeLoss="11.65" rerouteNo="0" devices="tripinfo_flow_route_143_duration_20250327_2000.0" vType="car" speedFactor="1.08" vaporized=""/>
    <tripinfo id="flow_route_140_duration_20250327_2000.1" depart="5.00" departLane="809719540#0_0" departPos="82.48" departSpeed="0.00" departDelay="0.00" arrival="48.00" arrivalLane="-809772643#1_1" arrivalPos="66.57" arrivalSpeed="13.67" duration="43.00" routeLength="294.37" waitingTime="2.00" waitingCount="1" stopTime="0.00" timeLoss="22.43" rerouteNo="0" devices="tripinfo_flow_route_140_duration_20250327_2000.1" vType="car" speedFactor="0.89" vaporized=""/>
    <tripinfo id="flow_route_140_duration_20250327_2000.4" depart="20.00" departLane="809719540#0_0" departPos="48.07" departSpeed="0.00" departDelay="0.00" arrival="51.00" arrivalLane="-809772643#1_1" arrivalPos="5.76" arrivalSpeed="10.42" duration="31.00" routeLength="267.96" waitingTime="0.00" waitingCount="0" stopTime="0.00" timeLoss="14.45" rerouteNo="0" devices="tripinfo_flow_route_140_duration_20250327_2000.4" vType="car" speedFactor="0.97" vaporized=""/>
    <tripinfo id="flow_route_140_duration_20250327_2000.2" depart="11.00" departLane="809719540#0_0" departPos="110.49" departSpeed="0.00" departDelay="1.00" arrival="52.00" arrivalLane="-809772643#1_1" arrivalPos="32.90" arrivalSpeed="11.28" duration="41.00" routeLength="232.69" waitingTime="1.00" waitingCount="1" stopTime="0.00" timeLoss="26.70" rerouteNo="0" devices="tripinfo_flow_route_140_duration_20250327_2000.2" vType="car" speedFactor="1.05" vaporized=""/>
    <tripinfo id="flow_route_140_duration_20250327_2000.5" depart="25.00" departLane="809719540#0_0" departPos="182.29" departSpeed="0.00" departDelay="0.00" arrival="53.00" arrivalLane="-809772643#1_0" arrivalPos="149.26" arrivalSpeed="16.45" duration="28.00" routeLength="274.41" waitingTime="0.00" waitingCount="0" stopTime="0.00" timeLoss="11.29" rerouteNo="0" devices="tripinfo_flow_route_140_duration_20250327_2000.5" vType="car" speedFactor="1.13" vaporized=""/>
    <tripinfo id="flow_route_140_duration_20250327_2000.0" depart="0.00" departLane="809719540#0_0" departPos="199.64" departSpeed="0.00" departDelay="0.00" arrival="54.00" arrivalLane="-809772643#1_0" arrivalPos="184.22" arrivalSpeed="16.51" duration="54.00" routeLength="292.04" waitingTime="15.00" waitingCount="1" stopTime="0.00" timeLoss="35.70" rerouteNo="0" devices="tripinfo_flow_route_140_duration_20250327_2000.0" vType="car" speedFactor="1.06" vaporized=""/>
    <tripinfo id="flow_route_142_duration_20250327_2000.0" depart="0.00" departLane="1253222187#0_0" departPos="114.97" departSpeed="0.00" departDelay="0.00" arrival="54.00" arrivalLane="683079388#0_0" arrivalPos="1.17" arrivalSpeed="16.14" duration="54.00" routeLength="684.52" waitingTime="0.00" waitingCount="0" stopTime="0.00" timeLoss="11.84" rerouteNo="0" devices="tripinfo_flow_route_142_duration_20250327_2000.0" vType="car" speedFactor="1.01" vaporized=""/>
    <tripinfo id="flow_route_140_duration_20250327_2000.3" depart="15.00" departLane="809719540#0_0" departPos="82.67" departSpeed="0.00" departDelay="0.00" arrival="55.00" arrivalLane="-809772643#1_0" arrivalPos="147.95" arrivalSpeed="15.25" duration="40.00" routeLength="372.73" waitingTime="0.00" waitingCount="0" stopTime="0.00" timeLoss="15.81" rerouteNo="0" devices="tripinfo_flow_route_140_duration_20250327_2000.3" vType="car" speedFactor="0.94" vaporized=""/>
    <tripinfo id="flow_route_142_duration_20250327_2000.3" depart="9.00" departLane="1253222187#0_0" departPos="161.19" departSpeed="0.00" departDelay="0.00" arrival="59.00" arrivalLane="683079388#0_0" arrivalPos="0.84" arrivalSpeed="16.33" duration="50.00" routeLength="637.96" waitingTime="0.00" waitingCount="0" stopTime="0.00" timeLoss="11.05" rerouteNo="0" devices="tripinfo_flow_route_142_duration_20250327_2000.3" vType="car" speedFactor="1.03" vaporized=""/>
    <tripinfo id="flow_route_142_duration_20250327_2000.2" depart="6.00" departLane="1253222187#0_0" departPos="83.61" departSpeed="0.00" departDelay="0.00" arrival="62.00" arrivalLane="683079388#0_0" arrivalPos="21.28" arrivalSpeed="16.39" duration="56.00" routeLength="735.98" waitingTime="0.00" waitingCount="0" stopTime="0.00" timeLoss="11.17" rerouteNo="0" devices="tripinfo_flow_route_142_duration_20250327_2000.2" vType="car" speedFactor="1.09" vaporized=""/>
    <tripinfo id="flow_route_146_duration_20250327_2000.1" depart="9.00" departLane="683079387#1_0" departPos="3.08" departSpeed="0.00" departDelay="4.00" arrival="63.00" arrivalLane="-809772643#1_1" arrivalPos="9.55" arrivalSpeed="14.28" duration="54.00" routeLength="619.44" waitingTime="0.00" waitingCount="0" stopTime="0.00" timeLoss="9.92" rerouteNo="0" devices="tripinfo_flow_route_146_duration_20250327_2000.1" vType="car" speedFactor="0.86" vaporized=""/>
    <tripinfo id="flow_route_142_duration_20250327_2000.1" depart="3.00" departLane="1253222187#0_0" departPos="12.70" departSpeed="0.00" departDelay="0.00" arrival="64.00" arrivalLane="683079388#0_1" arrivalPos="14.62" arrivalSpeed="16.12" duration="61.00" routeLength="800.23" waitingTime="0.00" waitingCount="0" stopTime="0.00" timeLoss="12.03" rerouteNo="0" devices="tripinfo_flow_route_142_duration_20250327_2000.1" vType="car" speedFactor="1.05" vaporized=""/>
    <tripinfo id="flow_route_142_duration_20250327_2000.5" depart="16.00" departLane="1253222187#0_0" departPos="201.33" departSpeed="0.00" departDelay="1.00" arrival="64.00" arrivalLane="683079388#0_0" arrivalPos="17.86" arrivalSpeed="16.23" duration="48.00" routeLength="614.84" waitingTime="0.00" waitingCount="0" stopTime="0.00" timeLoss="10.53" rerouteNo="0" devices="tripinfo_flow_route_142_duration_20250327_2000.5" vType="car" speedFactor="1.16" vaporized=""/>
    <tripinfo id="flow_route_140_duration_20250327_2000.6" depart="33.00" departLane="809719540#0_0" departPos="154.08" departSpeed="0.00" departDelay="3.00" arrival="66.00" arrivalLane="-809772643#1_0" arrivalPos="201.97" arrivalSpeed="16.52" duration="33.00" routeLength="355.33" waitingTime="0.00" waitingCount="0" stopTime="0.00" timeLoss="11.02" rerouteNo="0" devices="tripinfo_flow_route_140_duration_20250327_2000.6" vType="car" speedFactor="1.01" vaporized=""/>
    <tripinfo id="flow_route_147_duration_20250327_2000.0" depart="5.00" departLane="683079387#1_0" departPos="5.24" departSpeed="0.00" departDelay="5.00" arrival="76.00" arrivalLane="1310781056_0" arrivalPos="4.95" arrivalSpeed="14.09" duration="71.00" routeLength="679.54" waitingTime="0.00" waitingCount="0" stopTime="0.00" timeLoss="21.41" rerouteNo="0" devices="tripinfo_flow_route_147_duration_20250327_2000.0" vType="car" speedFactor="0.83" vaporized=""/>
    <tripinfo id="flow_route_146_duration_20250327_2000.3" depart="15.00" departLane="683079387#1_0" departPos="1.72" departSpeed="0.00" departDelay="0.00" arrival="77.00" arrivalLane="-809772643#1_1" arrivalPos="193.33" arrivalSpeed="16.43" duration="62.00" routeLength="804.58" waitingTime="0.00" waitingCount="0" stopTime="0.00" timeLoss="12.91" rerouteNo="0" devices="tripinfo_flow_route_146_duration_20250327_2000.3" vType="car" speedFactor="1.02" vaporized=""/>
    <tripinfo id="flow_route_146_duration_20250327_2000.0" depart="0.00" departLane="683079387#1_0" departPos="0.06" departSpeed="0.00" departDelay="0.00" arrival="78.00" arrivalLane="-809772643#1_0" arrivalPos="121.98" arrivalSpeed="16.26" duration="78.00" routeLength="734.89" waitingTime="11.00" waitingCount="1" stopTime="0.00" timeLoss="33.11" rerouteNo="0" devices="tripinfo_flow_route_146_duration_20250327_2000.0" vType="car" speedFactor="1.03" vaporized=""/>
    <tripinfo id="flow_route_146_duration_20250327_2000.2" depart="15.00" departLane="683079387#1_0" departPos="9.80" departSpeed="0.00" departDelay="5.00" arrival="78.00" arrivalLane="-809772643#1_1" arrivalPos="141.65" arrivalSpeed="15.38" duration="63.00" routeLength="744.81" waitingTime="0.00" waitingCount="0" stopTime="0.00" timeLoss="14.52" rerouteNo="0" devices="tripinfo_flow_route_146_duration_20250327_2000.2" vType="car" speedFactor="0.93" vaporized=""/>
    <tripinfo id="flow_route_146_duration_20250327_2000.5" depart="26.00" departLane="683079387#1_0" departPos="5.24" departSpeed="0.00" departDelay="1.00" arrival="79.00" arrivalLane="-809772643#1_0" arrivalPos="59.97" arrivalSpeed="14.05" duration="53.00" routeLength="667.70" waitingTime="0.00" waitingCount="0" stopTime="0.00" timeLoss="12.23" rerouteNo="0" devices="tripinfo_flow_route_146_duration_20250327_2000.5" vType="car" speedFactor="1.18" vaporized=""/>
    <tripinfo id="flow_route_141_duration_20250327_2000.0" depart="0.00" departLane="809719540#0_0" departPos="66.48" departSpeed="0.00" departDelay="0.00" arrival="84.00" arrivalLane="683079387#1_1" arrivalPos="7.27" arrivalSpeed="6.50" duration="84.00" routeLength="836.36" waitingTime="4.00" waitingCount="1" stopTime="0.00" timeLoss="27.47" rerouteNo="0" devices="tripinfo_flow_route_141_duration_20250327_2000.0" vType="car" speedFactor="0.94" vaporized=""/>
    <tripinfo id="flow_route_141_duration_20250327_2000.1" depart="5.00" departLane="809719540#0_0" departPos="170.15" departSpeed="0.00" departDelay="0.00" arrival="86.00" arrivalLane="683079387#1_1" arrivalPos="6.98" arrivalSpeed="6.60" duration="81.00" routeLength="739.41" waitingTime="6.00" waitingCount="1" stopTime="0.00" timeLoss="30.98" rerouteNo="0" devices="tripinfo_flow_route_141_duration_20250327_2000.1" vType="car" speedFactor="0.94" vaporized=""/>
    <tripinfo id="flow_route_146_duration_20250327_2000.4" depart="21.00" departLane="683079387#1_0" departPos="2.12" departSpeed="0.00" departDelay="1.00" arrival="86.00" arrivalLane="-809772643#1_0" arrivalPos="191.90" arrivalSpeed="14.21" duration="65.00" routeLength="802.75" waitingTime="0.00" waitingCount="0" stopTime="0.00" timeLoss="9.78" rerouteNo="0" devices="tripinfo_flow_route_146_duration_20250327_2000.4" vType="car" speedFactor="0.87" vaporized=""/>
    <tripinfo id="flow_route_141_duration_20250327_2000.3" depart="15.00" departLane="809719540#0_0" departPos="132.30" departSpeed="0.00" departDelay="0.00" arrival="89.00" arrivalLane="683079387#1_1" arrivalPos="6.09" arrivalSpeed="6.23" duration="74.00" routeLength="769.34" waitingTime="0.00" waitingCount="0" stopTime="0.00" timeLoss="21.50" rerouteNo="0" devices="tripinfo_flow_route_141_duration_20250327_2000.3" vType="car" speedFactor="0.94" vaporized=""/>
    <tripinfo id="flow_route_146_duration_20250327_2000.6" depart="30.00" departLane="683079387#1_0" departPos="4.34" departSpeed="0.00" departDelay="0.00" arrival="90.00" arrivalLane="-809772643#1_0" arrivalPos="181.03" arrivalSpeed="15.85" duration="60.00" routeLength="789.66" waitingTime="0.00" waitingCount="0" stopTime="0.00" timeLoss="11.07" rerouteNo="0" devices="tripinfo_flow_route_146_duration_20250327_2000.6" vType="car" speedFactor="0.97" vaporized=""/>
    <tripinfo id="flow_route_141_duration_20250327_2000.2" depart="12.00" departLane="809719540#0_0" departPos="45.11" departSpeed="0.00" departDelay="2.00" arrival="92.00" arrivalLane="683079387#1_1" arrivalPos="9.77" arrivalSpeed="7.43" duration="80.00" routeLength="860.21" waitingTime="0.00" waitingCount="0" stopTime="0.00" timeLoss="25.90" rerouteNo="0" devices="tripinfo_flow_route_141_duration_20250327_2000.2" vType="car" speedFactor="1.12" vaporized=""/>
    <tripinfo id="flow_route_141_duration_20250327_2000.6" depart="33.00" departLane="809719540#0_0" departPos="260.94" departSpeed="0.00" departDelay="3.00" arrival="93.00" arrivalLane="683079387#1_1" arrivalPos="0.24" arrivalSpeed="6.66" duration="60.00" routeLength="641.88" waitingTime="1.00" waitingCount="1" stopTime="0.00" timeLoss="19.38" rerouteNo="0" devices="tripinfo_flow_route_141_duration_20250327_2000.6" vType="car" speedFactor="1.17" vaporized=""/>
    <tripinfo id="flow_route_146_duration_20250327_2000.7" depart="36.00" departLane="683079387#1_0" departPos="2.87" departSpeed="0.00" departDelay="1.00" arrival="93.00" arrivalLane="-809772643#1_0" arrivalPos="144.62" arrivalSpeed="16.43" duration="57.00" routeLength="754.72" waitingTime="0.00" waitingCount="0" stopTime="0.00" timeLoss="10.76" rerouteNo="0" devices="tripinfo_flow_route_146_duration_20250327_2000.7" vType="car" speedFactor="1.03" vaporized=""/>
    <tripinfo id="flow_route_141_duration_20250327_2000.4" depart="21.00" departLane="809719540#0_0" departPos="152.34" departSpeed="0.00" departDelay="1.00" arrival="96.00" arrivalLane="683079387#1_1" arrivalPos="2.85" arrivalSpeed="6.27" duration="75.00" routeLength="746.07" waitingTime="0.00" waitingCount="0" stopTime="0.00" timeLoss="21.51" rerouteNo="0" devices="tripinfo_flow_route_141_duration_20250327_2000.4" vType="car" speedFactor="0.89" vaporized=""/>
    <tripinfo id="flow_route_141_duration_20250327_2000.5" depart="25.00" departLane="809719540#0_0" departPos="113.68" departSpeed="0.00" departDelay="0.00" arrival="99.00" arrivalLane="683079387#1_1" arrivalPos="3.59" arrivalSpeed="5.97" duration="74.00" routeLength="785.48" waitingTime="0.00" waitingCount="0" stopTime="0.00" timeLoss="19.99" rerouteNo="0" devices="tripinfo_flow_route_141_duration_20250327_2000.5" vType="car" speedFactor="0.93" vaporized=""/>
    <tripinfo id="flow_route_140_duration_20250327_2000.11" depart="55.00" departLane="809719540#0_0" departPos="267.73" departSpeed="0.00" departDelay="0.00" arrival="99.00" arrivalLane="-809772643#1_0" arrivalPos="23.64" arrivalSpeed="9.29" duration="44.00" routeLength="63.37" waitingTime="31.00" waitingCount="1" stopTime="0.00" timeLoss="40.08" rerouteNo="0" devices="tripinfo_flow_route_140_duration_20250327_2000.11" vType="car" speedFactor="0.97" vaporized=""/>
    <tripinfo id="flow_route_142_duration_20250327_2000.10" depart="30.00" departLane="1253222187#0_0" departPos="195.01" departSpeed="0.00" departDelay="0.00" arrival="103.00" arrivalLane="683079388#0_0" arrivalPos="7.82" arrivalSpeed="16.41" duration="73.00" routeLength="611.12" waitingTime="19.00" waitingCount="1" stopTime="0.00" timeLoss="35.39" rerouteNo="0" devices="tripinfo_flow_route_142_duration_20250327_2000.10" vType="car" speedFactor="0.99" vaporized=""/>
    <tripinfo id="flow_route_141_duration_20250327_2000.7" depart="35.00" departLane="809719540#0_0" departPos="125.25" departSpeed="0.00" departDelay="0.00" arrival="103.00" arrivalLane="683079387#1_1" arrivalPos="3.50" arrivalSpeed="5.97" duration="68.00" routeLength="780.83" waitingTime="0.00" waitingCount="0" stopTime="0.00" timeLoss="12.81" rerouteNo="0" devices="tripinfo_flow_route_141_duration_20250327_2000.7" vType="car" speedFactor="0.90" vaporized=""/>
    <tripinfo id="flow_route_143_duration_20250327_2000.1" depart="10.00" departLane="1253222187#0_0" departPos="27.28" departSpeed="0.00" departDelay="0.00" arrival="104.00" arrivalLane="1310781056_0" arrivalPos="3.38" arrivalSpeed="15.58" duration="94.00" routeLength="344.60" waitingTime="46.00" waitingCount="2" stopTime="0.00" timeLoss="72.34" rerouteNo="0" devices="tripinfo_flow_route_143_duration_20250327_2000.1" vType="car" speedFactor="0.99" vaporized=""/>
    <tripinfo id="flow_route_140_duration_20250327_2000.9" depart="45.00" departLane="809719540#0_0" departPos="154.00" departSpeed="0.00" departDelay="0.00" arrival="104.00" arrivalLane="-809772643#1_0" arrivalPos="57.33" arrivalSpeed="11.96" duration="59.00" routeLength="210.78" waitingTime="24.00" waitingCount="1" stopTime="0.00" timeLoss="44.53" rerouteNo="0" devices="tripinfo_flow_route_140_duration_20250327_2000.9" vType="car" speedFactor="0.88" vaporized=""/>
    <tripinfo id="flow_route_142_duration_20250327_2000.8" depart="27.00" departLane="1253222187#0_0" departPos="123.34" departSpeed="0.00" departDelay="3.00" arrival="105.00" arrivalLane="683079388#0_0" arrivalPos="1.21" arrivalSpeed="15.38" duration="78.00" routeLength="676.17" waitingTime="14.00" waitingCount="1" stopTime="0.00" timeLoss="35.05" rerouteNo="0" devices="tripinfo_flow_route_142_duration_20250327_2000.8" vType="car" speedFactor="0.95" vaporized=""/>
    <tripinfo id="flow_route_140_duration_20250327_2000.8" depart="40.00" departLane="809719540#0_0" departPos="104.93" departSpeed="0.00" departDelay="0.00" arrival="105.00" arrivalLane="-809772643#1_0" arrivalPos="29.19" arrivalSpeed="10.72" duration="65.00" routeLength="231.70" waitingTime="23.00" waitingCount="1" stopTime="0.00" timeLoss="50.54" rerouteNo="0" devices="tripinfo_flow_route_140_duration_20250327_2000.8" vType="car" speedFactor="1.04" vaporized=""/>
    <tripinfo id="flow_route_140_duration_20250327_2000.10" depart="51.00" departLane="809719540#0_0" departPos="246.74" departSpeed="0.00" departDelay="1.00" arrival="105.00" arrivalLane="-809772643#1_1" arrivalPos="99.80" arrivalSpeed="15.22" duration="54.00" routeLength="163.34" waitingTime="28.00" waitingCount="1" stopTime="0.00" timeLoss="43.49" rerouteNo="0" devices="tripinfo_flow_route_140_duration_20250327_2000.10" vType="car" speedFactor="1.10" vaporized=""/>
    <tripinfo id="flow_route_142_duration_20250327_2000.4" depart="13.00" departLane="1253222187#0_0" departPos="18.77" departSpeed="0.00" departDelay="1.00" arrival="106.00" arrivalLane="683079388#0_2" arrivalPos="5.76" arrivalSpeed="14.56" duration="93.00" routeLength="785.30" waitingTime="18.00" waitingCount="1" stopTime="0.00" timeLoss="39.35" rerouteNo="0" devices="tripinfo_flow_route_142_duration_20250327_2000.4" vType="car" speedFactor="0.88" vaporized=""/>
    <tripinfo id="flow_route_140_duration_20250327_2000.7" depart="35.00" departLane="809719540#0_0" departPos="27.27" departSpeed="0.00" departDelay="0.00" arrival="106.00" arrivalLane="-809772643#1_1" arrivalPos="84.99" arrivalSpeed="14.34" duration="71.00" routeLength="368.01" waitingTime="22.00" waitingCount="1" stopTime="0.00" timeLoss="48.32" rerouteNo="0" devices="tripinfo_flow_route_140_duration_20250327_2000.7" vType="car" speedFactor="1.10" vaporized=""/>
    <tripinfo id="flow_route_142_duration_20250327_2000.7" depart="21.00" departLane="1253222187#0_0" departPos="38.09" departSpeed="0.00" departDelay="0.00" arrival="109.00" arrivalLane="683079388#0_0" arrivalPos="2.22" arrivalSpeed="15.00" duration="88.00" routeLength="762.44" waitingTime="7.00" waitingCount="1" stopTime="0.00" timeLoss="37.94" rerouteNo="0" devices="tripinfo_flow_route_142_duration_20250327_2000.7" vType="car" speedFactor="0.92" vaporized=""/>
    <tripinfo id="flow_route_142_duration_20250327_2000.9" depart="28.00" departLane="1253222187#0_0" departPos="76.99" departSpeed="0.00" departDelay="1.00" arrival="109.00" arrivalLane="683079388#0_2" arrivalPos="21.32" arrivalSpeed="16.41" duration="81.00" routeLength="742.63" waitingTime="8.00" waitingCount="1" stopTime="0.00" timeLoss="35.68" rerouteNo="0" devices="tripinfo_flow_route_142_duration_20250327_2000.9" vType="car" speedFactor="1.15" vaporized=""/>
    <tripinfo id="flow_route_142_duration_20250327_2000.12" depart="36.00" departLane="1253222187#0_0" departPos="150.16" departSpeed="0.00" departDelay="0.00" arrival="109.00" arrivalLane="683079388#0_0" arrivalPos="20.17" arrivalSpeed="15.61" duration="73.00" routeLength="668.31" waitingTime="10.00" waitingCount="1" stopTime="0.00" timeLoss="30.23" rerouteNo="0" devices="tripinfo_flow_route_142_duration_20250327_2000.12" vType="car" speedFactor="0.96" vaporized=""/>
    <tripinfo id="flow_route_142_duration_20250327_2000.6" depart="20.00" departLane="1253222187#0_0" departPos="14.12" departSpeed="0.00" departDelay="2.00" arrival="111.00" arrivalLane="683079388#0_2" arrivalPos="4.73" arrivalSpeed="16.40" duration="91.00" routeLength="788.92" waitingTime="6.00" waitingCount="1" stopTime="0.00" timeLoss="42.65" rerouteNo="0" devices="tripinfo_flow_route_142_duration_20250327_2000.6" vType="car" speedFactor="1.01" vaporized=""/>
    <tripinfo id="flow_route_142_duration_20250327_2000.11" depart="33.00" departLane="1253222187#0_0" departPos="62.48" departSpeed="0.00" departDelay="0.00" arrival="113.00" arrivalLane="683079388#0_2" arrivalPos="22.56" arrivalSpeed="16.19" duration="80.00" routeLength="758.40" waitingTime="5.00" waitingCount="1" stopTime="0.00" timeLoss="34.10" rerouteNo="0" devices="tripinfo_flow_route_142_duration_20250327_2000.11" vType="car" speedFactor="1.18" vaporized=""/>
    <tripinfo id="flow_route_142_duration_20250327_2000.15" depart="46.00" departLane="1253222187#0_0" departPos="173.12" departSpeed="0.00" departDelay="1.00" arrival="114.00" arrivalLane="683079388#0_0" arrivalPos="17.58" arrivalSpeed="14.22" duration="68.00" routeLength="642.77" waitingTime="6.00" waitingCount="1" stopTime="0.00" timeLoss="22.06" rerouteNo="0" devices="tripinfo_flow_route_142_duration_20250327_2000.15" vType="car" speedFactor="0.85" vaporized=""/>
    <tripinfo id="flow_route_142_duration_20250327_2000.16" depart="50.00" departLane="1253222187#0_0" departPos="168.24" departSpeed="0.00" departDelay="2.00" arrival="114.00" arrivalLane="683079388#0_0" arrivalPos="0.38" arrivalSpeed="13.54" duration="64.00" routeLength="630.45" waitingTime="5.00" waitingCount="1" stopTime="0.00" timeLoss="25.64" rerouteNo="0" devices="tripinfo_flow_route_142_duration_20250327_2000.16" vType="car" speedFactor="1.02" vaporized=""/>
    <tripinfo id="flow_route_142_duration_20250327_2000.14" depart="42.00" departLane="1253222187#0_0" departPos="124.20" departSpeed="0.00" departDelay="0.00" arrival="116.00" arrivalLane="683079388#0_2" arrivalPos="17.13" arrivalSpeed="14.97" duration="74.00" routeLength="691.23" waitingTime="5.00" waitingCount="1" stopTime="0.00" timeLoss="27.61" rerouteNo="0" devices="tripinfo_flow_route_142_duration_20250327_2000.14" vType="car" speedFactor="0.90" vaporized=""/>
    <tripinfo id="flow_route_142_duration_20250327_2000.13" depart="40.00" departLane="1253222187#0_0" departPos="8.98" departSpeed="0.00" departDelay="1.00" arrival="117.00" arrivalLane="683079388#0_2" arrivalPos="3.21" arrivalSpeed="15.57" duration="77.00" routeLength="792.54" waitingTime="0.00" waitingCount="0" stopTime="0.00" timeLoss="28.57" rerouteNo="0" devices="tripinfo_flow_route_142_duration_20250327_2000.13" vType="car" speedFactor="1.09" vaporized=""/>
    <tripinfo id="flow_route_142_duration_20250327_2000.17" depart="51.00" departLane="1253222187#0_0" departPos="102.55" departSpeed="0.00" departDelay="0.00" arrival="117.00" arrivalLane="683079388#0_0" arrivalPos="17.01" arrivalSpeed="16.36" duration="66.00" routeLength="712.76" waitingTime="0.00" waitingCount="0" stopTime="0.00" timeLoss="22.23" rerouteNo="0" devices="tripinfo_flow_route_142_duration_20250327_2000.17" vType="car" speedFactor="1.14" vaporized=""/>
    <tripinfo id="flow_route_142_duration_20250327_2000.18" depart="55.00" departLane="1253222187#0_0" departPos="82.96" departSpeed="0.00" departDelay="1.00" arrival="119.00" arrivalLane="683079388#0_0" arrivalPos="23.47" arrivalSpeed="16.47" duration="64.00" routeLength="738.82" waitingTime="0.00" waitingCount="0" stopTime="0.00" timeLoss="18.64" rerouteNo="0" devices="tripinfo_flow_route_142_duration_20250327_2000.18" vType="car" speedFactor="1.02" vaporized=""/>
    <tripinfo id="flow_route_142_duration_20250327_2000.19" depart="57.00" departLane="1253222187#0_0" departPos="70.17" departSpeed="0.00" departDelay="0.00" arrival="119.00" arrivalLane="683079388#0_2" arrivalPos="11.95" arrivalSpeed="16.47" duration="62.00" routeLength="740.09" waitingTime="0.00" waitingCount="0" stopTime="0.00" timeLoss="16.79" rerouteNo="0" devices="tripinfo_flow_route_142_duration_20250327_2000.19" vType="car" speedFactor="1.02" vaporized=""/>
    <tripinfo id="flow_route_146_duration_20250327_2000.8" depart="41.00" departLane="683079387#1_0" departPos="3.52" departSpeed="0.00" departDelay="1.00" arrival="133.00" arrivalLane="-809772643#1_0" arrivalPos="99.25" arrivalSpeed="15.28" duration="92.00" routeLength="708.70" waitingTime="25.00" waitingCount="1" stopTime="0.00" timeLoss="49.10" rerouteNo="0" devices="tripinfo_flow_route_146_duration_20250327_2000.8" vType="car" speedFactor="1.00" vaporized=""/>
    <tripinfo id="flow_route_146_duration_20250327_2000.10" depart="50.00" departLane="683079387#1_0" departPos="0.01" departSpeed="0.00" departDelay="0.00" arrival="134.00" arrivalLane="-809772643#1_0" arrivalPos="71.50" arrivalSpeed="14.57" duration="84.00" routeLength="684.47" waitingTime="16.00" waitingCount="1" stopTime="0.00" timeLoss="37.54" rerouteNo="0" devices="tripinfo_flow_route_146_duration_20250327_2000.10" vType="car" speedFactor="0.90" vaporized=""/>
    <tripinfo id="flow_route_146_duration_20250327_2000.9" depart="47.00" departLane="683079387#1_0" departPos="5.61" departSpeed="0.00" departDelay="2.00" arrival="135.00" arrivalLane="-809772643#1_0" arrivalPos="122.54" arrivalSpeed="16.43" duration="88.00" routeLength="729.91" waitingTime="19.00" waitingCount="1" stopTime="0.00" timeLoss="43.95" rerouteNo="0" devices="tripinfo_flow_route_146_duration_20250327_2000.9" vType="car" speedFactor="1.17" vaporized=""/>
    <tripinfo id="flow_route_146_duration_20250327_2000.11" depart="57.00" departLane="683079387#1_0" departPos="8.61" departSpeed="0.00" departDelay="2.00" arrival="140.00" arrivalLane="-809772643#1_1" arrivalPos="169.41" arrivalSpeed="16.44" duration="83.00" routeLength="773.76" waitingTime="11.00" waitingCount="1" stopTime="0.00" timeLoss="36.36" rerouteNo="0" devices="tripinfo_flow_route_146_duration_20250327_2000.11" vType="car" speedFactor="1.12" vaporized=""/>
    <tripinfo id="flow_route_141_duration_20250327_2000.8" depart="42.00" departLane="809719540#0_0" departPos="115.73" departSpeed="0.00" departDelay="2.00" arrival="142.00" arrivalLane="683079387#1_1" arrivalPos="9.01" arrivalSpeed="6.89" duration="100.00" routeLength="788.84" waitingTime="22.00" waitingCount="1" stopTime="0.00" timeLoss="49.69" rerouteNo="0" devices="tripinfo_flow_route_141_duration_20250327_2000.8" vType="car" speedFactor="1.04" vaporized=""/>
    <tripinfo id="flow_route_141_duration_20250327_2000.11" depart="55.00" departLane="809719540#0_0" departPos="130.93" departSpeed="0.00" departDelay="0.00" arrival="145.00" arrivalLane="683079387#1_1" arrivalPos="8.69" arrivalSpeed="7.20" duration="90.00" routeLength="780.34" waitingTime="13.00" waitingCount="1" stopTime="0.00" timeLoss="40.56" rerouteNo="0" devices="tripinfo_flow_route_141_duration_20250327_2000.11" vType="car" speedFactor="1.08" vaporized=""/>
    <tripinfo id="flow_route_141_duration_20250327_2000.9" depart="45.00" departLane="809719540#0_0" departPos="27.63" departSpeed="0.00" departDelay="0.00" arrival="149.00" arrivalLane="683079387#1_1" arrivalPos="3.87" arrivalSpeed="5.90" duration="104.00" routeLength="871.80" waitingTime="15.00" waitingCount="1" stopTime="0.00" timeLoss="39.22" rerouteNo="0" devices="tripinfo_flow_route_141_duration_20250327_2000.9" vType="car" speedFactor="0.85" vaporized=""/>
    <tripinfo id="flow_route_143_duration_20250327_2000.2" depart="20.00" departLane="1253222187#0_0" departPos="66.17" departSpeed="0.00" departDelay="0.00" arrival="152.00" arrivalLane="1310781056_0" arrivalPos="62.00" arrivalSpeed="16.58" duration="132.00" routeLength="364.33" waitingTime="74.00" waitingCount="4" stopTime="0.00" timeLoss="107.35" rerouteNo="0" devices="tripinfo_flow_route_143_duration_20250327_2000.2" vType="car" speedFactor="0.83" vaporized=""/>
    <tripinfo id="flow_route_143_duration_20250327_2000.3" depart="30.00" departLane="1253222187#0_0" departPos="103.88" departSpeed="0.00" departDelay="0.00" arrival="152.00" arrivalLane="1310781056_0" arrivalPos="11.88" arrivalSpeed="15.82" duration="122.00" routeLength="276.50" waitingTime="64.00" waitingCount="4" stopTime="0.00" timeLoss="105.06" rerouteNo="0" devices="tripinfo_flow_route_143_duration_20250327_2000.3" vType="car" speedFactor="1.02" vaporized=""/>
    <tripinfo id="flow_route_141_duration_20250327_2000.10" depart="51.00" departLane="809719540#0_0" departPos="3.13" departSpeed="0.00" departDelay="1.00" arrival="152.00" arrivalLane="683079387#1_1" arrivalPos="9.22" arrivalSpeed="7.57" duration="101.00" routeLength="901.65" waitingTime="8.00" waitingCount="1" stopTime="0.00" timeLoss="43.86" rerouteNo="0" devices="tripinfo_flow_route_141_duration_20250327_2000.10" vType="car" speedFactor="1.00" vaporized=""/>
    <tripinfo id="flow_route_143_duration_20250327_2000.4" depart="41.00" departLane="1253222187#0_0" departPos="190.69" departSpeed="0.00" departDelay="1.00" arrival="153.00" arrivalLane="1310781056_0" arrivalPos="42.14" arrivalSpeed="16.34" duration="112.00" routeLength="219.95" waitingTime="69.00" waitingCount="4" stopTime="0.00" timeLoss="97.79" rerouteNo="0" devices="tripinfo_flow_route_143_duration_20250327_2000.4" vType="car" speedFactor="1.09" vaporized=""/>