<?xml version="1.0" encoding="UTF-8"?>

<!-- generated on 2025-05-06 21:07:40 by Eclipse SUMO sumo Version 1.20.0
<configuration xmlns:xsi="http://www.w3.org/2001/XMLSchema-instance" xsi:noNamespaceSchemaLocation="http://sumo.dlr.de/xsd/sumoConfiguration.xsd">

    <input>
        <net-file value="osm.net.xml"/>
        <route-files value="xml/route_rl_cluster_3839031475_3839031476_4110471700_4234582615_0.rou.xml"/>
    </input>

    <output>
        <tripinfo-output value="xml/tripinfo_rl_cluster_3839031475_3839031476_4110471700_4234582615_0.xml"/>
    </output>

    <traci_server>
        <remote-port value="35731"/>
    </traci_server>

</configuration>
-->

<tripinfos xmlns:xsi="http://www.w3.org/2001/XMLSchema-instance" xsi:noNamespaceSchemaLocation="http://sumo.dlr.de/xsd/tripinfo_file.xsd">
    <tripinfo id="flow_route_85_duration_20250327_2220.0" depart="0.00" departLane="1091883842_0" departPos="162.60" departSpeed="0.00" departDelay="0.00" arrival="16.00" arrivalLane="133000063_0" arrivalPos="42.63" arrivalSpeed="9.42" duration="16.00" routeLength="74.77" waitingTime="0.00" waitingCount="0" stopTime="0.00" timeLoss="9.16" rerouteNo="0" devices="tripinfo_flow_route_85_duration_20250327_2220.0" vType="car" speedFactor="0.89" vaporized=""/>
    <tripinfo id="flow_route_79_duration_20250327_2220.0" depart="0.00" departLane="380344611#0_0" departPos="128.21" departSpeed="0.00" departDelay="0.00" arrival="28.00" arrivalLane="423956929_1" arrivalPos="91.18" arrivalSpeed="16.55" duration="28.00" routeLength="278.79" waitingTime="0.00" waitingCount="0" stopTime="0.00" timeLoss="10.80" rerouteNo="0" devices="tripinfo_flow_route_79_duration_20250327_2220.0" vType="car" speedFactor="1.08" vaporized=""/>
    <tripinfo id="flow_route_81_duration_20250327_2220.0" depart="0.00" departLane="380344611#0_0" departPos="75.01" departSpeed="0.00" departDelay="0.00" arrival="30.00" arrivalLane="133000063_2" arrivalPos="7.51" arrivalSpeed="8.93" duration="30.00" routeLength="248.37" waitingTime="0.00" waitingCount="0" stopTime="0.00" timeLoss="11.04" rerouteNo="0" devices="tripinfo_flow_route_81_duration_20250327_2220.0" vType="car" speedFactor="0.83" vaporized=""/>
    <tripinfo id="flow_route_80_duration_20250327_2220.0" depart="0.00" departLane="380344611#0_0" departPos="160.58" departSpeed="0.00" departDelay="0.00" arrival="31.00" arrivalLane="380593307#0_0" arrivalPos="102.42" arrivalSpeed="13.76" duration="31.00" routeLength="234.46" waitingTime="0.00" waitingCount="0" stopTime="0.00" timeLoss="16.18" rerouteNo="0" devices="tripinfo_flow_route_80_duration_20250327_2220.0" vType="car" speedFactor="1.03" vaporized=""/>
    <tripinfo id="flow_route_90_duration_20250327_2220.0" depart="0.00" departLane="380585338#0_0" departPos="118.71" departSpeed="0.00" departDelay="0.00" arrival="33.00" arrivalLane="136617981_0" arrivalPos="211.18" arrivalSpeed="13.85" duration="33.00" routeLength="279.54" waitingTime="0.00" waitingCount="0" stopTime="0.00" timeLoss="11.71" rerouteNo="0" devices="tripinfo_flow_route_90_duration_20250327_2220.0" vType="car" speedFactor="0.86" vaporized=""/>
    <tripinfo id="flow_route_84_duration_20250327_2220.0" depart="0.00" departLane="1091883842_0" departPos="11.19" departSpeed="0.00" departDelay="0.00" arrival="36.00" arrivalLane="136617981_0" arrivalPos="210.65" arrivalSpeed="16.41" duration="36.00" routeLength="417.75" waitingTime="0.00" waitingCount="0" stopTime="0.00" timeLoss="10.61" rerouteNo="0" devices="tripinfo_flow_route_84_duration_20250327_2220.0" vType="car" speedFactor="1.05" vaporized=""/>
    <tripinfo id="flow_route_79_duration_20250327_2220.1" depart="30.00" departLane="380344611#0_0" departPos="271.26" departSpeed="0.00" departDelay="0.00" arrival="47.00" arrivalLane="423956929_0" arrivalPos="55.99" arrivalSpeed="13.13" duration="17.00" routeLength="100.55" waitingTime="0.00" waitingCount="0" stopTime="0.00" timeLoss="9.91" rerouteNo="0" devices="tripinfo_flow_route_79_duration_20250327_2220.1" vType="car" speedFactor="0.93" vaporized=""/>
    <tripinfo id="flow_route_81_duration_20250327_2220.1" depart="30.00" departLane="380344611#0_0" departPos="8.46" departSpeed="0.00" departDelay="0.00" arrival="74.00" arrivalLane="133000063_2" arrivalPos="131.68" arrivalSpeed="14.36" duration="44.00" routeLength="439.09" waitingTime="0.00" waitingCount="0" stopTime="0.00" timeLoss="13.13" rerouteNo="0" devices="tripinfo_flow_route_81_duration_20250327_2220.1" vType="car" speedFactor="0.88" vaporized=""/>
    <tripinfo id="flow_route_89_duration_20250327_2220.1" depart="10.00" departLane="380585338#0_0" departPos="53.32" departSpeed="0.00" departDelay="1.43" arrival="86.00" arrivalLane="380593307#0_0" arrivalPos="8.02" arrivalSpeed="8.51" duration="76.00" routeLength="164.97" waitingTime="43.00" waitingCount="1" stopTime="0.00" timeLoss="65.82" rerouteNo="0" devices="tripinfo_flow_route_89_duration_20250327_2220.1" vType="car" speedFactor="1.09" vaporized=""/>
    <tripinfo id="flow_route_89_duration_20250327_2220.6" depart="52.00" departLane="380585338#0_0" departPos="29.16" departSpeed="0.00" departDelay="0.57" arrival="88.00" arrivalLane="380593307#0_2" arrivalPos="38.74" arrivalSpeed="10.14" duration="36.00" routeLength="219.84" waitingTime="0.00" waitingCount="0" stopTime="0.00" timeLoss="22.72" rerouteNo="0" devices="tripinfo_flow_route_89_duration_20250327_2220.6" vType="car" speedFactor="1.02" vaporized=""/>
    <tripinfo id="flow_route_77_duration_20250327_2220.0" depart="0.00" departLane="133342692#0_0" departPos="115.39" departSpeed="0.00" departDelay="0.00" arrival="91.00" arrivalLane="423956929_0" arrivalPos="132.19" arrivalSpeed="15.06" duration="91.00" routeLength="199.33" waitingTime="60.00" waitingCount="1" stopTime="0.00" timeLoss="77.02" rerouteNo="0" devices="tripinfo_flow_route_77_duration_20250327_2220.0" vType="car" speedFactor="0.94" vaporized=""/>
    <tripinfo id="flow_route_89_duration_20250327_2220.0" depart="0.00" departLane="380585338#0_0" departPos="55.91" departSpeed="0.00" departDelay="0.00" arrival="91.00" arrivalLane="380593307#0_0" arrivalPos="94.67" arrivalSpeed="13.82" duration="91.00" routeLength="249.03" waitingTime="53.00" waitingCount="1" stopTime="0.00" timeLoss="74.74" rerouteNo="0" devices="tripinfo_flow_route_89_duration_20250327_2220.0" vType="car" speedFactor="0.94" vaporized=""/>
    <tripinfo id="flow_route_89_duration_20250327_2220.2" depart="19.00" departLane="380585338#0_0" departPos="143.14" departSpeed="0.00" departDelay="1.86" arrival="91.00" arrivalLane="380593307#0_1" arrivalPos="109.98" arrivalSpeed="15.38" duration="72.00" routeLength="177.11" waitingTime="43.00" waitingCount="1" stopTime="0.00" timeLoss="61.02" rerouteNo="0" devices="tripinfo_flow_route_89_duration_20250327_2220.2" vType="car" speedFactor="1.03" vaporized=""/>
    <tripinfo id="flow_route_89_duration_20250327_2220.3" depart="26.00" departLane="380585338#0_0" departPos="41.11" departSpeed="0.00" departDelay="0.29" arrival="91.00" arrivalLane="380593307#0_2" arrivalPos="94.50" arrivalSpeed="14.42" duration="65.00" routeLength="263.66" waitingTime="27.00" waitingCount="1" stopTime="0.00" timeLoss="48.28" rerouteNo="0" devices="tripinfo_flow_route_89_duration_20250327_2220.3" vType="car" speedFactor="1.12" vaporized=""/>
    <tripinfo id="flow_route_76_duration_20250327_2220.0" depart="0.00" departLane="133342692#0_0" departPos="1.03" departSpeed="0.00" departDelay="0.00" arrival="94.00" arrivalLane="133000063_1" arrivalPos="153.47" arrivalSpeed="16.37" duration="94.00" routeLength="359.35" waitingTime="50.00" waitingCount="1" stopTime="0.00" timeLoss="71.73" rerouteNo="0" devices="tripinfo_flow_route_76_duration_20250327_2220.0" vType="car" speedFactor="1.06" vaporized=""/>
    <tripinfo id="flow_route_78_duration_20250327_2220.0" depart="0.00" departLane="133342692#0_0" departPos="79.92" departSpeed="0.00" departDelay="0.00" arrival="94.00" arrivalLane="136617981_2" arrivalPos="12.89" arrivalSpeed="6.33" duration="94.00" routeLength="138.43" waitingTime="60.00" waitingCount="2" stopTime="0.00" timeLoss="84.87" rerouteNo="0" devices="tripinfo_flow_route_78_duration_20250327_2220.0" vType="car" speedFactor="1.01" vaporized=""/>
    <tripinfo id="flow_route_89_duration_20250327_2220.4" depart="35.00" departLane="380585338#0_0" departPos="57.53" departSpeed="0.00" departDelay="0.72" arrival="94.00" arrivalLane="380593307#0_1" arrivalPos="118.94" arrivalSpeed="15.37" duration="59.00" routeLength="271.67" waitingTime="19.00" waitingCount="1" stopTime="0.00" timeLoss="41.24" rerouteNo="0" devices="tripinfo_flow_route_89_duration_20250327_2220.4" vType="car" speedFactor="0.94" vaporized=""/>
    <tripinfo id="flow_route_89_duration_20250327_2220.5" depart="44.00" departLane="380585338#0_0" departPos="45.86" departSpeed="0.00" departDelay="1.15" arrival="94.00" arrivalLane="380593307#0_0" arrivalPos="71.41" arrivalSpeed="13.71" duration="50.00" routeLength="235.83" waitingTime="13.00" waitingCount="1" stopTime="0.00" timeLoss="35.15" rerouteNo="0" devices="tripinfo_flow_route_89_duration_20250327_2220.5" vType="car" speedFactor="1.16" vaporized=""/>
    <tripinfo id="flow_route_78_duration_20250327_2220.1" depart="30.00" departLane="133342692#0_0" departPos="27.28" departSpeed="0.00" departDelay="0.00" arrival="96.00" arrivalLane="136617981_2" arrivalPos="9.19" arrivalSpeed="7.30" duration="66.00" routeLength="187.37" waitingTime="29.00" waitingCount="2" stopTime="0.00" timeLoss="53.54" rerouteNo="0" devices="tripinfo_flow_route_78_duration_20250327_2220.1" vType="car" speedFactor="0.99" vaporized=""/>
    <tripinfo id="flow_route_84_duration_20250327_2220.2" depart="40.00" departLane="1091883842_0" departPos="23.28" departSpeed="0.00" departDelay="0.00" arrival="159.00" arrivalLane="136617981_1" arrivalPos="36.67" arrivalSpeed="10.59" duration="119.00" routeLength="231.67" waitingTime="84.00" waitingCount="1" stopTime="0.00" timeLoss="103.68" rerouteNo="0" devices="tripinfo_flow_route_84_duration_20250327_2220.2" vType="car" speedFactor="0.94" vaporized=""/>
    <tripinfo id="flow_route_84_duration_20250327_2220.1" depart="20.00" departLane="1091883842_0" departPos="73.65" departSpeed="0.00" departDelay="0.00" arrival="174.00" arrivalLane="136617981_0" arrivalPos="251.57" arrivalSpeed="16.19" duration="154.00" routeLength="396.21" waitingTime="107.00" waitingCount="1" stopTime="0.00" timeLoss="129.93" rerouteNo="0" devices="tripinfo_flow_route_84_duration_20250327_2220.1" vType="car" speedFactor="1.05" vaporized=""/>
</tripinfos>
