<?xml version="1.0" encoding="UTF-8"?>

<!-- generated on 2025-05-06 21:07:41 by Eclipse SUMO sumo Version 1.20.0
<configuration xmlns:xsi="http://www.w3.org/2001/XMLSchema-instance" xsi:noNamespaceSchemaLocation="http://sumo.dlr.de/xsd/sumoConfiguration.xsd">

    <input>
        <net-file value="osm.net.xml"/>
        <route-files value="xml/route_rl_cluster7571105647_7571105653_cluster_1141265322_11869698130_256036890_4227138136_#4more_0.rou.xml"/>
    </input>

    <output>
        <tripinfo-output value="xml/tripinfo_rl_cluster7571105647_7571105653_cluster_1141265322_11869698130_256036890_4227138136_#4more_0.xml"/>
    </output>

    <traci_server>
        <remote-port value="50417"/>
    </traci_server>

</configuration>
-->

<tripinfos xmlns:xsi="http://www.w3.org/2001/XMLSchema-instance" xsi:noNamespaceSchemaLocation="http://sumo.dlr.de/xsd/tripinfo_file.xsd">
    <tripinfo id="flow_route_143_duration_20250327_2140.0" depart="0.00" departLane="1253222187#0_0" departPos="157.10" departSpeed="0.00" departDelay="0.00" arrival="28.00" arrivalLane="1310781056_0" arrivalPos="55.73" arrivalSpeed="16.37" duration="28.00" routeLength="267.13" waitingTime="0.00" waitingCount="0" stopTime="0.00" timeLoss="11.65" rerouteNo="0" devices="tripinfo_flow_route_143_duration_20250327_2140.0" vType="car" speedFactor="1.08" vaporized=""/>
    <tripinfo id="flow_route_142_duration_20250327_2140.1" depart="4.00" departLane="1253222187#0_0" departPos="184.61" departSpeed="0.00" departDelay="0.84" arrival="53.00" arrivalLane="683079388#0_0" arrivalPos="6.83" arrivalSpeed="16.14" duration="49.00" routeLength="620.53" waitingTime="0.00" waitingCount="0" stopTime="0.00" timeLoss="10.96" rerouteNo="0" devices="tripinfo_flow_route_142_duration_20250327_2140.1" vType="car" speedFactor="1.05" vaporized=""/>
    <tripinfo id="flow_route_142_duration_20250327_2140.0" depart="0.00" departLane="1253222187#0_0" departPos="114.97" departSpeed="0.00" departDelay="0.00" arrival="54.00" arrivalLane="683079388#0_0" arrivalPos="1.17" arrivalSpeed="16.33" duration="54.00" routeLength="684.52" waitingTime="0.00" waitingCount="0" stopTime="0.00" timeLoss="12.33" rerouteNo="0" devices="tripinfo_flow_route_142_duration_20250327_2140.0" vType="car" speedFactor="1.01" vaporized=""/>
    <tripinfo id="flow_route_140_duration_20250327_2140.1" depart="10.00" departLane="809719540#0_0" departPos="42.74" departSpeed="0.00" departDelay="1.43" arrival="57.00" arrivalLane="-809772643#1_1" arrivalPos="82.00" arrivalSpeed="14.05" duration="47.00" routeLength="349.54" waitingTime="1.00" waitingCount="1" stopTime="0.00" timeLoss="25.68" rerouteNo="0" devices="tripinfo_flow_route_140_duration_20250327_2140.1" vType="car" speedFactor="1.09" vaporized=""/>
    <tripinfo id="flow_route_140_duration_20250327_2140.4" depart="35.00" departLane="809719540#0_0" departPos="113.68" departSpeed="0.00" departDelay="0.72" arrival="60.00" arrivalLane="-809772643#1_0" arrivalPos="43.91" arrivalSpeed="16.16" duration="25.00" routeLength="237.68" waitingTime="0.00" waitingCount="0" stopTime="0.00" timeLoss="10.57" rerouteNo="0" devices="tripinfo_flow_route_140_duration_20250327_2140.4" vType="car" speedFactor="1.15" vaporized=""/>
    <tripinfo id="flow_route_140_duration_20250327_2140.0" depart="0.00" departLane="809719540#0_0" departPos="199.64" departSpeed="0.00" departDelay="0.00" arrival="61.00" arrivalLane="-809772643#1_0" arrivalPos="184.22" arrivalSpeed="16.11" duration="61.00" routeLength="292.04" waitingTime="24.00" waitingCount="1" stopTime="0.00" timeLoss="43.23" rerouteNo="0" devices="tripinfo_flow_route_140_duration_20250327_2140.0" vType="car" speedFactor="1.06" vaporized=""/>
    <tripinfo id="flow_route_140_duration_20250327_2140.2" depart="18.00" departLane="809719540#0_0" departPos="185.77" departSpeed="0.00" departDelay="0.86" arrival="62.00" arrivalLane="-809772643#1_0" arrivalPos="147.95" arrivalSpeed="15.12" duration="44.00" routeLength="269.63" waitingTime="4.00" waitingCount="1" stopTime="0.00" timeLoss="25.81" rerouteNo="0" devices="tripinfo_flow_route_140_duration_20250327_2140.2" vType="car" speedFactor="0.94" vaporized=""/>
    <tripinfo id="flow_route_142_duration_20250327_2140.6" depart="19.00" departLane="1253222187#0_0" departPos="202.39" departSpeed="0.00" departDelay="0.06" arrival="68.00" arrivalLane="683079388#0_0" arrivalPos="24.14" arrivalSpeed="16.23" duration="49.00" routeLength="620.06" waitingTime="0.00" waitingCount="0" stopTime="0.00" timeLoss="10.77" rerouteNo="0" devices="tripinfo_flow_route_142_duration_20250327_2140.6" vType="car" speedFactor="1.16" vaporized=""/>
    <tripinfo id="flow_route_142_duration_20250327_2140.5" depart="16.00" departLane="1253222187#0_0" departPos="120.52" departSpeed="0.00" departDelay="0.22" arrival="70.00" arrivalLane="683079388#0_0" arrivalPos="4.34" arrivalSpeed="15.35" duration="54.00" routeLength="682.13" waitingTime="0.00" waitingCount="0" stopTime="0.00" timeLoss="9.48" rerouteNo="0" devices="tripinfo_flow_route_142_duration_20250327_2140.5" vType="car" speedFactor="0.93" vaporized=""/>
    <tripinfo id="flow_route_142_duration_20250327_2140.3" depart="11.00" departLane="1253222187#0_0" departPos="69.85" departSpeed="0.00" departDelay="1.53" arrival="72.00" arrivalLane="683079388#0_0" arrivalPos="7.79" arrivalSpeed="16.43" duration="61.00" routeLength="736.25" waitingTime="0.00" waitingCount="0" stopTime="0.00" timeLoss="16.00" rerouteNo="0" devices="tripinfo_flow_route_142_duration_20250327_2140.3" vType="car" speedFactor="1.03" vaporized=""/>
    <tripinfo id="flow_route_140_duration_20250327_2140.6" depart="52.00" departLane="809719540#0_0" departPos="177.76" departSpeed="0.00" departDelay="0.57" arrival="72.00" arrivalLane="-809772643#1_0" arrivalPos="20.99" arrivalSpeed="15.06" duration="20.00" routeLength="150.68" waitingTime="0.00" waitingCount="0" stopTime="0.00" timeLoss="10.19" rerouteNo="0" devices="tripinfo_flow_route_140_duration_20250327_2140.6" vType="car" speedFactor="1.09" vaporized=""/>
    <tripinfo id="flow_route_142_duration_20250327_2140.2" depart="9.00" departLane="1253222187#0_0" departPos="49.91" departSpeed="0.00" departDelay="2.69" arrival="73.00" arrivalLane="683079388#0_1" arrivalPos="7.93" arrivalSpeed="13.80" duration="64.00" routeLength="756.33" waitingTime="0.00" waitingCount="0" stopTime="0.00" timeLoss="10.41" rerouteNo="0" devices="tripinfo_flow_route_142_duration_20250327_2140.2" vType="car" speedFactor="0.86" vaporized=""/>
    <tripinfo id="flow_route_142_duration_20250327_2140.4" depart="13.00" departLane="1253222187#0_0" departPos="47.05" departSpeed="0.00" departDelay="0.37" arrival="75.00" arrivalLane="683079388#0_2" arrivalPos="24.90" arrivalSpeed="16.11" duration="62.00" routeLength="776.17" waitingTime="0.00" waitingCount="0" stopTime="0.00" timeLoss="14.89" rerouteNo="0" devices="tripinfo_flow_route_142_duration_20250327_2140.4" vType="car" speedFactor="0.99" vaporized=""/>
    <tripinfo id="flow_route_140_duration_20250327_2140.3" depart="26.00" departLane="809719540#0_0" departPos="7.48" departSpeed="0.00" departDelay="0.29" arrival="77.00" arrivalLane="-809772643#1_0" arrivalPos="132.67" arrivalSpeed="14.60" duration="51.00" routeLength="432.64" waitingTime="0.00" waitingCount="0" stopTime="0.00" timeLoss="21.32" rerouteNo="0" devices="tripinfo_flow_route_140_duration_20250327_2140.3" vType="car" speedFactor="0.89" vaporized=""/>
    <tripinfo id="flow_route_141_duration_20250327_2140.1" depart="6.00" departLane="809719540#0_0" departPos="12.41" departSpeed="0.00" departDelay="0.55" arrival="92.00" arrivalLane="683079387#1_1" arrivalPos="3.29" arrivalSpeed="5.37" duration="86.00" routeLength="886.44" waitingTime="2.00" waitingCount="1" stopTime="0.00" timeLoss="23.15" rerouteNo="0" devices="tripinfo_flow_route_141_duration_20250327_2140.1" vType="car" speedFactor="0.89" vaporized=""/>
    <tripinfo id="flow_route_147_duration_20250327_2140.0" depart="4.00" departLane="683079387#1_0" departPos="0.62" departSpeed="0.00" departDelay="4.00" arrival="94.00" arrivalLane="1310781056_0" arrivalPos="4.95" arrivalSpeed="13.87" duration="90.00" routeLength="684.16" waitingTime="21.00" waitingCount="1" stopTime="0.00" timeLoss="40.55" rerouteNo="0" devices="tripinfo_flow_route_147_duration_20250327_2140.0" vType="car" speedFactor="0.83" vaporized=""/>
    <tripinfo id="flow_route_146_duration_20250327_2140.6" depart="34.00" departLane="683079387#1_0" departPos="2.96" departSpeed="0.00" departDelay="1.28" arrival="94.00" arrivalLane="-809772643#1_1" arrivalPos="9.69" arrivalSpeed="11.40" duration="60.00" routeLength="619.69" waitingTime="0.00" waitingCount="0" stopTime="0.00" timeLoss="22.18" rerouteNo="0" devices="tripinfo_flow_route_146_duration_20250327_2140.6" vType="car" speedFactor="1.18" vaporized=""/>
    <tripinfo id="flow_route_141_duration_20250327_2140.0" depart="0.00" departLane="809719540#0_0" departPos="66.48" departSpeed="0.00" departDelay="0.00" arrival="95.00" arrivalLane="683079387#1_1" arrivalPos="7.27" arrivalSpeed="6.49" duration="95.00" routeLength="843.38" waitingTime="12.00" waitingCount="1" stopTime="0.00" timeLoss="38.41" rerouteNo="0" devices="tripinfo_flow_route_141_duration_20250327_2140.0" vType="car" speedFactor="0.94" vaporized=""/>
    <tripinfo id="flow_route_146_duration_20250327_2140.0" depart="0.00" departLane="683079387#1_0" departPos="0.06" departSpeed="0.00" departDelay="0.00" arrival="95.00" arrivalLane="-809772643#1_0" arrivalPos="121.98" arrivalSpeed="16.24" duration="95.00" routeLength="734.89" waitingTime="29.00" waitingCount="1" stopTime="0.00" timeLoss="50.70" rerouteNo="0" devices="tripinfo_flow_route_146_duration_20250327_2140.0" vType="car" speedFactor="1.03" vaporized=""/>
    <tripinfo id="flow_route_146_duration_20250327_2140.1" depart="10.00" departLane="683079387#1_0" departPos="7.81" departSpeed="0.00" departDelay="4.55" arrival="97.00" arrivalLane="-809772643#1_0" arrivalPos="141.34" arrivalSpeed="15.62" duration="87.00" routeLength="746.51" waitingTime="15.00" waitingCount="1" stopTime="0.00" timeLoss="39.03" rerouteNo="0" devices="tripinfo_flow_route_146_duration_20250327_2140.1" vType="car" speedFactor="0.94" vaporized=""/>
    <tripinfo id="flow_route_141_duration_20250327_2140.2" depart="11.00" departLane="809719540#0_0" departPos="34.75" departSpeed="0.00" departDelay="0.09" arrival="97.00" arrivalLane="683079387#1_1" arrivalPos="0.30" arrivalSpeed="6.20" duration="86.00" routeLength="861.11" waitingTime="0.00" waitingCount="0" stopTime="0.00" timeLoss="31.29" rerouteNo="0" devices="tripinfo_flow_route_141_duration_20250327_2140.2" vType="car" speedFactor="1.05" vaporized=""/>
    <tripinfo id="flow_route_146_duration_20250327_2140.2" depart="13.00" departLane="683079387#1_0" departPos="2.70" departSpeed="0.00" departDelay="2.09" arrival="99.00" arrivalLane="-809772643#1_1" arrivalPos="141.65" arrivalSpeed="16.55" duration="86.00" routeLength="751.92" waitingTime="14.00" waitingCount="1" stopTime="0.00" timeLoss="40.62" rerouteNo="0" devices="tripinfo_flow_route_146_duration_20250327_2140.2" vType="car" speedFactor="1.12" vaporized=""/>
    <tripinfo id="flow_route_146_duration_20250327_2140.4" depart="22.00" departLane="683079387#1_0" departPos="1.72" departSpeed="0.00" departDelay="0.18" arrival="99.00" arrivalLane="-809772643#1_1" arrivalPos="101.84" arrivalSpeed="16.00" duration="77.00" routeLength="713.09" waitingTime="7.00" waitingCount="1" stopTime="0.00" timeLoss="33.55" rerouteNo="0" devices="tripinfo_flow_route_146_duration_20250327_2140.4" vType="car" speedFactor="1.01" vaporized=""/>
    <tripinfo id="flow_route_141_duration_20250327_2140.4" depart="22.00" departLane="809719540#0_0" departPos="155.81" departSpeed="0.00" departDelay="0.18" arrival="100.00" arrivalLane="683079387#1_1" arrivalPos="3.14" arrivalSpeed="6.47" duration="78.00" routeLength="742.90" waitingTime="0.00" waitingCount="0" stopTime="0.00" timeLoss="30.35" rerouteNo="0" devices="tripinfo_flow_route_141_duration_20250327_2140.4" vType="car" speedFactor="1.02" vaporized=""/>
    <tripinfo id="flow_route_141_duration_20250327_2140.3" depart="17.00" departLane="809719540#0_0" departPos="23.91" departSpeed="0.00" departDelay="0.64" arrival="102.00" arrivalLane="683079387#1_1" arrivalPos="2.46" arrivalSpeed="4.87" duration="85.00" routeLength="881.13" waitingTime="0.00" waitingCount="0" stopTime="0.00" timeLoss="22.03" rerouteNo="0" devices="tripinfo_flow_route_141_duration_20250327_2140.3" vType="car" speedFactor="0.88" vaporized=""/>
    <tripinfo id="flow_route_146_duration_20250327_2140.3" depart="18.00" departLane="683079387#1_0" departPos="6.09" departSpeed="0.00" departDelay="1.64" arrival="103.00" arrivalLane="-809772643#1_0" arrivalPos="167.83" arrivalSpeed="15.48" duration="85.00" routeLength="774.71" waitingTime="11.00" waitingCount="1" stopTime="0.00" timeLoss="34.75" rerouteNo="0" devices="tripinfo_flow_route_146_duration_20250327_2140.3" vType="car" speedFactor="0.94" vaporized=""/>
    <tripinfo id="flow_route_146_duration_20250327_2140.7" depart="39.00" departLane="683079387#1_0" departPos="3.73" departSpeed="0.00" departDelay="0.82" arrival="103.00" arrivalLane="-809772643#1_0" arrivalPos="120.96" arrivalSpeed="14.88" duration="64.00" routeLength="730.20" waitingTime="0.00" waitingCount="0" stopTime="0.00" timeLoss="19.68" rerouteNo="0" devices="tripinfo_flow_route_146_duration_20250327_2140.7" vType="car" speedFactor="1.02" vaporized=""/>
    <tripinfo id="flow_route_146_duration_20250327_2140.8" depart="44.00" departLane="683079387#1_0" departPos="5.03" departSpeed="0.00" departDelay="0.37" arrival="104.00" arrivalLane="-809772643#1_1" arrivalPos="129.27" arrivalSpeed="14.86" duration="60.00" routeLength="737.21" waitingTime="0.00" waitingCount="0" stopTime="0.00" timeLoss="10.35" rerouteNo="0" devices="tripinfo_flow_route_146_duration_20250327_2140.8" vType="car" speedFactor="0.90" vaporized=""/>
    <tripinfo id="flow_route_141_duration_20250327_2140.8" depart="44.00" departLane="809719540#0_0" departPos="248.43" departSpeed="0.00" departDelay="0.37" arrival="105.00" arrivalLane="683079387#1_1" arrivalPos="8.94" arrivalSpeed="7.18" duration="61.00" routeLength="663.09" waitingTime="0.00" waitingCount="0" stopTime="0.00" timeLoss="19.12" rerouteNo="0" devices="tripinfo_flow_route_141_duration_20250327_2140.8" vType="car" speedFactor="1.10" vaporized=""/>
    <tripinfo id="flow_route_146_duration_20250327_2140.5" depart="28.00" departLane="683079387#1_0" departPos="1.83" departSpeed="0.00" departDelay="0.73" arrival="106.00" arrivalLane="-809772643#1_0" arrivalPos="191.90" arrivalSpeed="14.86" duration="78.00" routeLength="803.04" waitingTime="2.00" waitingCount="1" stopTime="0.00" timeLoss="25.24" rerouteNo="0" devices="tripinfo_flow_route_146_duration_20250327_2140.5" vType="car" speedFactor="0.92" vaporized=""/>
    <tripinfo id="flow_route_141_duration_20250327_2140.5" depart="29.00" departLane="809719540#0_0" departPos="84.30" departSpeed="0.00" departDelay="1.73" arrival="108.00" arrivalLane="683079387#1_1" arrivalPos="5.58" arrivalSpeed="5.68" duration="79.00" routeLength="816.84" waitingTime="0.00" waitingCount="0" stopTime="0.00" timeLoss="19.79" rerouteNo="0" devices="tripinfo_flow_route_141_duration_20250327_2140.5" vType="car" speedFactor="0.87" vaporized=""/>
    <tripinfo id="flow_route_141_duration_20250327_2140.6" depart="34.00" departLane="809719540#0_0" departPos="94.51" departSpeed="0.00" departDelay="1.28" arrival="110.00" arrivalLane="683079387#1_1" arrivalPos="1.84" arrivalSpeed="5.31" duration="76.00" routeLength="809.92" waitingTime="0.00" waitingCount="0" stopTime="0.00" timeLoss="20.43" rerouteNo="0" devices="tripinfo_flow_route_141_duration_20250327_2140.6" vType="car" speedFactor="0.93" vaporized=""/>
    <tripinfo id="flow_route_146_duration_20250327_2140.9" depart="50.00" departLane="683079387#1_0" departPos="4.20" departSpeed="0.00" departDelay="0.91" arrival="110.00" arrivalLane="-809772643#1_0" arrivalPos="200.86" arrivalSpeed="16.42" duration="60.00" routeLength="809.64" waitingTime="0.00" waitingCount="0" stopTime="0.00" timeLoss="10.72" rerouteNo="0" devices="tripinfo_flow_route_146_duration_20250327_2140.9" vType="car" speedFactor="1.04" vaporized=""/>
    <tripinfo id="flow_route_146_duration_20250327_2140.10" depart="56.00" departLane="683079387#1_0" departPos="3.79" departSpeed="0.00" departDelay="1.46" arrival="110.00" arrivalLane="-809772643#1_0" arrivalPos="25.70" arrivalSpeed="14.54" duration="54.00" routeLength="634.88" waitingTime="0.00" waitingCount="0" stopTime="0.00" timeLoss="10.19" rerouteNo="0" devices="tripinfo_flow_route_146_duration_20250327_2140.10" vType="car" speedFactor="0.88" vaporized=""/>
    <tripinfo id="flow_route_141_duration_20250327_2140.7" depart="39.00" departLane="809719540#0_0" departPos="112.05" departSpeed="0.00" departDelay="0.82" arrival="114.00" arrivalLane="683079387#1_1" arrivalPos="8.43" arrivalSpeed="7.39" duration="75.00" routeLength="798.96" waitingTime="0.00" waitingCount="0" stopTime="0.00" timeLoss="23.83" rerouteNo="0" devices="tripinfo_flow_route_141_duration_20250327_2140.7" vType="car" speedFactor="0.99" vaporized=""/>
    <tripinfo id="flow_route_141_duration_20250327_2140.9" depart="50.00" departLane="809719540#0_0" departPos="79.59" departSpeed="0.00" departDelay="0.91" arrival="116.00" arrivalLane="683079387#1_1" arrivalPos="5.86" arrivalSpeed="6.87" duration="66.00" routeLength="828.85" waitingTime="0.00" waitingCount="0" stopTime="0.00" timeLoss="13.62" rerouteNo="0" devices="tripinfo_flow_route_141_duration_20250327_2140.9" vType="car" speedFactor="1.09" vaporized=""/>
    <tripinfo id="flow_route_142_duration_20250327_2140.7" depart="23.00" departLane="1253222187#0_0" departPos="38.66" departSpeed="0.00" departDelay="0.90" arrival="123.00" arrivalLane="683079388#0_0" arrivalPos="24.66" arrivalSpeed="15.91" duration="100.00" routeLength="784.31" waitingTime="28.00" waitingCount="1" stopTime="0.00" timeLoss="51.23" rerouteNo="0" devices="tripinfo_flow_route_142_duration_20250327_2140.7" vType="car" speedFactor="0.97" vaporized=""/>
    <tripinfo id="flow_route_142_duration_20250327_2140.11" depart="35.00" departLane="1253222187#0_0" departPos="129.69" departSpeed="0.00" departDelay="0.27" arrival="124.00" arrivalLane="683079388#0_0" arrivalPos="17.52" arrivalSpeed="16.14" duration="89.00" routeLength="686.14" waitingTime="24.00" waitingCount="1" stopTime="0.00" timeLoss="47.45" rerouteNo="0" devices="tripinfo_flow_route_142_duration_20250327_2140.11" vType="car" speedFactor="1.01" vaporized=""/>
    <tripinfo id="flow_route_142_duration_20250327_2140.8" depart="26.00" departLane="1253222187#0_0" departPos="58.79" departSpeed="0.00" departDelay="0.74" arrival="126.00" arrivalLane="683079388#0_2" arrivalPos="3.92" arrivalSpeed="13.49" duration="100.00" routeLength="743.44" waitingTime="24.00" waitingCount="1" stopTime="0.00" timeLoss="45.78" rerouteNo="0" devices="tripinfo_flow_route_142_duration_20250327_2140.8" vType="car" speedFactor="0.83" vaporized=""/>
    <tripinfo id="flow_route_142_duration_20250327_2140.14" depart="45.00" departLane="1253222187#0_0" departPos="149.85" departSpeed="0.00" departDelay="0.80" arrival="126.00" arrivalLane="683079388#0_0" arrivalPos="10.98" arrivalSpeed="16.57" duration="81.00" routeLength="659.43" waitingTime="18.00" waitingCount="1" stopTime="0.00" timeLoss="40.65" rerouteNo="0" devices="tripinfo_flow_route_142_duration_20250327_2140.14" vType="car" speedFactor="1.03" vaporized=""/>
    <tripinfo id="flow_route_142_duration_20250327_2140.12" depart="38.00" departLane="1253222187#0_0" departPos="108.12" departSpeed="0.00" departDelay="0.12" arrival="127.00" arrivalLane="683079388#0_0" arrivalPos="10.06" arrivalSpeed="16.11" duration="89.00" routeLength="700.25" waitingTime="18.00" waitingCount="1" stopTime="0.00" timeLoss="46.74" rerouteNo="0" devices="tripinfo_flow_route_142_duration_20250327_2140.12" vType="car" speedFactor="1.17" vaporized=""/>
    <tripinfo id="flow_route_140_duration_20250327_2140.5" depart="43.00" departLane="809719540#0_0" departPos="28.13" departSpeed="0.00" departDelay="0.15" arrival="128.00" arrivalLane="-809772643#1_0" arrivalPos="62.59" arrivalSpeed="11.51" duration="85.00" routeLength="341.92" waitingTime="34.00" waitingCount="1" stopTime="0.00" timeLoss="64.19" rerouteNo="0" devices="tripinfo_flow_route_140_duration_20250327_2140.5" vType="car" speedFactor="1.18" vaporized=""/>
    <tripinfo id="flow_route_142_duration_20250327_2140.15" depart="48.00" departLane="1253222187#0_0" departPos="184.24" departSpeed="0.00" departDelay="0.65" arrival="128.00" arrivalLane="683079388#0_2" arrivalPos="11.77" arrivalSpeed="15.04" duration="80.00" routeLength="625.84" waitingTime="20.00" waitingCount="1" stopTime="0.00" timeLoss="40.60" rerouteNo="0" devices="tripinfo_flow_route_142_duration_20250327_2140.15" vType="car" speedFactor="0.96" vaporized=""/>
    <tripinfo id="flow_route_142_duration_20250327_2140.17" depart="55.00" departLane="1253222187#0_0" departPos="150.39" departSpeed="0.00" departDelay="1.33" arrival="130.00" arrivalLane="683079388#0_0" arrivalPos="20.17" arrivalSpeed="16.47" duration="75.00" routeLength="668.09" waitingTime="14.00" waitingCount="1" stopTime="0.00" timeLoss="33.82" rerouteNo="0" devices="tripinfo_flow_route_142_duration_20250327_2140.17" vType="car" speedFactor="1.00" vaporized=""/>
    <tripinfo id="flow_route_142_duration_20250327_2140.9" depart="30.00" departLane="1253222187#0_0" departPos="18.14" departSpeed="0.00" departDelay="1.59" arrival="131.00" arrivalLane="683079388#0_1" arrivalPos="25.62" arrivalSpeed="15.61" duration="101.00" routeLength="805.79" waitingTime="19.00" waitingCount="1" stopTime="0.00" timeLoss="49.36" rerouteNo="0" devices="tripinfo_flow_route_142_duration_20250327_2140.9" vType="car" speedFactor="0.95" vaporized=""/>
    <tripinfo id="flow_route_142_duration_20250327_2140.16" depart="52.00" departLane="1253222187#0_0" departPos="98.32" departSpeed="0.00" departDelay="1.49" arrival="131.00" arrivalLane="683079388#0_0" arrivalPos="8.85" arrivalSpeed="16.47" duration="79.00" routeLength="708.84" waitingTime="11.00" waitingCount="1" stopTime="0.00" timeLoss="35.68" rerouteNo="0" devices="tripinfo_flow_route_142_duration_20250327_2140.16" vType="car" speedFactor="1.04" vaporized=""/>
    <tripinfo id="flow_route_142_duration_20250327_2140.10" depart="32.00" departLane="1253222187#0_0" departPos="43.68" departSpeed="0.00" departDelay="0.43" arrival="132.00" arrivalLane="683079388#0_2" arrivalPos="14.64" arrivalSpeed="16.41" duration="100.00" routeLength="769.27" waitingTime="17.00" waitingCount="1" stopTime="0.00" timeLoss="52.82" rerouteNo="0" devices="tripinfo_flow_route_142_duration_20250327_2140.10" vType="car" speedFactor="1.13" vaporized=""/>
    <tripinfo id="flow_route_142_duration_20250327_2140.13" depart="42.00" departLane="1253222187#0_0" departPos="5.03" departSpeed="0.00" departDelay="0.96" arrival="134.00" arrivalLane="683079388#0_0" arrivalPos="25.22" arrivalSpeed="15.88" duration="92.00" routeLength="818.50" waitingTime="13.00" waitingCount="1" stopTime="0.00" timeLoss="40.96" rerouteNo="0" devices="tripinfo_flow_route_142_duration_20250327_2140.13" vType="car" speedFactor="0.97" vaporized=""/>
    <tripinfo id="flow_route_142_duration_20250327_2140.18" depart="57.00" departLane="1253222187#0_0" departPos="8.98" departSpeed="0.00" departDelay="0.17" arrival="136.00" arrivalLane="683079388#0_0" arrivalPos="12.39" arrivalSpeed="14.00" duration="79.00" routeLength="801.72" waitingTime="0.00" waitingCount="0" stopTime="0.00" timeLoss="22.25" rerouteNo="0" devices="tripinfo_flow_route_142_duration_20250327_2140.18" vType="car" speedFactor="0.85" vaporized=""/>
    <tripinfo id="flow_route_141_duration_20250327_2140.10" depart="55.00" departLane="809719540#0_0" departPos="37.91" departSpeed="0.00" departDelay="0.46" arrival="168.00" arrivalLane="683079387#1_1" arrivalPos="7.27" arrivalSpeed="6.41" duration="113.00" routeLength="871.94" waitingTime="29.00" waitingCount="1" stopTime="0.00" timeLoss="52.02" rerouteNo="0" devices="tripinfo_flow_route_141_duration_20250327_2140.10" vType="car" speedFactor="0.90" vaporized=""/>
</tripinfos>
