<?xml version="1.0" encoding="UTF-8"?>

<!-- generated on 2025-05-06 21:08:11 by Eclipse SUMO sumo Version 1.20.0
<configuration xmlns:xsi="http://www.w3.org/2001/XMLSchema-instance" xsi:noNamespaceSchemaLocation="http://sumo.dlr.de/xsd/sumoConfiguration.xsd">

    <input>
        <net-file value="osm.net.xml"/>
        <route-files value="xml/route_rl_11644940310_3.rou.xml"/>
    </input>

    <output>
        <tripinfo-output value="xml/tripinfo_rl_11644940310_3.xml"/>
    </output>

    <traci_server>
        <remote-port value="37807"/>
    </traci_server>

</configuration>
-->

<tripinfos xmlns:xsi="http://www.w3.org/2001/XMLSchema-instance" xsi:noNamespaceSchemaLocation="http://sumo.dlr.de/xsd/tripinfo_file.xsd">
    <tripinfo id="flow_route_27_duration_20250327_1910.1" depart="2.00" departLane="1254771874#0_0" departPos="223.82" departSpeed="0.00" departDelay="0.46" arrival="17.00" arrivalLane="138002006#0_1" arrivalPos="23.48" arrivalSpeed="10.08" duration="15.00" routeLength="71.55" waitingTime="0.00" waitingCount="0" stopTime="0.00" timeLoss="8.93" rerouteNo="0" devices="tripinfo_flow_route_27_duration_20250327_1910.1" vType="car" speedFactor="0.89" vaporized=""/>
    <tripinfo id="flow_route_27_duration_20250327_1910.0" depart="0.00" departLane="1254771874#0_0" departPos="190.47" departSpeed="0.00" departDelay="0.00" arrival="21.00" arrivalLane="138002006#0_1" arrivalPos="4.04" arrivalSpeed="7.94" duration="21.00" routeLength="85.46" waitingTime="0.00" waitingCount="0" stopTime="0.00" timeLoss="15.06" rerouteNo="0" devices="tripinfo_flow_route_27_duration_20250327_1910.0" vType="car" speedFactor="1.01" vaporized=""/>
    <tripinfo id="flow_route_27_duration_20250327_1910.2" depart="5.00" departLane="1254771874#0_0" departPos="210.71" departSpeed="0.00" departDelay="1.92" arrival="24.00" arrivalLane="138002006#0_1" arrivalPos="4.10" arrivalSpeed="8.18" duration="19.00" routeLength="65.28" waitingTime="2.00" waitingCount="2" stopTime="0.00" timeLoss="13.43" rerouteNo="0" devices="tripinfo_flow_route_27_duration_20250327_1910.2" vType="car" speedFactor="0.86" vaporized=""/>
    <tripinfo id="flow_route_27_duration_20250327_1910.3" depart="5.00" departLane="1254771874#0_0" departPos="226.89" departSpeed="0.00" departDelay="0.39" arrival="25.00" arrivalLane="138002006#0_1" arrivalPos="56.23" arrivalSpeed="12.04" duration="20.00" routeLength="101.23" waitingTime="0.00" waitingCount="0" stopTime="0.00" timeLoss="12.53" rerouteNo="0" devices="tripinfo_flow_route_27_duration_20250327_1910.3" vType="car" speedFactor="1.09" vaporized=""/>
    <tripinfo id="flow_route_27_duration_20250327_1910.8" depart="14.00" departLane="1254771874#0_0" departPos="182.91" departSpeed="0.00" departDelay="1.70" arrival="32.00" arrivalLane="138002006#0_1" arrivalPos="21.43" arrivalSpeed="10.41" duration="18.00" routeLength="110.41" waitingTime="0.00" waitingCount="0" stopTime="0.00" timeLoss="10.42" rerouteNo="0" devices="tripinfo_flow_route_27_duration_20250327_1910.8" vType="car" speedFactor="1.02" vaporized=""/>
    <tripinfo id="flow_route_27_duration_20250327_1910.6" depart="10.00" departLane="1254771874#0_0" departPos="175.12" departSpeed="0.00" departDelay="0.77" arrival="34.00" arrivalLane="138002006#0_1" arrivalPos="84.92" arrivalSpeed="13.69" duration="24.00" routeLength="181.69" waitingTime="0.00" waitingCount="0" stopTime="0.00" timeLoss="11.51" rerouteNo="0" devices="tripinfo_flow_route_27_duration_20250327_1910.6" vType="car" speedFactor="0.93" vaporized=""/>
    <tripinfo id="flow_route_25_duration_20250327_1910.0" depart="0.00" departLane="1254771874#0_0" departPos="63.27" departSpeed="0.00" departDelay="0.00" arrival="35.00" arrivalLane="1341093415#0_0" arrivalPos="158.81" arrivalSpeed="16.47" duration="35.00" routeLength="373.33" waitingTime="0.00" waitingCount="0" stopTime="0.00" timeLoss="11.59" rerouteNo="0" devices="tripinfo_flow_route_25_duration_20250327_1910.0" vType="car" speedFactor="1.06" vaporized=""/>
    <tripinfo id="flow_route_26_duration_20250327_1910.0" depart="0.00" departLane="1254771874#0_0" departPos="139.38" departSpeed="0.00" departDelay="0.00" arrival="37.00" arrivalLane="-422986370#2_0" arrivalPos="213.43" arrivalSpeed="15.21" duration="37.00" routeLength="338.64" waitingTime="0.00" waitingCount="0" stopTime="0.00" timeLoss="14.96" rerouteNo="0" devices="tripinfo_flow_route_26_duration_20250327_1910.0" vType="car" speedFactor="0.94" vaporized=""/>
    <tripinfo id="flow_route_50_duration_20250327_1910.0" depart="0.00" departLane="-138002006#3_0" departPos="41.39" departSpeed="0.00" departDelay="0.00" arrival="46.00" arrivalLane="-422986370#2_0" arrivalPos="13.06" arrivalSpeed="7.07" duration="46.00" routeLength="82.72" waitingTime="25.00" waitingCount="1" stopTime="0.00" timeLoss="39.96" rerouteNo="0" devices="tripinfo_flow_route_50_duration_20250327_1910.0" vType="car" speedFactor="0.83" vaporized=""/>
    <tripinfo id="flow_route_41_duration_20250327_1910.1" depart="4.00" departLane="1369578054_0" departPos="153.71" departSpeed="0.00" departDelay="1.69" arrival="49.00" arrivalLane="138002006#0_1" arrivalPos="28.58" arrivalSpeed="8.78" duration="45.00" routeLength="196.81" waitingTime="12.00" waitingCount="1" stopTime="0.00" timeLoss="32.01" rerouteNo="0" devices="tripinfo_flow_route_41_duration_20250327_1910.1" vType="car" speedFactor="0.94" vaporized=""/>
    <tripinfo id="flow_route_41_duration_20250327_1910.5" depart="12.00" departLane="1369578054_0" departPos="171.28" departSpeed="0.00" departDelay="0.47" arrival="50.00" arrivalLane="138002006#0_0" arrivalPos="23.44" arrivalSpeed="8.85" duration="38.00" routeLength="174.09" waitingTime="7.00" waitingCount="1" stopTime="0.00" timeLoss="27.44" rerouteNo="0" devices="tripinfo_flow_route_41_duration_20250327_1910.5" vType="car" speedFactor="1.16" vaporized=""/>
    <tripinfo id="flow_route_41_duration_20250327_1910.0" depart="0.00" departLane="1369578054_0" departPos="201.66" departSpeed="0.00" departDelay="0.00" arrival="51.00" arrivalLane="138002006#0_0" arrivalPos="52.37" arrivalSpeed="10.30" duration="51.00" routeLength="172.64" waitingTime="20.00" waitingCount="1" stopTime="0.00" timeLoss="40.46" rerouteNo="0" devices="tripinfo_flow_route_41_duration_20250327_1910.0" vType="car" speedFactor="1.03" vaporized=""/>
    <tripinfo id="flow_route_41_duration_20250327_1910.3" depart="7.00" departLane="1369578054_0" departPos="90.42" departSpeed="0.00" departDelay="0.08" arrival="52.00" arrivalLane="138002006#0_1" arrivalPos="21.01" arrivalSpeed="9.42" duration="45.00" routeLength="252.52" waitingTime="7.00" waitingCount="1" stopTime="0.00" timeLoss="29.47" rerouteNo="0" devices="tripinfo_flow_route_41_duration_20250327_1910.3" vType="car" speedFactor="1.12" vaporized=""/>
    <tripinfo id="flow_route_41_duration_20250327_1910.7" depart="18.00" departLane="1369578054_0" departPos="163.83" departSpeed="0.00" departDelay="1.85" arrival="54.00" arrivalLane="138002006#0_1" arrivalPos="16.28" arrivalSpeed="9.55" duration="36.00" routeLength="174.37" waitingTime="3.00" waitingCount="1" stopTime="0.00" timeLoss="23.66" rerouteNo="0" devices="tripinfo_flow_route_41_duration_20250327_1910.7" vType="car" speedFactor="0.87" vaporized=""/>
    <tripinfo id="flow_route_41_duration_20250327_1910.10" depart="29.00" departLane="1369578054_0" departPos="262.35" departSpeed="0.00" departDelay="5.93" arrival="54.00" arrivalLane="138002006#0_0" arrivalPos="31.23" arrivalSpeed="10.56" duration="25.00" routeLength="90.82" waitingTime="2.00" waitingCount="1" stopTime="0.00" timeLoss="19.06" rerouteNo="0" devices="tripinfo_flow_route_41_duration_20250327_1910.10" vType="car" speedFactor="1.17" vaporized=""/>
    <tripinfo id="flow_route_41_duration_20250327_1910.2" depart="5.00" departLane="1369578054_0" departPos="118.83" departSpeed="0.00" departDelay="0.39" arrival="55.00" arrivalLane="138002006#0_1" arrivalPos="83.36" arrivalSpeed="13.11" duration="50.00" routeLength="286.46" waitingTime="10.00" waitingCount="1" stopTime="0.00" timeLoss="32.66" rerouteNo="0" devices="tripinfo_flow_route_41_duration_20250327_1910.2" vType="car" speedFactor="1.03" vaporized=""/>
    <tripinfo id="flow_route_41_duration_20250327_1910.4" depart="11.00" departLane="1369578054_0" departPos="37.57" departSpeed="0.00" departDelay="1.77" arrival="55.00" arrivalLane="138002006#0_1" arrivalPos="2.65" arrivalSpeed="9.08" duration="44.00" routeLength="287.01" waitingTime="1.00" waitingCount="1" stopTime="0.00" timeLoss="23.87" rerouteNo="0" devices="tripinfo_flow_route_41_duration_20250327_1910.4" vType="car" speedFactor="0.88" vaporized=""/>
    <tripinfo id="flow_route_41_duration_20250327_1910.11" depart="32.00" departLane="1369578054_0" departPos="209.59" departSpeed="0.00" departDelay="6.62" arrival="59.00" arrivalLane="138002006#0_0" arrivalPos="45.52" arrivalSpeed="12.33" duration="27.00" routeLength="157.86" waitingTime="0.00" waitingCount="0" stopTime="0.00" timeLoss="17.03" rerouteNo="0" devices="tripinfo_flow_route_41_duration_20250327_1910.11" vType="car" speedFactor="1.02" vaporized=""/>
    <tripinfo id="flow_route_40_duration_20250327_1910.0" depart="0.00" departLane="1369578054_0" departPos="1.81" departSpeed="0.00" departDelay="0.00" arrival="60.00" arrivalLane="1341093415#0_0" arrivalPos="87.60" arrivalSpeed="13.81" duration="60.00" routeLength="396.71" waitingTime="2.00" waitingCount="1" stopTime="0.00" timeLoss="34.74" rerouteNo="0" devices="tripinfo_flow_route_40_duration_20250327_1910.0" vType="car" speedFactor="1.08" vaporized=""/>
    <tripinfo id="flow_route_41_duration_20250327_1910.8" depart="20.00" departLane="1369578054_0" departPos="101.58" departSpeed="0.00" departDelay="1.54" arrival="60.00" arrivalLane="138002006#0_0" arrivalPos="5.95" arrivalSpeed="10.55" duration="40.00" routeLength="226.29" waitingTime="0.00" waitingCount="0" stopTime="0.00" timeLoss="25.15" rerouteNo="0" devices="tripinfo_flow_route_41_duration_20250327_1910.8" vType="car" speedFactor="0.95" vaporized=""/>
    <tripinfo id="flow_route_41_duration_20250327_1910.9" depart="21.00" departLane="1369578054_0" departPos="62.08" departSpeed="0.00" departDelay="0.24" arrival="61.00" arrivalLane="138002006#0_1" arrivalPos="50.35" arrivalSpeed="12.44" duration="40.00" routeLength="310.20" waitingTime="0.00" waitingCount="0" stopTime="0.00" timeLoss="19.58" rerouteNo="0" devices="tripinfo_flow_route_41_duration_20250327_1910.9" vType="car" speedFactor="0.93" vaporized=""/>
    <tripinfo id="flow_route_41_duration_20250327_1910.12" depart="32.00" departLane="1369578054_0" departPos="30.42" departSpeed="0.00" departDelay="4.32" arrival="61.00" arrivalLane="138002006#0_1" arrivalPos="2.12" arrivalSpeed="13.28" duration="29.00" routeLength="293.63" waitingTime="0.00" waitingCount="0" stopTime="0.00" timeLoss="10.74" rerouteNo="0" devices="tripinfo_flow_route_41_duration_20250327_1910.12" vType="car" speedFactor="1.10" vaporized=""/>
    <tripinfo id="flow_route_41_duration_20250327_1910.6" depart="18.00" departLane="1369578054_0" departPos="8.34" departSpeed="0.00" departDelay="4.16" arrival="63.00" arrivalLane="138002006#0_1" arrivalPos="59.31" arrivalSpeed="13.36" duration="45.00" routeLength="372.90" waitingTime="0.00" waitingCount="0" stopTime="0.00" timeLoss="21.88" rerouteNo="0" devices="tripinfo_flow_route_41_duration_20250327_1910.6" vType="car" speedFactor="0.97" vaporized=""/>
    <tripinfo id="flow_route_40_duration_20250327_1910.2" depart="25.00" departLane="1369578054_0" departPos="126.81" departSpeed="0.00" departDelay="1.00" arrival="67.00" arrivalLane="1341093415#0_0" arrivalPos="128.67" arrivalSpeed="15.36" duration="42.00" routeLength="312.77" waitingTime="0.00" waitingCount="0" stopTime="0.00" timeLoss="22.02" rerouteNo="0" devices="tripinfo_flow_route_40_duration_20250327_1910.2" vType="car" speedFactor="1.01" vaporized=""/>
    <tripinfo id="flow_route_41_duration_20250327_1910.16" depart="46.00" departLane="1369578054_0" departPos="197.35" departSpeed="0.00" departDelay="9.09" arrival="70.00" arrivalLane="138002006#0_1" arrivalPos="75.05" arrivalSpeed="16.47" duration="24.00" routeLength="199.63" waitingTime="0.00" waitingCount="0" stopTime="0.00" timeLoss="11.42" rerouteNo="0" devices="tripinfo_flow_route_41_duration_20250327_1910.16" vType="car" speedFactor="1.17" vaporized=""/>
    <tripinfo id="flow_route_41_duration_20250327_1910.17" depart="50.00" departLane="1369578054_0" departPos="234.93" departSpeed="0.00" departDelay="10.78" arrival="70.00" arrivalLane="138002006#0_0" arrivalPos="60.44" arrivalSpeed="14.82" duration="20.00" routeLength="147.44" waitingTime="0.00" waitingCount="0" stopTime="0.00" timeLoss="10.45" rerouteNo="0" devices="tripinfo_flow_route_41_duration_20250327_1910.17" vType="car" speedFactor="1.00" vaporized=""/>
    <tripinfo id="flow_route_40_duration_20250327_1910.1" depart="12.00" departLane="1369578054_0" departPos="50.33" departSpeed="0.00" departDelay="0.00" arrival="75.00" arrivalLane="1341093415#0_0" arrivalPos="171.92" arrivalSpeed="16.51" duration="63.00" routeLength="432.52" waitingTime="0.00" waitingCount="0" stopTime="0.00" timeLoss="34.57" rerouteNo="0" devices="tripinfo_flow_route_40_duration_20250327_1910.1" vType="car" speedFactor="0.94" vaporized=""/>
    <tripinfo id="flow_route_41_duration_20250327_1910.15" depart="46.00" departLane="1369578054_0" departPos="101.53" departSpeed="0.00" departDelay="11.40" arrival="77.00" arrivalLane="138002006#0_1" arrivalPos="78.29" arrivalSpeed="15.00" duration="31.00" routeLength="298.69" waitingTime="0.00" waitingCount="0" stopTime="0.00" timeLoss="10.96" rerouteNo="0" devices="tripinfo_flow_route_41_duration_20250327_1910.15" vType="car" speedFactor="0.90" vaporized=""/>
    <tripinfo id="flow_route_51_duration_20250327_1910.0" depart="2.00" departLane="-138002006#3_0" departPos="5.35" departSpeed="0.00" departDelay="2.00" arrival="92.00" arrivalLane="1341093415#0_3" arrivalPos="132.48" arrivalSpeed="15.60" duration="90.00" routeLength="230.81" waitingTime="51.00" waitingCount="2" stopTime="0.00" timeLoss="74.47" rerouteNo="0" devices="tripinfo_flow_route_51_duration_20250327_1910.0" vType="car" speedFactor="1.05" vaporized=""/>
    <tripinfo id="flow_route_27_duration_20250327_1910.9" depart="16.00" departLane="1254771874#0_0" departPos="125.91" departSpeed="0.00" departDelay="2.16" arrival="120.00" arrivalLane="138002006#0_1" arrivalPos="7.90" arrivalSpeed="6.53" duration="104.00" routeLength="153.88" waitingTime="75.00" waitingCount="1" stopTime="0.00" timeLoss="94.10" rerouteNo="0" devices="tripinfo_flow_route_27_duration_20250327_1910.9" vType="car" speedFactor="1.01" vaporized=""/>
    <tripinfo id="flow_route_27_duration_20250327_1910.19" depart="30.00" departLane="1254771874#0_0" departPos="248.33" departSpeed="0.00" departDelay="0.78" arrival="122.00" arrivalLane="138002006#0_1" arrivalPos="37.74" arrivalSpeed="9.33" duration="92.00" routeLength="61.30" waitingTime="76.00" waitingCount="1" stopTime="0.00" timeLoss="87.11" rerouteNo="0" devices="tripinfo_flow_route_27_duration_20250327_1910.19" vType="car" speedFactor="0.96" vaporized=""/>
    <tripinfo id="flow_route_27_duration_20250327_1910.5" depart="8.00" departLane="1254771874#0_0" departPos="40.67" departSpeed="0.00" departDelay="0.31" arrival="129.00" arrivalLane="138002006#0_1" arrivalPos="67.86" arrivalSpeed="12.71" duration="121.00" routeLength="299.08" waitingTime="74.00" waitingCount="1" stopTime="0.00" timeLoss="101.44" rerouteNo="0" devices="tripinfo_flow_route_27_duration_20250327_1910.5" vType="car" speedFactor="0.99" vaporized=""/>
    <tripinfo id="flow_route_26_duration_20250327_1910.1" depart="30.00" departLane="1254771874#0_0" departPos="146.64" departSpeed="0.00" departDelay="0.00" arrival="131.00" arrivalLane="-422986370#2_0" arrivalPos="147.58" arrivalSpeed="14.65" duration="101.00" routeLength="265.55" waitingTime="56.00" waitingCount="2" stopTime="0.00" timeLoss="84.32" rerouteNo="0" devices="tripinfo_flow_route_26_duration_20250327_1910.1" vType="car" speedFactor="1.03" vaporized=""/>
    <tripinfo id="flow_route_25_duration_20250327_1910.1" depart="30.00" departLane="1254771874#0_0" departPos="223.37" departSpeed="0.00" departDelay="0.00" arrival="132.00" arrivalLane="1341093415#0_0" arrivalPos="164.86" arrivalSpeed="16.12" duration="102.00" routeLength="219.27" waitingTime="69.00" waitingCount="1" stopTime="0.00" timeLoss="88.73" rerouteNo="0" devices="tripinfo_flow_route_25_duration_20250327_1910.1" vType="car" speedFactor="0.90" vaporized=""/>
    <tripinfo id="flow_route_27_duration_20250327_1910.23" depart="37.00" departLane="1254771874#0_0" departPos="231.19" departSpeed="0.00" departDelay="1.63" arrival="132.00" arrivalLane="138002006#0_1" arrivalPos="42.61" arrivalSpeed="9.60" duration="95.00" routeLength="83.31" waitingTime="73.00" waitingCount="2" stopTime="0.00" timeLoss="88.61" rerouteNo="0" devices="tripinfo_flow_route_27_duration_20250327_1910.23" vType="car" speedFactor="0.88" vaporized=""/>
    <tripinfo id="flow_route_27_duration_20250327_1910.34" depart="53.00" departLane="1254771874#0_0" departPos="204.94" departSpeed="0.00" departDelay="0.71" arrival="134.00" arrivalLane="138002006#0_1" arrivalPos="39.47" arrivalSpeed="10.09" duration="81.00" routeLength="106.41" waitingTime="55.00" waitingCount="2" stopTime="0.00" timeLoss="73.82" rerouteNo="0" devices="tripinfo_flow_route_27_duration_20250327_1910.34" vType="car" speedFactor="1.04" vaporized=""/>
    <tripinfo id="flow_route_27_duration_20250327_1910.38" depart="59.00" departLane="1254771874#0_0" departPos="240.46" departSpeed="0.00" departDelay="0.56" arrival="138.00" arrivalLane="138002006#0_1" arrivalPos="16.91" arrivalSpeed="6.75" duration="79.00" routeLength="48.34" waitingTime="59.00" waitingCount="3" stopTime="0.00" timeLoss="75.12" rerouteNo="0" devices="tripinfo_flow_route_27_duration_20250327_1910.38" vType="car" speedFactor="0.98" vaporized=""/>
    <tripinfo id="flow_route_27_duration_20250327_1910.35" depart="54.00" departLane="1254771874#0_0" departPos="201.82" departSpeed="0.00" departDelay="0.17" arrival="142.00" arrivalLane="138002006#0_1" arrivalPos="13.99" arrivalSpeed="8.66" duration="88.00" routeLength="84.06" waitingTime="58.00" waitingCount="3" stopTime="0.00" timeLoss="81.74" rerouteNo="0" devices="tripinfo_flow_route_27_duration_20250327_1910.35" vType="car" speedFactor="1.02" vaporized=""/>
    <tripinfo id="flow_route_27_duration_20250327_1910.4" depart="7.00" departLane="1254771874#0_0" departPos="8.29" departSpeed="0.00" departDelay="0.85" arrival="143.00" arrivalLane="138002006#0_1" arrivalPos="48.32" arrivalSpeed="10.34" duration="136.00" routeLength="311.92" waitingTime="81.00" waitingCount="3" stopTime="0.00" timeLoss="116.39" rerouteNo="0" devices="tripinfo_flow_route_27_duration_20250327_1910.4" vType="car" speedFactor="1.05" vaporized=""/>
    <tripinfo id="flow_route_27_duration_20250327_1910.7" depart="12.00" departLane="1254771874#0_0" departPos="57.04" departSpeed="0.00" departDelay="1.23" arrival="143.00" arrivalLane="138002006#0_1" arrivalPos="11.48" arrivalSpeed="8.53" duration="131.00" routeLength="226.34" waitingTime="83.00" waitingCount="4" stopTime="0.00" timeLoss="116.52" rerouteNo="0" devices="tripinfo_flow_route_27_duration_20250327_1910.7" vType="car" speedFactor="0.94" vaporized=""/>
    <tripinfo id="flow_route_27_duration_20250327_1910.10" depart="16.00" departLane="1254771874#0_0" departPos="43.05" departSpeed="0.00" departDelay="0.62" arrival="150.00" arrivalLane="138002006#0_1" arrivalPos="27.32" arrivalSpeed="9.89" duration="134.00" routeLength="256.17" waitingTime="77.00" waitingCount="5" stopTime="0.00" timeLoss="117.06" rerouteNo="0" devices="tripinfo_flow_route_27_duration_20250327_1910.10" vType="car" speedFactor="0.89" vaporized=""/>
    <tripinfo id="flow_route_27_duration_20250327_1910.21" depart="33.00" departLane="1254771874#0_0" departPos="182.06" departSpeed="0.00" departDelay="0.70" arrival="151.00" arrivalLane="138002006#0_1" arrivalPos="58.75" arrivalSpeed="12.94" duration="118.00" routeLength="148.58" waitingTime="77.00" waitingCount="4" stopTime="0.00" timeLoss="107.36" rerouteNo="0" devices="tripinfo_flow_route_27_duration_20250327_1910.21" vType="car" speedFactor="1.04" vaporized=""/>
    <tripinfo id="flow_route_40_duration_20250327_1910.3" depart="46.00" departLane="1369578054_0" departPos="0.26" departSpeed="0.00" departDelay="10.00" arrival="161.00" arrivalLane="1341093415#0_0" arrivalPos="7.59" arrivalSpeed="7.21" duration="115.00" routeLength="318.26" waitingTime="70.00" waitingCount="1" stopTime="0.00" timeLoss="91.45" rerouteNo="0" devices="tripinfo_flow_route_40_duration_20250327_1910.3" vType="car" speedFactor="0.85" vaporized=""/>
    <tripinfo id="flow_route_41_duration_20250327_1910.20" depart="62.00" departLane="1369578054_0" departPos="237.62" departSpeed="0.00" departDelay="15.86" arrival="161.00" arrivalLane="138002006#0_0" arrivalPos="43.18" arrivalSpeed="9.65" duration="99.00" routeLength="127.49" waitingTime="72.00" waitingCount="1" stopTime="0.00" timeLoss="91.04" rerouteNo="0" devices="tripinfo_flow_route_41_duration_20250327_1910.20" vType="car" speedFactor="1.12" vaporized=""/>
    <tripinfo id="flow_route_41_duration_20250327_1910.13" depart="41.00" departLane="1369578054_0" departPos="30.83" departSpeed="0.00" departDelay="11.01" arrival="163.00" arrivalLane="138002006#0_0" arrivalPos="63.09" arrivalSpeed="12.27" duration="122.00" routeLength="354.20" waitingTime="74.00" waitingCount="1" stopTime="0.00" timeLoss="100.04" rerouteNo="0" devices="tripinfo_flow_route_41_duration_20250327_1910.13" vType="car" speedFactor="1.09" vaporized=""/>
    <tripinfo id="flow_route_41_duration_20250327_1910.14" depart="43.00" departLane="1369578054_0" departPos="4.38" departSpeed="0.00" departDelay="10.70" arrival="165.00" arrivalLane="138002006#0_1" arrivalPos="69.33" arrivalSpeed="12.39" duration="122.00" routeLength="386.88" waitingTime="73.00" waitingCount="1" stopTime="0.00" timeLoss="98.50" rerouteNo="0" devices="tripinfo_flow_route_41_duration_20250327_1910.14" vType="car" speedFactor="1.09" vaporized=""/>
    <tripinfo id="flow_route_41_duration_20250327_1910.19" depart="60.00" departLane="1369578054_0" departPos="66.11" departSpeed="0.00" departDelay="16.17" arrival="165.00" arrivalLane="138002006#0_1" arrivalPos="42.85" arrivalSpeed="10.93" duration="105.00" routeLength="298.67" waitingTime="63.00" waitingCount="1" stopTime="0.00" timeLoss="86.99" rerouteNo="0" devices="tripinfo_flow_route_41_duration_20250327_1910.19" vType="car" speedFactor="1.02" vaporized=""/>
    <tripinfo id="flow_route_41_duration_20250327_1910.22" depart="68.00" departLane="1369578054_0" departPos="136.55" departSpeed="0.00" departDelay="17.25" arrival="165.00" arrivalLane="138002006#0_1" arrivalPos="13.61" arrivalSpeed="9.21" duration="97.00" routeLength="198.99" waitingTime="60.00" waitingCount="1" stopTime="0.00" timeLoss="83.46" rerouteNo="0" devices="tripinfo_flow_route_41_duration_20250327_1910.22" vType="car" speedFactor="0.91" vaporized=""/>
    <tripinfo id="flow_route_41_duration_20250327_1910.24" depart="68.00" departLane="1369578054_0" departPos="176.33" departSpeed="0.00" departDelay="12.63" arrival="165.00" arrivalLane="138002006#0_0" arrivalPos="20.06" arrivalSpeed="10.30" duration="97.00" routeLength="165.66" waitingTime="66.00" waitingCount="1" stopTime="0.00" timeLoss="86.33" rerouteNo="0" devices="tripinfo_flow_route_41_duration_20250327_1910.24" vType="car" speedFactor="0.94" vaporized=""/>
    <tripinfo id="flow_route_41_duration_20250327_1910.18" depart="50.00" departLane="1369578054_0" departPos="138.70" departSpeed="0.00" departDelay="8.47" arrival="167.00" arrivalLane="138002006#0_0" arrivalPos="72.89" arrivalSpeed="12.88" duration="117.00" routeLength="256.12" waitingTime="72.00" waitingCount="1" stopTime="0.00" timeLoss="99.08" rerouteNo="0" devices="tripinfo_flow_route_41_duration_20250327_1910.18" vType="car" speedFactor="0.90" vaporized=""/>
    <tripinfo id="flow_route_41_duration_20250327_1910.23" depart="68.00" departLane="1369578054_0" departPos="2.20" departSpeed="0.00" departDelay="14.94" arrival="172.00" arrivalLane="138002006#0_1" arrivalPos="51.45" arrivalSpeed="12.29" duration="104.00" routeLength="371.18" waitingTime="56.00" waitingCount="1" stopTime="0.00" timeLoss="81.47" rerouteNo="0" devices="tripinfo_flow_route_41_duration_20250327_1910.23" vType="car" speedFactor="1.02" vaporized=""/>
    <tripinfo id="flow_route_41_duration_20250327_1910.25" depart="69.00" departLane="1369578054_0" departPos="128.93" departSpeed="0.00" departDelay="11.33" arrival="172.00" arrivalLane="138002006#0_0" arrivalPos="75.52" arrivalSpeed="14.32" duration="103.00" routeLength="268.52" waitingTime="62.00" waitingCount="1" stopTime="0.00" timeLoss="85.50" rerouteNo="0" devices="tripinfo_flow_route_41_duration_20250327_1910.25" vType="car" speedFactor="0.96" vaporized=""/>
    <tripinfo id="flow_route_41_duration_20250327_1910.21" depart="64.00" departLane="1369578054_0" departPos="10.38" departSpeed="0.00" departDelay="15.55" arrival="173.00" arrivalLane="138002006#0_1" arrivalPos="88.48" arrivalSpeed="14.66" duration="109.00" routeLength="400.03" waitingTime="59.00" waitingCount="1" stopTime="0.00" timeLoss="82.70" rerouteNo="0" devices="tripinfo_flow_route_41_duration_20250327_1910.21" vType="car" speedFactor="0.94" vaporized=""/>
    <tripinfo id="flow_route_40_duration_20250327_1910.4" depart="63.00" departLane="1369578054_0" departPos="25.34" departSpeed="0.00" departDelay="15.00" arrival="179.00" arrivalLane="1341093415#0_0" arrivalPos="151.73" arrivalSpeed="15.97" duration="116.00" routeLength="437.31" waitingTime="60.00" waitingCount="1" stopTime="0.00" timeLoss="88.44" rerouteNo="0" devices="tripinfo_flow_route_40_duration_20250327_1910.4" vType="car" speedFactor="0.99" vaporized=""/>
    <tripinfo id="flow_route_27_duration_20250327_1910.30" depart="47.00" departLane="1254771874#0_0" departPos="105.28" departSpeed="0.00" departDelay="0.86" arrival="228.00" arrivalLane="138002006#0_1" arrivalPos="1.04" arrivalSpeed="5.34" duration="181.00" routeLength="167.65" waitingTime="139.00" waitingCount="2" stopTime="0.00" timeLoss="170.13" rerouteNo="0" devices="tripinfo_flow_route_27_duration_20250327_1910.30" vType="car" speedFactor="1.08" vaporized=""/>
    <tripinfo id="flow_route_27_duration_20250327_1910.33" depart="51.00" departLane="1254771874#0_0" departPos="82.67" departSpeed="0.00" departDelay="0.25" arrival="233.00" arrivalLane="138002006#0_1" arrivalPos="18.42" arrivalSpeed="8.00" duration="182.00" routeLength="207.64" waitingTime="118.00" waitingCount="7" stopTime="0.00" timeLoss="168.27" rerouteNo="0" devices="tripinfo_flow_route_27_duration_20250327_1910.33" vType="car" speedFactor="0.91" vaporized=""/>
    <tripinfo id="flow_route_27_duration_20250327_1910.29" depart="45.00" departLane="1254771874#0_0" departPos="120.21" departSpeed="0.00" departDelay="0.40" arrival="236.00" arrivalLane="138002006#0_1" arrivalPos="30.70" arrivalSpeed="8.90" duration="191.00" routeLength="182.38" waitingTime="152.00" waitingCount="2" stopTime="0.00" timeLoss="178.98" rerouteNo="0" devices="tripinfo_flow_route_27_duration_20250327_1910.29" vType="car" speedFactor="0.97" vaporized=""/>
    <tripinfo id="flow_route_27_duration_20250327_1910.31" depart="48.00" departLane="1254771874#0_0" departPos="100.58" departSpeed="0.00" departDelay="0.32" arrival="239.00" arrivalLane="138002006#0_1" arrivalPos="10.15" arrivalSpeed="7.19" duration="191.00" routeLength="181.46" waitingTime="147.00" waitingCount="5" stopTime="0.00" timeLoss="179.08" rerouteNo="0" devices="tripinfo_flow_route_27_duration_20250327_1910.31" vType="car" speedFactor="1.02" vaporized=""/>
    <tripinfo id="flow_route_27_duration_20250327_1910.16" depart="25.00" departLane="1254771874#0_0" departPos="99.63" departSpeed="0.00" departDelay="0.39" arrival="246.00" arrivalLane="138002006#0_1" arrivalPos="60.25" arrivalSpeed="12.16" duration="221.00" routeLength="232.51" waitingTime="146.00" waitingCount="7" stopTime="0.00" timeLoss="205.75" rerouteNo="0" devices="tripinfo_flow_route_27_duration_20250327_1910.16" vType="car" speedFactor="0.99" vaporized=""/>
    <tripinfo id="flow_route_27_duration_20250327_1910.17" depart="27.00" departLane="1254771874#0_0" departPos="93.35" departSpeed="0.00" departDelay="0.85" arrival="249.00" arrivalLane="138002006#0_1" arrivalPos="51.93" arrivalSpeed="12.11" duration="222.00" routeLength="230.48" waitingTime="148.00" waitingCount="7" stopTime="0.00" timeLoss="207.07" rerouteNo="0" devices="tripinfo_flow_route_27_duration_20250327_1910.17" vType="car" speedFactor="0.97" vaporized=""/>
    <tripinfo id="flow_route_27_duration_20250327_1910.20" depart="31.00" departLane="1254771874#0_0" departPos="87.64" departSpeed="0.00" departDelay="0.24" arrival="249.00" arrivalLane="138002006#0_1" arrivalPos="26.30" arrivalSpeed="10.61" duration="218.00" routeLength="210.55" waitingTime="153.00" waitingCount="4" stopTime="0.00" timeLoss="204.24" rerouteNo="0" devices="tripinfo_flow_route_27_duration_20250327_1910.20" vType="car" speedFactor="1.04" vaporized=""/>
    <tripinfo id="flow_route_27_duration_20250327_1910.32" depart="50.00" departLane="1254771874#0_0" departPos="85.08" departSpeed="0.00" departDelay="0.78" arrival="250.00" arrivalLane="138002006#0_1" arrivalPos="83.10" arrivalSpeed="14.57" duration="200.00" routeLength="269.92" waitingTime="130.00" waitingCount="4" stopTime="0.00" timeLoss="181.22" rerouteNo="0" devices="tripinfo_flow_route_27_duration_20250327_1910.32" vType="car" speedFactor="0.88" vaporized=""/>