<?xml version="1.0" encoding="UTF-8"?>

<!-- generated on 2025-05-06 21:07:51 by Eclipse SUMO sumo Version 1.20.0
<configuration xmlns:xsi="http://www.w3.org/2001/XMLSchema-instance" xsi:noNamespaceSchemaLocation="http://sumo.dlr.de/xsd/sumoConfiguration.xsd">

    <input>
        <net-file value="osm.net.xml"/>
        <route-files value="xml/route_rl_cluster_356722183_3828703848_1.rou.xml"/>
    </input>

    <output>
        <tripinfo-output value="xml/tripinfo_rl_cluster_356722183_3828703848_1.xml"/>
    </output>

    <traci_server>
        <remote-port value="36149"/>
    </traci_server>

</configuration>
-->

<tripinfos xmlns:xsi="http://www.w3.org/2001/XMLSchema-instance" xsi:noNamespaceSchemaLocation="http://sumo.dlr.de/xsd/tripinfo_file.xsd">
    <tripinfo id="flow_route_18_duration_20250327_2100.0" depart="0.00" departLane="133126040#0_0" departPos="80.59" departSpeed="0.00" departDelay="0.00" arrival="13.00" arrivalLane="1318893695#0_0" arrivalPos="9.11" arrivalSpeed="10.27" duration="13.00" routeLength="59.37" waitingTime="0.00" waitingCount="0" stopTime="0.00" timeLoss="8.85" rerouteNo="0" devices="tripinfo_flow_route_18_duration_20250327_2100.0" vType="car" speedFactor="1.01" vaporized=""/>
    <tripinfo id="flow_route_1_duration_20250327_2100.0" depart="6.00" departLane="1318793176#1_0" departPos="2.53" departSpeed="0.00" departDelay="6.00" arrival="29.00" arrivalLane="1318793173#0_1" arrivalPos="77.00" arrivalSpeed="15.45" duration="23.00" routeLength="198.37" waitingTime="0.00" waitingCount="0" stopTime="0.00" timeLoss="10.22" rerouteNo="0" devices="tripinfo_flow_route_1_duration_20250327_2100.0" vType="car" speedFactor="0.94" vaporized=""/>
    <tripinfo id="flow_route_0_duration_20250327_2100.1" depart="12.00" departLane="1318793176#1_0" departPos="7.39" departSpeed="0.00" departDelay="8.67" arrival="31.00" arrivalLane="133126031#0_0" arrivalPos="15.36" arrivalSpeed="11.02" duration="19.00" routeLength="128.40" waitingTime="0.00" waitingCount="0" stopTime="0.00" timeLoss="9.68" rerouteNo="0" devices="tripinfo_flow_route_0_duration_20250327_2100.1" vType="car" speedFactor="0.89" vaporized=""/>
    <tripinfo id="flow_route_19_duration_20250327_2100.1" depart="5.00" departLane="133126040#0_0" departPos="58.87" departSpeed="0.00" departDelay="1.84" arrival="34.00" arrivalLane="133126031#0_1" arrivalPos="170.59" arrivalSpeed="16.48" duration="29.00" routeLength="240.58" waitingTime="0.00" waitingCount="0" stopTime="0.00" timeLoss="12.52" rerouteNo="0" devices="tripinfo_flow_route_19_duration_20250327_2100.1" vType="car" speedFactor="0.94" vaporized=""/>
    <tripinfo id="flow_route_0_duration_20250327_2100.0" depart="0.00" departLane="1318793176#1_0" departPos="2.64" departSpeed="0.00" departDelay="0.00" arrival="36.00" arrivalLane="133126031#0_0" arrivalPos="296.30" arrivalSpeed="16.57" duration="36.00" routeLength="414.08" waitingTime="0.00" waitingCount="0" stopTime="0.00" timeLoss="10.57" rerouteNo="0" devices="tripinfo_flow_route_0_duration_20250327_2100.0" vType="car" speedFactor="1.06" vaporized=""/>
    <tripinfo id="flow_route_0_duration_20250327_2100.2" depart="14.00" departLane="1318793176#1_0" departPos="1.62" departSpeed="0.00" departDelay="7.33" arrival="36.00" arrivalLane="133126031#0_0" arrivalPos="52.91" arrivalSpeed="15.11" duration="22.00" routeLength="171.71" waitingTime="0.00" waitingCount="0" stopTime="0.00" timeLoss="11.18" rerouteNo="0" devices="tripinfo_flow_route_0_duration_20250327_2100.2" vType="car" speedFactor="1.09" vaporized=""/>
    <tripinfo id="flow_route_19_duration_20250327_2100.7" depart="23.00" departLane="133126040#0_0" departPos="67.62" departSpeed="0.00" departDelay="0.90" arrival="39.00" arrivalLane="133126031#0_1" arrivalPos="7.93" arrivalSpeed="7.95" duration="16.00" routeLength="69.18" waitingTime="0.00" waitingCount="0" stopTime="0.00" timeLoss="9.41" rerouteNo="0" devices="tripinfo_flow_route_19_duration_20250327_2100.7" vType="car" speedFactor="0.92" vaporized=""/>
    <tripinfo id="flow_route_0_duration_20250327_2100.3" depart="18.00" departLane="1318793176#1_0" departPos="0.50" departSpeed="0.00" departDelay="8.00" arrival="42.00" arrivalLane="133126031#0_0" arrivalPos="74.20" arrivalSpeed="16.36" duration="24.00" routeLength="194.12" waitingTime="1.00" waitingCount="1" stopTime="0.00" timeLoss="11.15" rerouteNo="0" devices="tripinfo_flow_route_0_duration_20250327_2100.3" vType="car" speedFactor="1.12" vaporized=""/>
    <tripinfo id="flow_route_19_duration_20250327_2100.0" depart="0.00" departLane="133126040#0_0" departPos="0.65" departSpeed="0.00" departDelay="0.00" arrival="46.00" arrivalLane="133126031#0_1" arrivalPos="163.43" arrivalSpeed="16.17" duration="46.00" routeLength="291.65" waitingTime="3.00" waitingCount="1" stopTime="0.00" timeLoss="26.15" rerouteNo="0" devices="tripinfo_flow_route_19_duration_20250327_2100.0" vType="car" speedFactor="1.08" vaporized=""/>
    <tripinfo id="flow_route_19_duration_20250327_2100.6" depart="19.00" departLane="133126040#0_0" departPos="66.53" departSpeed="0.00" departDelay="0.06" arrival="46.00" arrivalLane="133126031#0_1" arrivalPos="117.01" arrivalSpeed="14.58" duration="27.00" routeLength="179.35" waitingTime="0.00" waitingCount="0" stopTime="0.00" timeLoss="14.47" rerouteNo="0" devices="tripinfo_flow_route_19_duration_20250327_2100.6" vType="car" speedFactor="0.89" vaporized=""/>
    <tripinfo id="flow_route_19_duration_20250327_2100.3" depart="10.00" departLane="133126040#0_0" departPos="9.63" departSpeed="0.00" departDelay="0.53" arrival="49.00" arrivalLane="133126031#0_1" arrivalPos="55.85" arrivalSpeed="12.32" duration="39.00" routeLength="175.09" waitingTime="1.00" waitingCount="1" stopTime="0.00" timeLoss="27.10" rerouteNo="0" devices="tripinfo_flow_route_19_duration_20250327_2100.3" vType="car" speedFactor="0.99" vaporized=""/>
    <tripinfo id="flow_route_19_duration_20250327_2100.4" depart="13.00" departLane="133126040#0_0" departPos="19.83" departSpeed="0.00" departDelay="0.37" arrival="51.00" arrivalLane="133126031#0_1" arrivalPos="102.35" arrivalSpeed="14.71" duration="38.00" routeLength="211.39" waitingTime="2.00" waitingCount="1" stopTime="0.00" timeLoss="23.16" rerouteNo="0" devices="tripinfo_flow_route_19_duration_20250327_2100.4" vType="car" speedFactor="0.94" vaporized=""/>
    <tripinfo id="flow_route_19_duration_20250327_2100.5" depart="16.00" departLane="133126040#0_0" departPos="9.30" departSpeed="0.00" departDelay="0.22" arrival="52.00" arrivalLane="133126031#0_1" arrivalPos="59.52" arrivalSpeed="11.97" duration="36.00" routeLength="179.09" waitingTime="0.00" waitingCount="0" stopTime="0.00" timeLoss="24.06" rerouteNo="0" devices="tripinfo_flow_route_19_duration_20250327_2100.5" vType="car" speedFactor="1.02" vaporized=""/>
    <tripinfo id="flow_route_0_duration_20250327_2100.4" depart="25.00" departLane="1318793176#1_0" departPos="9.33" departSpeed="0.00" departDelay="11.67" arrival="56.00" arrivalLane="133126031#0_0" arrivalPos="213.38" arrivalSpeed="16.31" duration="31.00" routeLength="324.46" waitingTime="0.00" waitingCount="0" stopTime="0.00" timeLoss="10.75" rerouteNo="0" devices="tripinfo_flow_route_0_duration_20250327_2100.4" vType="car" speedFactor="1.16" vaporized=""/>
    <tripinfo id="flow_route_19_duration_20250327_2100.2" depart="7.00" departLane="133126040#0_0" departPos="13.99" departSpeed="0.00" departDelay="0.69" arrival="57.00" arrivalLane="133126031#0_0" arrivalPos="318.11" arrivalSpeed="16.47" duration="50.00" routeLength="432.99" waitingTime="1.00" waitingCount="1" stopTime="0.00" timeLoss="22.18" rerouteNo="0" devices="tripinfo_flow_route_19_duration_20250327_2100.2" vType="car" speedFactor="1.03" vaporized=""/>
    <tripinfo id="flow_route_18_duration_20250327_2100.1" depart="30.00" departLane="133126040#0_0" departPos="16.61" departSpeed="0.00" departDelay="0.00" arrival="57.00" arrivalLane="1318893695#0_0" arrivalPos="135.23" arrivalSpeed="15.83" duration="27.00" routeLength="249.48" waitingTime="0.00" waitingCount="0" stopTime="0.00" timeLoss="10.93" rerouteNo="0" devices="tripinfo_flow_route_18_duration_20250327_2100.1" vType="car" speedFactor="0.97" vaporized=""/>
    <tripinfo id="flow_route_0_duration_20250327_2100.5" depart="29.00" departLane="1318793176#1_0" departPos="3.97" departSpeed="0.00" departDelay="12.34" arrival="59.00" arrivalLane="133126031#0_0" arrivalPos="188.60" arrivalSpeed="16.12" duration="30.00" routeLength="305.06" waitingTime="0.00" waitingCount="0" stopTime="0.00" timeLoss="10.66" rerouteNo="0" devices="tripinfo_flow_route_0_duration_20250327_2100.5" vType="car" speedFactor="0.97" vaporized=""/>
    <tripinfo id="flow_route_0_duration_20250327_2100.6" depart="35.00" departLane="1318793176#1_0" departPos="0.16" departSpeed="0.00" departDelay="15.00" arrival="64.00" arrivalLane="133126031#0_0" arrivalPos="129.61" arrivalSpeed="16.28" duration="29.00" routeLength="249.88" waitingTime="0.00" waitingCount="0" stopTime="0.00" timeLoss="11.85" rerouteNo="0" devices="tripinfo_flow_route_0_duration_20250327_2100.6" vType="car" speedFactor="0.87" vaporized=""/>
    <tripinfo id="flow_route_19_duration_20250327_2100.12" depart="39.00" departLane="133126040#0_0" departPos="12.37" departSpeed="0.00" departDelay="1.12" arrival="68.00" arrivalLane="133126031#0_1" arrivalPos="0.28" arrivalSpeed="7.96" duration="29.00" routeLength="116.79" waitingTime="0.00" waitingCount="0" stopTime="0.00" timeLoss="20.19" rerouteNo="0" devices="tripinfo_flow_route_19_duration_20250327_2100.12" vType="car" speedFactor="1.04" vaporized=""/>
    <tripinfo id="flow_route_0_duration_20250327_2100.8" depart="41.00" departLane="1318793176#1_0" departPos="5.21" departSpeed="0.00" departDelay="14.34" arrival="69.00" arrivalLane="133126031#0_0" arrivalPos="155.08" arrivalSpeed="16.24" duration="28.00" routeLength="270.29" waitingTime="0.00" waitingCount="0" stopTime="0.00" timeLoss="10.75" rerouteNo="0" devices="tripinfo_flow_route_0_duration_20250327_2100.8" vType="car" speedFactor="1.01" vaporized=""/>
    <tripinfo id="flow_route_19_duration_20250327_2100.10" depart="32.00" departLane="133126040#0_0" departPos="41.04" departSpeed="0.00" departDelay="0.43" arrival="69.00" arrivalLane="133126031#0_1" arrivalPos="220.58" arrivalSpeed="16.53" duration="37.00" routeLength="308.41" waitingTime="3.00" waitingCount="1" stopTime="0.00" timeLoss="17.18" rerouteNo="0" devices="tripinfo_flow_route_19_duration_20250327_2100.10" vType="car" speedFactor="1.18" vaporized=""/>
    <tripinfo id="flow_route_19_duration_20250327_2100.11" depart="35.00" departLane="133126040#0_0" departPos="52.21" departSpeed="0.00" departDelay="0.27" arrival="69.00" arrivalLane="133126031#0_1" arrivalPos="273.06" arrivalSpeed="16.43" duration="34.00" routeLength="349.72" waitingTime="0.00" waitingCount="0" stopTime="0.00" timeLoss="11.51" rerouteNo="0" devices="tripinfo_flow_route_19_duration_20250327_2100.11" vType="car" speedFactor="1.03" vaporized=""/>
    <tripinfo id="flow_route_19_duration_20250327_2100.9" depart="29.00" departLane="133126040#0_0" departPos="4.61" departSpeed="0.00" departDelay="0.59" arrival="70.00" arrivalLane="133126031#0_1" arrivalPos="41.34" arrivalSpeed="10.11" duration="41.00" routeLength="165.60" waitingTime="1.00" waitingCount="1" stopTime="0.00" timeLoss="30.22" rerouteNo="0" devices="tripinfo_flow_route_19_duration_20250327_2100.9" vType="car" speedFactor="1.17" vaporized=""/>
    <tripinfo id="flow_route_0_duration_20250327_2100.7" depart="35.00" departLane="1318793176#1_0" departPos="10.48" departSpeed="0.00" departDelay="11.67" arrival="71.00" arrivalLane="133126031#0_0" arrivalPos="307.58" arrivalSpeed="16.23" duration="36.00" routeLength="417.52" waitingTime="0.00" waitingCount="0" stopTime="0.00" timeLoss="10.36" rerouteNo="0" devices="tripinfo_flow_route_0_duration_20250327_2100.7" vType="car" speedFactor="1.13" vaporized=""/>
    <tripinfo id="flow_route_0_duration_20250327_2100.9" depart="46.00" departLane="1318793176#1_0" departPos="2.43" departSpeed="0.00" departDelay="16.00" arrival="72.00" arrivalLane="133126031#0_0" arrivalPos="129.91" arrivalSpeed="16.55" duration="26.00" routeLength="247.90" waitingTime="0.00" waitingCount="0" stopTime="0.00" timeLoss="10.46" rerouteNo="0" devices="tripinfo_flow_route_0_duration_20250327_2100.9" vType="car" speedFactor="1.02" vaporized=""/>
    <tripinfo id="flow_route_19_duration_20250327_2100.16" depart="51.00" departLane="133126040#0_0" departPos="12.92" departSpeed="0.00" departDelay="0.49" arrival="74.00" arrivalLane="133126031#0_1" arrivalPos="11.52" arrivalSpeed="8.52" duration="23.00" routeLength="127.47" waitingTime="0.00" waitingCount="0" stopTime="0.00" timeLoss="13.97" rerouteNo="0" devices="tripinfo_flow_route_19_duration_20250327_2100.16" vType="car" speedFactor="1.14" vaporized=""/>
    <tripinfo id="flow_route_19_duration_20250327_2100.13" depart="42.00" departLane="133126040#0_0" departPos="48.30" departSpeed="0.00" departDelay="0.96" arrival="77.00" arrivalLane="133126031#0_1" arrivalPos="260.73" arrivalSpeed="16.14" duration="35.00" routeLength="341.30" waitingTime="0.00" waitingCount="0" stopTime="0.00" timeLoss="11.54" rerouteNo="0" devices="tripinfo_flow_route_19_duration_20250327_2100.13" vType="car" speedFactor="0.90" vaporized=""/>
    <tripinfo id="flow_route_0_duration_20250327_2100.10" depart="50.00" departLane="1318793176#1_0" departPos="0.90" departSpeed="0.00" departDelay="16.67" arrival="81.00" arrivalLane="133126031#0_0" arrivalPos="190.66" arrivalSpeed="16.18" duration="31.00" routeLength="310.18" waitingTime="0.00" waitingCount="0" stopTime="0.00" timeLoss="10.49" rerouteNo="0" devices="tripinfo_flow_route_0_duration_20250327_2100.10" vType="car" speedFactor="0.90" vaporized=""/>
    <tripinfo id="flow_route_48_duration_20250327_2100.0" depart="2.00" departLane="380351865#0_0" departPos="1.03" departSpeed="0.00" departDelay="2.00" arrival="85.00" arrivalLane="133126031#0_0" arrivalPos="14.50" arrivalSpeed="8.21" duration="83.00" routeLength="180.64" waitingTime="49.00" waitingCount="1" stopTime="0.00" timeLoss="64.95" rerouteNo="0" devices="tripinfo_flow_route_48_duration_20250327_2100.0" vType="car" speedFactor="0.83" vaporized=""/>
    <tripinfo id="flow_route_19_duration_20250327_2100.8" depart="26.00" departLane="133126040#0_0" departPos="10.98" departSpeed="0.00" departDelay="0.74" arrival="85.00" arrivalLane="133126031#0_1" arrivalPos="323.07" arrivalSpeed="16.21" duration="59.00" routeLength="440.96" waitingTime="3.00" waitingCount="2" stopTime="0.00" timeLoss="31.55" rerouteNo="0" devices="tripinfo_flow_route_19_duration_20250327_2100.8" vType="car" speedFactor="1.18" vaporized=""/>
    <tripinfo id="flow_route_48_duration_20250327_2100.2" depart="14.00" departLane="380351865#0_0" departPos="0.48" departSpeed="0.00" departDelay="7.69" arrival="88.00" arrivalLane="133126031#0_0" arrivalPos="9.92" arrivalSpeed="9.23" duration="74.00" routeLength="176.61" waitingTime="41.00" waitingCount="1" stopTime="0.00" timeLoss="59.87" rerouteNo="0" devices="tripinfo_flow_route_48_duration_20250327_2100.2" vType="car" speedFactor="1.05" vaporized=""/>
    <tripinfo id="flow_route_47_duration_20250327_2100.0" depart="0.00" departLane="380351865#0_0" departPos="11.49" departSpeed="0.00" departDelay="0.00" arrival="89.00" arrivalLane="1318793173#0_1" arrivalPos="63.76" arrivalSpeed="12.00" duration="89.00" routeLength="213.71" waitingTime="54.00" waitingCount="1" stopTime="0.00" timeLoss="71.94" rerouteNo="0" devices="tripinfo_flow_route_47_duration_20250327_2100.0" vType="car" speedFactor="1.03" vaporized=""/>
    <tripinfo id="flow_route_0_duration_20250327_2100.11" depart="55.00" departLane="1318793176#1_0" departPos="0.12" departSpeed="0.00" departDelay="18.34" arrival="89.00" arrivalLane="133126031#0_0" arrivalPos="265.36" arrivalSpeed="16.28" duration="34.00" routeLength="385.66" waitingTime="0.00" waitingCount="0" stopTime="0.00" timeLoss="10.31" rerouteNo="0" devices="tripinfo_flow_route_0_duration_20250327_2100.11" vType="car" speedFactor="1.04" vaporized=""/>
    <tripinfo id="flow_route_19_duration_20250327_2100.15" depart="48.00" departLane="133126040#0_0" departPos="23.86" departSpeed="0.00" departDelay="0.65" arrival="91.00" arrivalLane="133126031#0_1" arrivalPos="282.92" arrivalSpeed="16.32" duration="43.00" routeLength="387.93" waitingTime="0.00" waitingCount="0" stopTime="0.00" timeLoss="18.01" rerouteNo="0" devices="tripinfo_flow_route_19_duration_20250327_2100.15" vType="car" speedFactor="1.10" vaporized=""/>
    <tripinfo id="flow_route_48_duration_20250327_2100.1" depart="13.00" departLane="380351865#0_0" departPos="9.90" departSpeed="0.00" departDelay="9.84" arrival="94.00" arrivalLane="133126031#0_1" arrivalPos="102.11" arrivalSpeed="15.42" duration="81.00" routeLength="259.38" waitingTime="41.00" waitingCount="1" stopTime="0.00" timeLoss="58.72" rerouteNo="0" devices="tripinfo_flow_route_48_duration_20250327_2100.1" vType="car" speedFactor="0.86" vaporized=""/>
    <tripinfo id="flow_route_47_duration_20250327_2100.1" depart="26.00" departLane="380351865#0_0" departPos="7.02" departSpeed="0.00" departDelay="14.00" arrival="94.00" arrivalLane="1318793173#0_1" arrivalPos="64.43" arrivalSpeed="13.53" duration="68.00" routeLength="218.86" waitingTime="32.00" waitingCount="1" stopTime="0.00" timeLoss="47.84" rerouteNo="0" devices="tripinfo_flow_route_47_duration_20250327_2100.1" vType="car" speedFactor="0.88" vaporized=""/>
    <tripinfo id="flow_route_49_duration_20250327_2100.0" depart="6.00" departLane="380351865#0_0" departPos="0.55" departSpeed="0.00" departDelay="6.00" arrival="96.00" arrivalLane="1318893695#0_0" arrivalPos="148.83" arrivalSpeed="15.37" duration="90.00" routeLength="292.16" waitingTime="48.00" waitingCount="1" stopTime="0.00" timeLoss="67.86" rerouteNo="0" devices="tripinfo_flow_route_49_duration_20250327_2100.0" vType="car" speedFactor="1.05" vaporized=""/>
    <tripinfo id="flow_route_48_duration_20250327_2100.6" depart="42.00" departLane="380351865#0_0" departPos="14.40" departSpeed="0.00" departDelay="23.06" arrival="98.00" arrivalLane="133126031#0_1" arrivalPos="96.45" arrivalSpeed="15.47" duration="56.00" routeLength="249.22" waitingTime="17.00" waitingCount="1" stopTime="0.00" timeLoss="34.44" rerouteNo="0" devices="tripinfo_flow_route_48_duration_20250327_2100.6" vType="car" speedFactor="0.83" vaporized=""/>
    <tripinfo id="flow_route_48_duration_20250327_2100.3" depart="19.00" departLane="380351865#0_0" departPos="3.63" departSpeed="0.00" departDelay="9.53" arrival="101.00" arrivalLane="133126031#0_1" arrivalPos="190.09" arrivalSpeed="16.25" duration="82.00" routeLength="353.63" waitingTime="37.00" waitingCount="2" stopTime="0.00" timeLoss="55.13" rerouteNo="0" devices="tripinfo_flow_route_48_duration_20250327_2100.3" vType="car" speedFactor="0.93" vaporized=""/>
    <tripinfo id="flow_route_47_duration_20250327_2100.2" depart="46.00" departLane="380351865#0_0" departPos="1.67" departSpeed="0.00" departDelay="22.00" arrival="102.00" arrivalLane="1318793173#0_1" arrivalPos="53.24" arrivalSpeed="11.78" duration="56.00" routeLength="213.02" waitingTime="13.00" waitingCount="1" stopTime="0.00" timeLoss="37.10" rerouteNo="0" devices="tripinfo_flow_route_47_duration_20250327_2100.2" vType="car" speedFactor="0.93" vaporized=""/>
    <tripinfo id="flow_route_48_duration_20250327_2100.7" depart="42.00" departLane="380351865#0_0" departPos="5.68" departSpeed="0.00" departDelay="19.90" arrival="108.00" arrivalLane="133126031#0_0" arrivalPos="100.68" arrivalSpeed="13.91" duration="66.00" routeLength="262.16" waitingTime="18.00" waitingCount="1" stopTime="0.00" timeLoss="45.31" rerouteNo="0" devices="tripinfo_flow_route_48_duration_20250327_2100.7" vType="car" speedFactor="0.95" vaporized=""/>
    <tripinfo id="flow_route_48_duration_20250327_2100.4" depart="29.00" departLane="380351865#0_0" departPos="2.41" departSpeed="0.00" departDelay="16.37" arrival="110.00" arrivalLane="133126031#0_0" arrivalPos="163.80" arrivalSpeed="16.51" duration="81.00" routeLength="328.57" waitingTime="28.00" waitingCount="1" stopTime="0.00" timeLoss="56.19" rerouteNo="0" devices="tripinfo_flow_route_48_duration_20250327_2100.4" vType="car" speedFactor="0.94" vaporized=""/>
    <tripinfo id="flow_route_48_duration_20250327_2100.8" depart="52.00" departLane="380351865#0_0" departPos="7.78" departSpeed="0.00" departDelay="26.74" arrival="110.00" arrivalLane="133126031#0_0" arrivalPos="98.54" arrivalSpeed="15.13" duration="58.00" routeLength="257.93" waitingTime="12.00" waitingCount="1" stopTime="0.00" timeLoss="39.35" rerouteNo="0" devices="tripinfo_flow_route_48_duration_20250327_2100.8" vType="car" speedFactor="1.15" vaporized=""/>
    <tripinfo id="flow_route_47_duration_20250327_2100.4" depart="79.00" departLane="380351865#0_0" departPos="6.77" departSpeed="0.00" departDelay="31.00" arrival="110.00" arrivalLane="1318793173#0_1" arrivalPos="50.34" arrivalSpeed="13.46" duration="31.00" routeLength="205.01" waitingTime="1.00" waitingCount="1" stopTime="0.00" timeLoss="14.69" rerouteNo="0" devices="tripinfo_flow_route_47_duration_20250327_2100.4" vType="car" speedFactor="1.00" vaporized=""/>
    <tripinfo id="flow_route_47_duration_20250327_2100.3" depart="68.00" departLane="380351865#0_0" departPos="8.13" departSpeed="0.00" departDelay="32.00" arrival="111.00" arrivalLane="1318793173#0_1" arrivalPos="97.63" arrivalSpeed="15.52" duration="43.00" routeLength="250.94" waitingTime="0.00" waitingCount="0" stopTime="0.00" timeLoss="24.13" rerouteNo="0" devices="tripinfo_flow_route_47_duration_20250327_2100.3" vType="car" speedFactor="1.09" vaporized=""/>
    <tripinfo id="flow_route_48_duration_20250327_2100.10" depart="59.00" departLane="380351865#0_0" departPos="7.63" departSpeed="0.00" departDelay="27.43" arrival="115.00" arrivalLane="133126031#0_0" arrivalPos="143.28" arrivalSpeed="16.54" duration="56.00" routeLength="302.82" waitingTime="6.00" waitingCount="1" stopTime="0.00" timeLoss="34.30" rerouteNo="0" devices="tripinfo_flow_route_48_duration_20250327_2100.10" vType="car" speedFactor="1.10" vaporized=""/>
    <tripinfo id="flow_route_0_duration_20250327_2100.12" depart="60.00" departLane="1318793176#1_0" departPos="3.31" departSpeed="0.00" departDelay="20.00" arrival="115.00" arrivalLane="133126031#0_0" arrivalPos="283.10" arrivalSpeed="16.36" duration="55.00" routeLength="400.21" waitingTime="7.00" waitingCount="2" stopTime="0.00" timeLoss="30.34" rerouteNo="0" devices="tripinfo_flow_route_0_duration_20250327_2100.12" vType="car" speedFactor="1.00" vaporized=""/>
    <tripinfo id="flow_route_48_duration_20250327_2100.15" depart="84.00" departLane="380351865#0_0" departPos="16.29" departSpeed="0.00" departDelay="36.65" arrival="115.00" arrivalLane="133126031#0_0" arrivalPos="63.36" arrivalSpeed="13.70" duration="31.00" routeLength="214.24" waitingTime="0.00" waitingCount="0" stopTime="0.00" timeLoss="13.83" rerouteNo="0" devices="tripinfo_flow_route_48_duration_20250327_2100.15" vType="car" speedFactor="1.00" vaporized=""/>
    <tripinfo id="flow_route_48_duration_20250327_2100.9" depart="52.00" departLane="380351865#0_0" departPos="0.13" departSpeed="0.00" departDelay="23.59" arrival="116.00" arrivalLane="133126031#0_1" arrivalPos="237.20" arrivalSpeed="16.46" duration="64.00" routeLength="404.24" waitingTime="10.00" waitingCount="2" stopTime="0.00" timeLoss="35.13" rerouteNo="0" devices="tripinfo_flow_route_48_duration_20250327_2100.9" vType="car" speedFactor="0.99" vaporized=""/>
    <tripinfo id="flow_route_48_duration_20250327_2100.17" depart="87.00" departLane="380351865#0_0" departPos="0.28" departSpeed="0.00" departDelay="33.33" arrival="116.00" arrivalLane="133126031#0_1" arrivalPos="63.38" arrivalSpeed="15.08" duration="29.00" routeLength="230.27" waitingTime="0.00" waitingCount="0" stopTime="0.00" timeLoss="11.77" rerouteNo="0" devices="tripinfo_flow_route_48_duration_20250327_2100.17" vType="car" speedFactor="1.12" vaporized=""/>
    <tripinfo id="flow_route_48_duration_20250327_2100.13" depart="73.00" departLane="380351865#0_0" departPos="16.98" departSpeed="0.00" departDelay="31.96" arrival="117.00" arrivalLane="133126031#0_0" arrivalPos="153.93" arrivalSpeed="16.54" duration="44.00" routeLength="304.13" waitingTime="0.00" waitingCount="0" stopTime="0.00" timeLoss="20.43" rerouteNo="0" devices="tripinfo_flow_route_48_duration_20250327_2100.13" vType="car" speedFactor="0.88" vaporized=""/>
    <tripinfo id="flow_route_48_duration_20250327_2100.5" depart="34.00" departLane="380351865#0_0" departPos="1.76" departSpeed="0.00" departDelay="18.22" arrival="118.00" arrivalLane="133126031#0_1" arrivalPos="329.98" arrivalSpeed="16.27" duration="84.00" routeLength="495.39" waitingTime="25.00" waitingCount="1" stopTime="0.00" timeLoss="49.84" rerouteNo="0" devices="tripinfo_flow_route_48_duration_20250327_2100.5" vType="car" speedFactor="1.01" vaporized=""/>
    <tripinfo id="flow_route_48_duration_20250327_2100.12" depart="71.00" departLane="380351865#0_0" departPos="2.62" departSpeed="0.00" departDelay="33.12" arrival="120.00" arrivalLane="133126031#0_1" arrivalPos="219.03" arrivalSpeed="16.22" duration="49.00" routeLength="383.57" waitingTime="0.00" waitingCount="0" stopTime="0.00" timeLoss="22.39" rerouteNo="0" devices="tripinfo_flow_route_48_duration_20250327_2100.12" vType="car" speedFactor="1.09" vaporized=""/>
    <tripinfo id="flow_route_48_duration_20250327_2100.14" depart="77.00" departLane="380351865#0_0" departPos="12.64" departSpeed="0.00" departDelay="32.80" arrival="121.00" arrivalLane="133126031#0_0" arrivalPos="192.73" arrivalSpeed="16.17" duration="44.00" routeLength="347.27" waitingTime="0.00" waitingCount="0" stopTime="0.00" timeLoss="20.81" rerouteNo="0" devices="tripinfo_flow_route_48_duration_20250327_2100.14" vType="car" speedFactor="1.17" vaporized=""/>
    <tripinfo id="flow_route_48_duration_20250327_2100.11" depart="62.00" departLane="380351865#0_0" departPos="3.61" departSpeed="0.00" departDelay="27.27" arrival="122.00" arrivalLane="133126031#0_1" arrivalPos="314.19" arrivalSpeed="16.25" duration="60.00" routeLength="477.74" waitingTime="0.00" waitingCount="0" stopTime="0.00" timeLoss="26.68" rerouteNo="0" devices="tripinfo_flow_route_48_duration_20250327_2100.11" vType="car" speedFactor="0.96" vaporized=""/>
    <tripinfo id="flow_route_19_duration_20250327_2100.14" depart="45.00" departLane="133126040#0_0" departPos="12.40" departSpeed="0.00" departDelay="0.80" arrival="123.00" arrivalLane="133126031#0_1" arrivalPos="52.41" arrivalSpeed="10.68" duration="78.00" routeLength="168.88" waitingTime="43.00" waitingCount="2" stopTime="0.00" timeLoss="64.97" rerouteNo="0" devices="tripinfo_flow_route_19_duration_20250327_2100.14" vType="car" speedFactor="0.85" vaporized=""/>
    <tripinfo id="flow_route_48_duration_20250327_2100.16" depart="85.00" departLane="380351865#0_0" departPos="5.59" departSpeed="0.00" departDelay="34.49" arrival="125.00" arrivalLane="133126031#0_1" arrivalPos="249.27" arrivalSpeed="16.21" duration="40.00" routeLength="410.85" waitingTime="0.00" waitingCount="0" stopTime="0.00" timeLoss="11.06" rerouteNo="0" devices="tripinfo_flow_route_48_duration_20250327_2100.16" vType="car" speedFactor="1.02" vaporized=""/>
    <tripinfo id="flow_route_0_duration_20250327_2100.13" depart="64.00" departLane="1318793176#1_0" departPos="2.16" departSpeed="0.00" departDelay="20.67" arrival="130.00" arrivalLane="133126031#0_0" arrivalPos="147.85" arrivalSpeed="16.23" duration="66.00" routeLength="266.11" waitingTime="21.00" waitingCount="3" stopTime="0.00" timeLoss="47.29" rerouteNo="0" devices="tripinfo_flow_route_0_duration_20250327_2100.13" vType="car" speedFactor="0.85" vaporized=""/>
    <tripinfo id="flow_route_19_duration_20250327_2100.17" depart="54.00" departLane="133126040#0_0" departPos="11.86" departSpeed="0.00" departDelay="0.33" arrival="138.00" arrivalLane="133126031#0_1" arrivalPos="201.04" arrivalSpeed="16.33" duration="84.00" routeLength="318.05" waitingTime="34.00" waitingCount="2" stopTime="0.00" timeLoss="63.99" rerouteNo="0" devices="tripinfo_flow_route_19_duration_20250327_2100.17" vType="car" speedFactor="1.08" vaporized=""/>
    <tripinfo id="flow_route_0_duration_20250327_2100.15" depart="75.00" departLane="1318793176#1_0" departPos="0.12" departSpeed="0.00" departDelay="25.01" arrival="140.00" arrivalLane="133126031#0_0" arrivalPos="263.71" arrivalSpeed="16.11" duration="65.00" routeLength="384.02" waitingTime="14.00" waitingCount="1" stopTime="0.00" timeLoss="40.04" rerouteNo="0" devices="tripinfo_flow_route_0_duration_20250327_2100.15" vType="car" speedFactor="0.90" vaporized=""/>
    <tripinfo id="flow_route_0_duration_20250327_2100.16" depart="81.00" departLane="1318793176#1_0" departPos="2.57" departSpeed="0.00" departDelay="27.67" arrival="140.00" arrivalLane="133126031#0_0" arrivalPos="245.77" arrivalSpeed="16.32" duration="59.00" routeLength="363.62" waitingTime="13.00" waitingCount="1" stopTime="0.00" timeLoss="36.22" rerouteNo="0" devices="tripinfo_flow_route_0_duration_20250327_2100.16" vType="car" speedFactor="0.97" vaporized=""/>
    <tripinfo id="flow_route_0_duration_20250327_2100.14" depart="69.00" departLane="1318793176#1_0" departPos="4.11" departSpeed="0.00" departDelay="22.34" arrival="141.00" arrivalLane="133126031#0_0" arrivalPos="305.80" arrivalSpeed="16.17" duration="72.00" routeLength="422.11" waitingTime="18.00" waitingCount="2" stopTime="0.00" timeLoss="45.52" rerouteNo="0" devices="tripinfo_flow_route_0_duration_20250327_2100.14" vType="car" speedFactor="1.02" vaporized=""/>