<?xml version="1.0" encoding="UTF-8"?>

<!-- generated on 2025-05-06 21:08:53 by Eclipse SUMO sumo Version 1.20.0
<configuration xmlns:xsi="http://www.w3.org/2001/XMLSchema-instance" xsi:noNamespaceSchemaLocation="http://sumo.dlr.de/xsd/sumoConfiguration.xsd">

    <input>
        <net-file value="osm.net.xml"/>
        <route-files value="xml/route_rl_cluster_356722183_3828703848_7.rou.xml"/>
    </input>

    <output>
        <tripinfo-output value="xml/tripinfo_rl_cluster_356722183_3828703848_7.xml"/>
    </output>

    <traci_server>
        <remote-port value="59065"/>
    </traci_server>

</configuration>
-->

<tripinfos xmlns:xsi="http://www.w3.org/2001/XMLSchema-instance" xsi:noNamespaceSchemaLocation="http://sumo.dlr.de/xsd/tripinfo_file.xsd">
    <tripinfo id="flow_route_18_duration_20250327_2300.0" depart="0.00" departLane="133126040#0_0" departPos="80.59" departSpeed="0.00" departDelay="0.00" arrival="13.00" arrivalLane="1318893695#0_0" arrivalPos="9.11" arrivalSpeed="10.19" duration="13.00" routeLength="59.37" waitingTime="0.00" waitingCount="0" stopTime="0.00" timeLoss="8.89" rerouteNo="0" devices="tripinfo_flow_route_18_duration_20250327_2300.0" vType="car" speedFactor="1.01" vaporized=""/>
    <tripinfo id="flow_route_1_duration_20250327_2300.0" depart="4.00" departLane="1318793176#1_0" departPos="0.49" departSpeed="0.00" departDelay="4.00" arrival="28.00" arrivalLane="1318793173#0_1" arrivalPos="77.00" arrivalSpeed="15.29" duration="24.00" routeLength="200.41" waitingTime="0.00" waitingCount="0" stopTime="0.00" timeLoss="10.55" rerouteNo="0" devices="tripinfo_flow_route_1_duration_20250327_2300.0" vType="car" speedFactor="0.94" vaporized=""/>
    <tripinfo id="flow_route_0_duration_20250327_2300.0" depart="0.00" departLane="1318793176#1_0" departPos="2.64" departSpeed="0.00" departDelay="0.00" arrival="36.00" arrivalLane="133126031#0_0" arrivalPos="296.30" arrivalSpeed="16.19" duration="36.00" routeLength="414.08" waitingTime="0.00" waitingCount="0" stopTime="0.00" timeLoss="10.37" rerouteNo="0" devices="tripinfo_flow_route_0_duration_20250327_2300.0" vType="car" speedFactor="1.06" vaporized=""/>
    <tripinfo id="flow_route_0_duration_20250327_2300.1" depart="10.00" departLane="1318793176#1_0" departPos="0.35" departSpeed="0.00" departDelay="0.00" arrival="38.00" arrivalLane="133126031#0_0" arrivalPos="131.88" arrivalSpeed="16.21" duration="28.00" routeLength="251.96" waitingTime="0.00" waitingCount="0" stopTime="0.00" timeLoss="11.19" rerouteNo="0" devices="tripinfo_flow_route_0_duration_20250327_2300.1" vType="car" speedFactor="0.89" vaporized=""/>
    <tripinfo id="flow_route_0_duration_20250327_2300.2" depart="20.00" departLane="1318793176#1_0" departPos="0.32" departSpeed="0.00" departDelay="0.00" arrival="43.00" arrivalLane="133126031#0_0" arrivalPos="52.91" arrivalSpeed="13.17" duration="23.00" routeLength="173.01" waitingTime="0.00" waitingCount="0" stopTime="0.00" timeLoss="10.80" rerouteNo="0" devices="tripinfo_flow_route_0_duration_20250327_2300.2" vType="car" speedFactor="0.86" vaporized=""/>
    <tripinfo id="flow_route_19_duration_20250327_2300.0" depart="0.00" departLane="133126040#0_0" departPos="0.65" departSpeed="0.00" departDelay="0.00" arrival="45.00" arrivalLane="133126031#0_1" arrivalPos="163.43" arrivalSpeed="16.47" duration="45.00" routeLength="291.65" waitingTime="4.00" waitingCount="1" stopTime="0.00" timeLoss="25.19" rerouteNo="0" devices="tripinfo_flow_route_19_duration_20250327_2300.0" vType="car" speedFactor="1.08" vaporized=""/>
    <tripinfo id="flow_route_19_duration_20250327_2300.1" depart="30.00" departLane="133126040#0_0" departPos="28.56" departSpeed="0.00" departDelay="0.00" arrival="51.00" arrivalLane="133126031#0_1" arrivalPos="43.02" arrivalSpeed="11.22" duration="21.00" routeLength="143.33" waitingTime="0.00" waitingCount="0" stopTime="0.00" timeLoss="11.30" rerouteNo="0" devices="tripinfo_flow_route_19_duration_20250327_2300.1" vType="car" speedFactor="1.05" vaporized=""/>
    <tripinfo id="flow_route_0_duration_20250327_2300.3" depart="30.00" departLane="1318793176#1_0" departPos="10.30" departSpeed="0.00" departDelay="0.00" arrival="54.00" arrivalLane="133126031#0_0" arrivalPos="110.18" arrivalSpeed="16.35" duration="24.00" routeLength="220.30" waitingTime="0.00" waitingCount="0" stopTime="0.00" timeLoss="10.18" rerouteNo="0" devices="tripinfo_flow_route_0_duration_20250327_2300.3" vType="car" speedFactor="1.03" vaporized=""/>
    <tripinfo id="flow_route_0_duration_20250327_2300.4" depart="40.00" departLane="1318793176#1_0" departPos="6.37" departSpeed="0.00" departDelay="0.00" arrival="72.00" arrivalLane="133126031#0_0" arrivalPos="222.19" arrivalSpeed="16.16" duration="32.00" routeLength="336.24" waitingTime="0.00" waitingCount="0" stopTime="0.00" timeLoss="10.56" rerouteNo="0" devices="tripinfo_flow_route_0_duration_20250327_2300.4" vType="car" speedFactor="0.93" vaporized=""/>
    <tripinfo id="flow_route_0_duration_20250327_2300.5" depart="50.00" departLane="1318793176#1_0" departPos="6.20" departSpeed="0.00" departDelay="0.00" arrival="75.00" arrivalLane="133126031#0_0" arrivalPos="102.35" arrivalSpeed="16.43" duration="25.00" routeLength="216.58" waitingTime="0.00" waitingCount="0" stopTime="0.00" timeLoss="10.99" rerouteNo="0" devices="tripinfo_flow_route_0_duration_20250327_2300.5" vType="car" speedFactor="0.94" vaporized=""/>
    <tripinfo id="flow_route_48_duration_20250327_2300.0" depart="2.00" departLane="380351865#0_0" departPos="1.03" departSpeed="0.00" departDelay="2.00" arrival="85.00" arrivalLane="133126031#0_0" arrivalPos="14.50" arrivalSpeed="8.79" duration="83.00" routeLength="180.64" waitingTime="48.00" waitingCount="1" stopTime="0.00" timeLoss="64.83" rerouteNo="0" devices="tripinfo_flow_route_48_duration_20250327_2300.0" vType="car" speedFactor="0.83" vaporized=""/>
    <tripinfo id="flow_route_47_duration_20250327_2300.0" depart="0.00" departLane="380351865#0_0" departPos="11.49" departSpeed="0.00" departDelay="0.00" arrival="89.00" arrivalLane="1318793173#0_1" arrivalPos="63.76" arrivalSpeed="11.46" duration="89.00" routeLength="213.71" waitingTime="54.00" waitingCount="1" stopTime="0.00" timeLoss="72.02" rerouteNo="0" devices="tripinfo_flow_route_47_duration_20250327_2300.0" vType="car" speedFactor="1.03" vaporized=""/>
    <tripinfo id="flow_route_47_duration_20250327_2300.1" depart="30.00" departLane="380351865#0_0" departPos="3.81" departSpeed="0.00" departDelay="0.00" arrival="89.00" arrivalLane="1318793173#0_1" arrivalPos="13.55" arrivalSpeed="9.12" duration="59.00" routeLength="171.18" waitingTime="25.00" waitingCount="1" stopTime="0.00" timeLoss="45.52" rerouteNo="0" devices="tripinfo_flow_route_47_duration_20250327_2300.1" vType="car" speedFactor="1.12" vaporized=""/>
    <tripinfo id="flow_route_49_duration_20250327_2300.0" depart="10.00" departLane="380351865#0_0" departPos="4.04" departSpeed="0.00" departDelay="10.00" arrival="98.00" arrivalLane="1318893695#0_0" arrivalPos="148.83" arrivalSpeed="15.87" duration="88.00" routeLength="288.67" waitingTime="44.00" waitingCount="1" stopTime="0.00" timeLoss="65.19" rerouteNo="0" devices="tripinfo_flow_route_49_duration_20250327_2300.0" vType="car" speedFactor="1.05" vaporized=""/>
    <tripinfo id="flow_route_48_duration_20250327_2300.1" depart="11.00" departLane="380351865#0_0" departPos="13.05" departSpeed="0.00" departDelay="1.00" arrival="99.00" arrivalLane="133126031#0_0" arrivalPos="181.01" arrivalSpeed="16.20" duration="88.00" routeLength="335.13" waitingTime="44.00" waitingCount="1" stopTime="0.00" timeLoss="63.01" rerouteNo="0" devices="tripinfo_flow_route_48_duration_20250327_2300.1" vType="car" speedFactor="0.94" vaporized=""/>
    <tripinfo id="flow_route_48_duration_20250327_2300.3" depart="34.00" departLane="380351865#0_0" departPos="1.52" departSpeed="0.00" departDelay="4.00" arrival="99.00" arrivalLane="133126031#0_0" arrivalPos="136.79" arrivalSpeed="16.39" duration="65.00" routeLength="302.44" waitingTime="24.00" waitingCount="1" stopTime="0.00" timeLoss="42.41" rerouteNo="0" devices="tripinfo_flow_route_48_duration_20250327_2300.3" vType="car" speedFactor="0.99" vaporized=""/>
    <tripinfo id="flow_route_48_duration_20250327_2300.5" depart="50.00" departLane="380351865#0_0" departPos="2.87" departSpeed="0.00" departDelay="0.00" arrival="103.00" arrivalLane="133126031#0_0" arrivalPos="163.80" arrivalSpeed="16.21" duration="53.00" routeLength="328.10" waitingTime="9.00" waitingCount="1" stopTime="0.00" timeLoss="28.16" rerouteNo="0" devices="tripinfo_flow_route_48_duration_20250327_2300.5" vType="car" speedFactor="0.94" vaporized=""/>
    <tripinfo id="flow_route_48_duration_20250327_2300.4" depart="42.00" departLane="380351865#0_0" departPos="16.39" departSpeed="0.00" departDelay="2.00" arrival="107.00" arrivalLane="133126031#0_1" arrivalPos="237.96" arrivalSpeed="16.32" duration="65.00" routeLength="388.74" waitingTime="17.00" waitingCount="1" stopTime="0.00" timeLoss="35.53" rerouteNo="0" devices="tripinfo_flow_route_48_duration_20250327_2300.4" vType="car" speedFactor="0.88" vaporized=""/>
    <tripinfo id="flow_route_48_duration_20250327_2300.2" depart="20.00" departLane="380351865#0_0" departPos="11.69" departSpeed="0.00" departDelay="0.00" arrival="108.00" arrivalLane="133126031#0_1" arrivalPos="318.11" arrivalSpeed="16.37" duration="88.00" routeLength="473.59" waitingTime="35.00" waitingCount="1" stopTime="0.00" timeLoss="56.40" rerouteNo="0" devices="tripinfo_flow_route_48_duration_20250327_2300.2" vType="car" speedFactor="1.09" vaporized=""/>
</tripinfos>
