<?xml version="1.0" encoding="UTF-8"?>

<!-- generated on 2025-05-06 21:08:52 by Eclipse SUMO sumo Version 1.20.0
<configuration xmlns:xsi="http://www.w3.org/2001/XMLSchema-instance" xsi:noNamespaceSchemaLocation="http://sumo.dlr.de/xsd/sumoConfiguration.xsd">

    <input>
        <net-file value="osm.net.xml"/>
        <route-files value="xml/route_rl_cluster_3839031475_3839031476_4110471700_4234582615_7.rou.xml"/>
    </input>

    <output>
        <tripinfo-output value="xml/tripinfo_rl_cluster_3839031475_3839031476_4110471700_4234582615_7.xml"/>
    </output>

    <traci_server>
        <remote-port value="55097"/>
    </traci_server>

</configuration>
-->

<tripinfos xmlns:xsi="http://www.w3.org/2001/XMLSchema-instance" xsi:noNamespaceSchemaLocation="http://sumo.dlr.de/xsd/tripinfo_file.xsd">
    <tripinfo id="flow_route_85_duration_20250327_1940.0" depart="0.00" departLane="1091883842_0" departPos="162.60" departSpeed="0.00" departDelay="0.00" arrival="15.00" arrivalLane="133000063_0" arrivalPos="42.63" arrivalSpeed="9.78" duration="15.00" routeLength="74.77" waitingTime="0.00" waitingCount="0" stopTime="0.00" timeLoss="8.92" rerouteNo="0" devices="tripinfo_flow_route_85_duration_20250327_1940.0" vType="car" speedFactor="0.89" vaporized=""/>
    <tripinfo id="flow_route_84_duration_20250327_1940.1" depart="2.00" departLane="1091883842_0" departPos="57.02" departSpeed="0.00" departDelay="0.07" arrival="24.00" arrivalLane="136617981_1" arrivalPos="13.09" arrivalSpeed="16.11" duration="22.00" routeLength="174.36" waitingTime="0.00" waitingCount="0" stopTime="0.00" timeLoss="10.69" rerouteNo="0" devices="tripinfo_flow_route_84_duration_20250327_1940.1" vType="car" speedFactor="1.09" vaporized=""/>
    <tripinfo id="flow_route_79_duration_20250327_1940.0" depart="0.00" departLane="380344611#0_0" departPos="128.21" departSpeed="0.00" departDelay="0.00" arrival="28.00" arrivalLane="423956929_1" arrivalPos="91.18" arrivalSpeed="16.56" duration="28.00" routeLength="278.79" waitingTime="0.00" waitingCount="0" stopTime="0.00" timeLoss="10.61" rerouteNo="0" devices="tripinfo_flow_route_79_duration_20250327_1940.0" vType="car" speedFactor="1.08" vaporized=""/>
    <tripinfo id="flow_route_79_duration_20250327_1940.1" depart="6.00" departLane="380344611#0_0" departPos="162.09" departSpeed="0.00" departDelay="0.00" arrival="28.00" arrivalLane="423956929_1" arrivalPos="23.26" arrivalSpeed="15.95" duration="22.00" routeLength="176.99" waitingTime="0.00" waitingCount="0" stopTime="0.00" timeLoss="10.88" rerouteNo="0" devices="tripinfo_flow_route_79_duration_20250327_1940.1" vType="car" speedFactor="1.02" vaporized=""/>
    <tripinfo id="flow_route_80_duration_20250327_1940.0" depart="0.00" departLane="380344611#0_0" departPos="160.58" departSpeed="0.00" departDelay="0.00" arrival="32.00" arrivalLane="380593307#0_0" arrivalPos="102.42" arrivalSpeed="14.08" duration="32.00" routeLength="234.46" waitingTime="0.00" waitingCount="0" stopTime="0.00" timeLoss="16.57" rerouteNo="0" devices="tripinfo_flow_route_80_duration_20250327_1940.0" vType="car" speedFactor="1.03" vaporized=""/>
    <tripinfo id="flow_route_80_duration_20250327_1940.3" depart="20.00" departLane="380344611#0_0" departPos="278.17" departSpeed="0.00" departDelay="2.00" arrival="35.00" arrivalLane="380593307#0_0" arrivalPos="67.82" arrivalSpeed="11.00" duration="15.00" routeLength="82.27" waitingTime="0.00" waitingCount="0" stopTime="0.00" timeLoss="9.07" rerouteNo="0" devices="tripinfo_flow_route_80_duration_20250327_1940.3" vType="car" speedFactor="1.00" vaporized=""/>
    <tripinfo id="flow_route_84_duration_20250327_1940.0" depart="0.00" departLane="1091883842_0" departPos="11.19" departSpeed="0.00" departDelay="0.00" arrival="38.00" arrivalLane="136617981_1" arrivalPos="210.65" arrivalSpeed="16.39" duration="38.00" routeLength="417.75" waitingTime="0.00" waitingCount="0" stopTime="0.00" timeLoss="11.90" rerouteNo="0" devices="tripinfo_flow_route_84_duration_20250327_1940.0" vType="car" speedFactor="1.05" vaporized=""/>
    <tripinfo id="flow_route_84_duration_20250327_1940.3" depart="6.00" departLane="1091883842_0" departPos="150.74" departSpeed="0.00" departDelay="0.20" arrival="38.00" arrivalLane="136617981_0" arrivalPos="273.37" arrivalSpeed="15.80" duration="32.00" routeLength="340.92" waitingTime="0.00" waitingCount="0" stopTime="0.00" timeLoss="10.64" rerouteNo="0" devices="tripinfo_flow_route_84_duration_20250327_1940.3" vType="car" speedFactor="0.97" vaporized=""/>
    <tripinfo id="flow_route_84_duration_20250327_1940.6" depart="13.00" departLane="1091883842_0" departPos="162.60" departSpeed="0.00" departDelay="1.39" arrival="38.00" arrivalLane="136617981_0" arrivalPos="174.34" arrivalSpeed="16.14" duration="25.00" routeLength="230.03" waitingTime="0.00" waitingCount="0" stopTime="0.00" timeLoss="10.60" rerouteNo="0" devices="tripinfo_flow_route_84_duration_20250327_1940.6" vType="car" speedFactor="1.03" vaporized=""/>
    <tripinfo id="flow_route_84_duration_20250327_1940.2" depart="5.00" departLane="1091883842_0" departPos="5.54" departSpeed="0.00" departDelay="1.13" arrival="40.00" arrivalLane="136617981_1" arrivalPos="154.27" arrivalSpeed="16.48" duration="35.00" routeLength="367.02" waitingTime="0.00" waitingCount="0" stopTime="0.00" timeLoss="11.96" rerouteNo="0" devices="tripinfo_flow_route_84_duration_20250327_1940.2" vType="car" speedFactor="0.99" vaporized=""/>
    <tripinfo id="flow_route_79_duration_20250327_1940.2" depart="12.00" departLane="380344611#0_0" departPos="165.89" departSpeed="0.00" departDelay="0.00" arrival="40.00" arrivalLane="423956929_0" arrivalPos="125.92" arrivalSpeed="16.23" duration="28.00" routeLength="275.84" waitingTime="0.00" waitingCount="0" stopTime="0.00" timeLoss="11.30" rerouteNo="0" devices="tripinfo_flow_route_79_duration_20250327_1940.2" vType="car" speedFactor="1.10" vaporized=""/>
    <tripinfo id="flow_route_84_duration_20250327_1940.8" depart="21.00" departLane="1091883842_0" departPos="148.19" departSpeed="0.00" departDelay="5.52" arrival="41.00" arrivalLane="136617981_0" arrivalPos="79.70" arrivalSpeed="13.99" duration="20.00" routeLength="149.80" waitingTime="0.00" waitingCount="0" stopTime="0.00" timeLoss="9.43" rerouteNo="0" devices="tripinfo_flow_route_84_duration_20250327_1940.8" vType="car" speedFactor="0.85" vaporized=""/>
    <tripinfo id="flow_route_81_duration_20250327_1940.0" depart="0.00" departLane="380344611#0_0" departPos="75.01" departSpeed="0.00" departDelay="0.00" arrival="46.00" arrivalLane="133000063_2" arrivalPos="7.51" arrivalSpeed="7.16" duration="46.00" routeLength="248.37" waitingTime="8.00" waitingCount="1" stopTime="0.00" timeLoss="27.04" rerouteNo="0" devices="tripinfo_flow_route_81_duration_20250327_1940.0" vType="car" speedFactor="0.83" vaporized=""/>
    <tripinfo id="flow_route_84_duration_20250327_1940.4" depart="8.00" departLane="1091883842_0" departPos="28.20" departSpeed="0.00" departDelay="0.26" arrival="46.00" arrivalLane="136617981_1" arrivalPos="139.60" arrivalSpeed="15.26" duration="38.00" routeLength="329.70" waitingTime="0.00" waitingCount="0" stopTime="0.00" timeLoss="15.82" rerouteNo="0" devices="tripinfo_flow_route_84_duration_20250327_1940.4" vType="car" speedFactor="0.92" vaporized=""/>
    <tripinfo id="flow_route_84_duration_20250327_1940.5" depart="11.00" departLane="1091883842_0" departPos="134.06" departSpeed="0.00" departDelay="1.33" arrival="46.00" arrivalLane="136617981_1" arrivalPos="281.23" arrivalSpeed="16.52" duration="35.00" routeLength="365.46" waitingTime="0.00" waitingCount="0" stopTime="0.00" timeLoss="12.09" rerouteNo="0" devices="tripinfo_flow_route_84_duration_20250327_1940.5" vType="car" speedFactor="1.15" vaporized=""/>
    <tripinfo id="flow_route_81_duration_20250327_1940.9" depart="22.00" departLane="380344611#0_0" departPos="241.40" departSpeed="0.00" departDelay="2.72" arrival="50.00" arrivalLane="133000063_2" arrivalPos="17.72" arrivalSpeed="8.80" duration="28.00" routeLength="92.19" waitingTime="4.00" waitingCount="1" stopTime="0.00" timeLoss="21.83" rerouteNo="0" devices="tripinfo_flow_route_81_duration_20250327_1940.9" vType="car" speedFactor="1.02" vaporized=""/>
    <tripinfo id="flow_route_80_duration_20250327_1940.2" depart="12.00" departLane="380344611#0_0" departPos="118.30" departSpeed="0.00" departDelay="0.00" arrival="51.00" arrivalLane="380593307#0_0" arrivalPos="73.48" arrivalSpeed="11.45" duration="39.00" routeLength="247.80" waitingTime="0.00" waitingCount="0" stopTime="0.00" timeLoss="21.26" rerouteNo="0" devices="tripinfo_flow_route_80_duration_20250327_1940.2" vType="car" speedFactor="0.90" vaporized=""/>
    <tripinfo id="flow_route_79_duration_20250327_1940.4" depart="24.00" departLane="380344611#0_0" departPos="126.08" departSpeed="0.00" departDelay="0.00" arrival="52.00" arrivalLane="423956929_1" arrivalPos="85.88" arrivalSpeed="15.90" duration="28.00" routeLength="275.62" waitingTime="0.00" waitingCount="0" stopTime="0.00" timeLoss="10.09" rerouteNo="0" devices="tripinfo_flow_route_79_duration_20250327_1940.4" vType="car" speedFactor="0.97" vaporized=""/>
    <tripinfo id="flow_route_80_duration_20250327_1940.1" depart="6.00" departLane="380344611#0_0" departPos="68.45" departSpeed="0.00" departDelay="0.00" arrival="53.00" arrivalLane="380593307#0_0" arrivalPos="71.41" arrivalSpeed="11.50" duration="47.00" routeLength="295.58" waitingTime="0.00" waitingCount="0" stopTime="0.00" timeLoss="28.48" rerouteNo="0" devices="tripinfo_flow_route_80_duration_20250327_1940.1" vType="car" speedFactor="1.01" vaporized=""/>
    <tripinfo id="flow_route_81_duration_20250327_1940.1" depart="3.00" departLane="380344611#0_0" departPos="112.46" departSpeed="0.00" departDelay="0.86" arrival="55.00" arrivalLane="133000063_2" arrivalPos="141.98" arrivalSpeed="16.44" duration="52.00" routeLength="345.39" waitingTime="8.00" waitingCount="1" stopTime="0.00" timeLoss="30.52" rerouteNo="0" devices="tripinfo_flow_route_81_duration_20250327_1940.1" vType="car" speedFactor="1.12" vaporized=""/>
    <tripinfo id="flow_route_80_duration_20250327_1940.5" depart="32.00" departLane="380344611#0_0" departPos="265.84" departSpeed="0.00" departDelay="2.00" arrival="55.00" arrivalLane="380593307#0_0" arrivalPos="170.54" arrivalSpeed="16.18" duration="23.00" routeLength="197.31" waitingTime="0.00" waitingCount="0" stopTime="0.00" timeLoss="10.10" rerouteNo="0" devices="tripinfo_flow_route_80_duration_20250327_1940.5" vType="car" speedFactor="1.02" vaporized=""/>
    <tripinfo id="flow_route_81_duration_20250327_1940.7" depart="15.00" departLane="380344611#0_0" departPos="187.67" departSpeed="0.00" departDelay="0.01" arrival="56.00" arrivalLane="133000063_2" arrivalPos="51.04" arrivalSpeed="10.81" duration="41.00" routeLength="179.24" waitingTime="3.00" waitingCount="1" stopTime="0.00" timeLoss="28.21" rerouteNo="0" devices="tripinfo_flow_route_81_duration_20250327_1940.7" vType="car" speedFactor="0.90" vaporized=""/>
    <tripinfo id="flow_route_79_duration_20250327_1940.6" depart="37.00" departLane="380344611#0_0" departPos="226.33" departSpeed="0.00" departDelay="1.00" arrival="57.00" arrivalLane="423956929_1" arrivalPos="59.20" arrivalSpeed="15.86" duration="20.00" routeLength="148.68" waitingTime="0.00" waitingCount="0" stopTime="0.00" timeLoss="10.13" rerouteNo="0" devices="tripinfo_flow_route_79_duration_20250327_1940.6" vType="car" speedFactor="1.03" vaporized=""/>
    <tripinfo id="flow_route_79_duration_20250327_1940.5" depart="32.00" departLane="380344611#0_0" departPos="87.87" departSpeed="0.00" departDelay="2.00" arrival="60.00" arrivalLane="423956929_2" arrivalPos="35.36" arrivalSpeed="16.13" duration="28.00" routeLength="263.31" waitingTime="0.00" waitingCount="0" stopTime="0.00" timeLoss="11.25" rerouteNo="0" devices="tripinfo_flow_route_79_duration_20250327_1940.5" vType="car" speedFactor="1.01" vaporized=""/>
    <tripinfo id="flow_route_81_duration_20250327_1940.21" depart="45.00" departLane="380344611#0_0" departPos="255.41" departSpeed="0.00" departDelay="0.02" arrival="61.00" arrivalLane="133000063_2" arrivalPos="19.37" arrivalSpeed="9.53" duration="16.00" routeLength="79.84" waitingTime="0.00" waitingCount="0" stopTime="0.00" timeLoss="9.87" rerouteNo="0" devices="tripinfo_flow_route_81_duration_20250327_1940.21" vType="car" speedFactor="0.96" vaporized=""/>
    <tripinfo id="flow_route_80_duration_20250327_1940.4" depart="24.00" departLane="380344611#0_0" departPos="103.93" departSpeed="0.00" departDelay="0.00" arrival="62.00" arrivalLane="380593307#0_0" arrivalPos="146.47" arrivalSpeed="15.55" duration="38.00" routeLength="335.16" waitingTime="0.00" waitingCount="0" stopTime="0.00" timeLoss="15.02" rerouteNo="0" devices="tripinfo_flow_route_80_duration_20250327_1940.4" vType="car" speedFactor="0.94" vaporized=""/>
    <tripinfo id="flow_route_81_duration_20250327_1940.13" depart="29.00" departLane="380344611#0_0" departPos="224.83" departSpeed="0.00" departDelay="1.15" arrival="64.00" arrivalLane="133000063_2" arrivalPos="69.47" arrivalSpeed="13.14" duration="35.00" routeLength="160.51" waitingTime="0.00" waitingCount="0" stopTime="0.00" timeLoss="23.55" rerouteNo="0" devices="tripinfo_flow_route_81_duration_20250327_1940.13" vType="car" speedFactor="0.97" vaporized=""/>
    <tripinfo id="flow_route_81_duration_20250327_1940.2" depart="5.00" departLane="380344611#0_0" departPos="93.95" departSpeed="0.00" departDelay="0.72" arrival="65.00" arrivalLane="133000063_2" arrivalPos="27.40" arrivalSpeed="10.32" duration="60.00" routeLength="249.33" waitingTime="3.00" waitingCount="2" stopTime="0.00" timeLoss="43.14" rerouteNo="0" devices="tripinfo_flow_route_81_duration_20250327_1940.2" vType="car" speedFactor="0.94" vaporized=""/>
    <tripinfo id="flow_route_79_duration_20250327_1940.3" depart="20.00" departLane="380344611#0_0" departPos="4.15" departSpeed="0.00" departDelay="2.00" arrival="67.00" arrivalLane="423956929_1" arrivalPos="7.90" arrivalSpeed="14.77" duration="47.00" routeLength="319.58" waitingTime="0.00" waitingCount="0" stopTime="0.00" timeLoss="27.75" rerouteNo="0" devices="tripinfo_flow_route_79_duration_20250327_1940.3" vType="car" speedFactor="1.00" vaporized=""/>
    <tripinfo id="flow_route_81_duration_20250327_1940.10" depart="22.00" departLane="380344611#0_0" departPos="232.34" departSpeed="0.00" departDelay="0.58" arrival="67.00" arrivalLane="133000063_2" arrivalPos="158.22" arrivalSpeed="14.58" duration="45.00" routeLength="241.75" waitingTime="4.00" waitingCount="3" stopTime="0.00" timeLoss="27.36" rerouteNo="0" devices="tripinfo_flow_route_81_duration_20250327_1940.10" vType="car" speedFactor="0.88" vaporized=""/>
    <tripinfo id="flow_route_79_duration_20250327_1940.7" depart="42.00" departLane="380344611#0_0" departPos="153.23" departSpeed="0.00" departDelay="0.00" arrival="74.00" arrivalLane="423956929_1" arrivalPos="183.45" arrivalSpeed="16.48" duration="32.00" routeLength="346.04" waitingTime="0.00" waitingCount="0" stopTime="0.00" timeLoss="11.01" rerouteNo="0" devices="tripinfo_flow_route_79_duration_20250327_1940.7" vType="car" speedFactor="1.06" vaporized=""/>
    <tripinfo id="flow_route_80_duration_20250327_1940.7" depart="42.00" departLane="380344611#0_0" departPos="193.60" departSpeed="0.00" departDelay="0.00" arrival="74.00" arrivalLane="380593307#0_0" arrivalPos="148.49" arrivalSpeed="16.28" duration="32.00" routeLength="247.51" waitingTime="0.00" waitingCount="0" stopTime="0.00" timeLoss="16.25" rerouteNo="0" devices="tripinfo_flow_route_80_duration_20250327_1940.7" vType="car" speedFactor="1.15" vaporized=""/>
    <tripinfo id="flow_route_79_duration_20250327_1940.8" depart="48.00" departLane="380344611#0_0" departPos="239.66" departSpeed="0.00" departDelay="0.00" arrival="74.00" arrivalLane="423956929_0" arrivalPos="158.83" arrivalSpeed="15.35" duration="26.00" routeLength="234.99" waitingTime="0.00" waitingCount="0" stopTime="0.00" timeLoss="10.28" rerouteNo="0" devices="tripinfo_flow_route_79_duration_20250327_1940.8" vType="car" speedFactor="0.94" vaporized=""/>
    <tripinfo id="flow_route_81_duration_20250327_1940.24" depart="52.00" departLane="380344611#0_0" departPos="265.04" departSpeed="0.00" departDelay="0.59" arrival="75.00" arrivalLane="133000063_2" arrivalPos="95.68" arrivalSpeed="13.56" duration="23.00" routeLength="146.51" waitingTime="0.00" waitingCount="0" stopTime="0.00" timeLoss="13.65" rerouteNo="0" devices="tripinfo_flow_route_81_duration_20250327_1940.24" vType="car" speedFactor="1.06" vaporized=""/>
    <tripinfo id="flow_route_81_duration_20250327_1940.12" depart="28.00" departLane="380344611#0_0" departPos="210.15" departSpeed="0.00" departDelay="2.30" arrival="77.00" arrivalLane="133000063_2" arrivalPos="33.65" arrivalSpeed="9.97" duration="49.00" routeLength="139.37" waitingTime="8.00" waitingCount="1" stopTime="0.00" timeLoss="40.09" rerouteNo="0" devices="tripinfo_flow_route_81_duration_20250327_1940.12" vType="car" speedFactor="1.09" vaporized=""/>
    <tripinfo id="flow_route_81_duration_20250327_1940.3" depart="7.00" departLane="380344611#0_0" departPos="87.28" departSpeed="0.00" departDelay="0.57" arrival="78.00" arrivalLane="133000063_2" arrivalPos="115.08" arrivalSpeed="13.56" duration="71.00" routeLength="343.67" waitingTime="3.00" waitingCount="3" stopTime="0.00" timeLoss="45.19" rerouteNo="0" devices="tripinfo_flow_route_81_duration_20250327_1940.3" vType="car" speedFactor="0.83" vaporized=""/>
    <tripinfo id="flow_route_80_duration_20250327_1940.6" depart="37.00" departLane="380344611#0_0" departPos="7.55" departSpeed="0.00" departDelay="1.00" arrival="79.00" arrivalLane="380593307#0_0" arrivalPos="113.38" arrivalSpeed="14.20" duration="42.00" routeLength="398.45" waitingTime="0.00" waitingCount="0" stopTime="0.00" timeLoss="17.22" rerouteNo="0" devices="tripinfo_flow_route_80_duration_20250327_1940.6" vType="car" speedFactor="1.06" vaporized=""/>
    <tripinfo id="flow_route_77_duration_20250327_1940.1" depart="9.00" departLane="133342692#0_0" departPos="93.74" departSpeed="0.00" departDelay="2.33" arrival="85.00" arrivalLane="423956929_0" arrivalPos="16.52" arrivalSpeed="7.31" duration="76.00" routeLength="105.30" waitingTime="52.00" waitingCount="1" stopTime="0.00" timeLoss="67.93" rerouteNo="0" devices="tripinfo_flow_route_77_duration_20250327_1940.1" vType="car" speedFactor="0.89" vaporized=""/>
    <tripinfo id="flow_route_81_duration_20250327_1940.6" depart="14.00" departLane="380344611#0_0" departPos="129.24" departSpeed="0.00" departDelay="1.15" arrival="85.00" arrivalLane="133000063_2" arrivalPos="168.25" arrivalSpeed="15.48" duration="71.00" routeLength="354.87" waitingTime="0.00" waitingCount="0" stopTime="0.00" timeLoss="47.67" rerouteNo="0" devices="tripinfo_flow_route_81_duration_20250327_1940.6" vType="car" speedFactor="0.96" vaporized=""/>
    <tripinfo id="flow_route_90_duration_20250327_1940.1" depart="7.00" departLane="380585338#0_0" departPos="103.53" departSpeed="0.00" departDelay="3.47" arrival="86.00" arrivalLane="136617981_0" arrivalPos="9.19" arrivalSpeed="8.10" duration="79.00" routeLength="92.72" waitingTime="52.00" waitingCount="1" stopTime="0.00" timeLoss="71.40" rerouteNo="0" devices="tripinfo_flow_route_90_duration_20250327_1940.1" vType="car" speedFactor="0.88" vaporized=""/>
    <tripinfo id="flow_route_89_duration_20250327_1940.7" depart="25.00" departLane="380585338#0_0" departPos="137.10" departSpeed="0.00" departDelay="14.23" arrival="88.00" arrivalLane="380593307#0_2" arrivalPos="35.97" arrivalSpeed="10.50" duration="63.00" routeLength="109.14" waitingTime="38.00" waitingCount="1" stopTime="0.00" timeLoss="56.35" rerouteNo="0" devices="tripinfo_flow_route_89_duration_20250327_1940.7" vType="car" speedFactor="0.99" vaporized=""/>
    <tripinfo id="flow_route_89_duration_20250327_1940.2" depart="6.00" departLane="380585338#0_0" departPos="45.86" departSpeed="0.00" departDelay="2.92" arrival="89.00" arrivalLane="380593307#0_1" arrivalPos="41.10" arrivalSpeed="12.17" duration="83.00" routeLength="205.51" waitingTime="47.00" waitingCount="1" stopTime="0.00" timeLoss="69.05" rerouteNo="0" devices="tripinfo_flow_route_89_duration_20250327_1940.2" vType="car" speedFactor="0.93" vaporized=""/>
    <tripinfo id="flow_route_76_duration_20250327_1940.1" depart="12.00" departLane="133342692#0_0" departPos="87.92" departSpeed="0.00" departDelay="0.00" arrival="89.00" arrivalLane="133000063_1" arrivalPos="49.96" arrivalSpeed="12.22" duration="77.00" routeLength="168.95" waitingTime="45.00" waitingCount="1" stopTime="0.00" timeLoss="66.21" rerouteNo="0" devices="tripinfo_flow_route_76_duration_20250327_1940.1" vType="car" speedFactor="0.97" vaporized=""/>
    <tripinfo id="flow_route_89_duration_20250327_1940.1" depart="2.00" departLane="380585338#0_0" departPos="110.00" departSpeed="0.00" departDelay="0.46" arrival="90.00" arrivalLane="380593307#0_1" arrivalPos="89.06" arrivalSpeed="13.83" duration="88.00" routeLength="189.32" waitingTime="57.00" waitingCount="1" stopTime="0.00" timeLoss="76.43" rerouteNo="0" devices="tripinfo_flow_route_89_duration_20250327_1940.1" vType="car" speedFactor="1.03" vaporized=""/>
    <tripinfo id="flow_route_77_duration_20250327_1940.0" depart="0.00" departLane="133342692#0_0" departPos="115.39" departSpeed="0.00" departDelay="0.00" arrival="91.00" arrivalLane="423956929_0" arrivalPos="132.19" arrivalSpeed="15.02" duration="91.00" routeLength="199.33" waitingTime="59.00" waitingCount="1" stopTime="0.00" timeLoss="77.10" rerouteNo="0" devices="tripinfo_flow_route_77_duration_20250327_1940.0" vType="car" speedFactor="0.94" vaporized=""/>
    <tripinfo id="flow_route_89_duration_20250327_1940.0" depart="0.00" departLane="380585338#0_0" departPos="55.91" departSpeed="0.00" departDelay="0.00" arrival="91.00" arrivalLane="380593307#0_2" arrivalPos="94.67" arrivalSpeed="14.28" duration="91.00" routeLength="249.03" waitingTime="52.00" waitingCount="1" stopTime="0.00" timeLoss="74.51" rerouteNo="0" devices="tripinfo_flow_route_89_duration_20250327_1940.0" vType="car" speedFactor="0.94" vaporized=""/>
    <tripinfo id="flow_route_89_duration_20250327_1940.8" depart="26.00" departLane="380585338#0_0" departPos="55.71" departSpeed="0.00" departDelay="13.70" arrival="91.00" arrivalLane="380593307#0_1" arrivalPos="4.14" arrivalSpeed="9.92" duration="65.00" routeLength="158.70" waitingTime="32.00" waitingCount="1" stopTime="0.00" timeLoss="55.37" rerouteNo="0" devices="tripinfo_flow_route_89_duration_20250327_1940.8" vType="car" speedFactor="1.09" vaporized=""/>
    <tripinfo id="flow_route_90_duration_20250327_1940.2" depart="20.00" departLane="380585338#0_0" departPos="142.58" departSpeed="0.00" departDelay="12.94" arrival="93.00" arrivalLane="136617981_0" arrivalPos="47.73" arrivalSpeed="11.11" duration="73.00" routeLength="92.21" waitingTime="49.00" waitingCount="1" stopTime="0.00" timeLoss="66.30" rerouteNo="0" devices="tripinfo_flow_route_90_duration_20250327_1940.2" vType="car" speedFactor="1.13" vaporized=""/>
    <tripinfo id="flow_route_89_duration_20250327_1940.6" depart="21.00" departLane="380585338#0_0" departPos="29.09" departSpeed="0.00" departDelay="11.77" arrival="94.00" arrivalLane="380593307#0_2" arrivalPos="54.49" arrivalSpeed="12.85" duration="73.00" routeLength="235.67" waitingTime="34.00" waitingCount="1" stopTime="0.00" timeLoss="58.33" rerouteNo="0" devices="tripinfo_flow_route_89_duration_20250327_1940.6" vType="car" speedFactor="1.01" vaporized=""/>
    <tripinfo id="flow_route_80_duration_20250327_1940.9" depart="59.00" departLane="380344611#0_0" departPos="168.76" departSpeed="0.00" departDelay="5.00" arrival="94.00" arrivalLane="380593307#0_0" arrivalPos="49.36" arrivalSpeed="8.82" duration="35.00" routeLength="173.22" waitingTime="4.00" waitingCount="1" stopTime="0.00" timeLoss="22.16" rerouteNo="0" devices="tripinfo_flow_route_80_duration_20250327_1940.9" vType="car" speedFactor="0.88" vaporized=""/>
    <tripinfo id="flow_route_76_duration_20250327_1940.0" depart="0.00" departLane="133342692#0_0" departPos="1.03" departSpeed="0.00" departDelay="0.00" arrival="95.00" arrivalLane="133000063_0" arrivalPos="153.47" arrivalSpeed="16.49" duration="95.00" routeLength="359.35" waitingTime="49.00" waitingCount="1" stopTime="0.00" timeLoss="72.54" rerouteNo="0" devices="tripinfo_flow_route_76_duration_20250327_1940.0" vType="car" speedFactor="1.06" vaporized=""/>
    <tripinfo id="flow_route_89_duration_20250327_1940.11" depart="33.00" departLane="380585338#0_0" departPos="5.47" departSpeed="0.00" departDelay="16.08" arrival="95.00" arrivalLane="380593307#0_2" arrivalPos="24.51" arrivalSpeed="11.78" duration="62.00" routeLength="229.31" waitingTime="26.00" waitingCount="1" stopTime="0.00" timeLoss="48.10" rerouteNo="0" devices="tripinfo_flow_route_89_duration_20250327_1940.11" vType="car" speedFactor="1.02" vaporized=""/>
    <tripinfo id="flow_route_89_duration_20250327_1940.3" depart="8.00" departLane="380585338#0_0" departPos="165.82" departSpeed="0.00" departDelay="3.39" arrival="96.00" arrivalLane="380593307#0_0" arrivalPos="166.07" arrivalSpeed="15.36" duration="88.00" routeLength="210.52" waitingTime="59.00" waitingCount="1" stopTime="0.00" timeLoss="73.56" rerouteNo="0" devices="tripinfo_flow_route_89_duration_20250327_1940.3" vType="car" speedFactor="0.94" vaporized=""/>
    <tripinfo id="flow_route_89_duration_20250327_1940.5" depart="13.00" departLane="380585338#0_0" departPos="52.57" departSpeed="0.00" departDelay="5.31" arrival="96.00" arrivalLane="380593307#0_2" arrivalPos="100.71" arrivalSpeed="14.86" duration="83.00" routeLength="258.41" waitingTime="37.00" waitingCount="2" stopTime="0.00" timeLoss="65.83" rerouteNo="0" devices="tripinfo_flow_route_89_duration_20250327_1940.5" vType="car" speedFactor="0.95" vaporized=""/>
    <tripinfo id="flow_route_77_duration_20250327_1940.2" depart="14.00" departLane="133342692#0_0" departPos="149.82" departSpeed="0.00" departDelay="0.67" arrival="96.00" arrivalLane="423956929_0" arrivalPos="171.60" arrivalSpeed="16.30" duration="82.00" routeLength="204.31" waitingTime="51.00" waitingCount="1" stopTime="0.00" timeLoss="68.35" rerouteNo="0" devices="tripinfo_flow_route_77_duration_20250327_1940.2" vType="car" speedFactor="1.04" vaporized=""/>
    <tripinfo id="flow_route_89_duration_20250327_1940.4" depart="11.00" departLane="380585338#0_0" departPos="8.13" departSpeed="0.00" departDelay="4.85" arrival="97.00" arrivalLane="380593307#0_1" arrivalPos="124.23" arrivalSpeed="14.26" duration="86.00" routeLength="326.36" waitingTime="41.00" waitingCount="1" stopTime="0.00" timeLoss="62.92" rerouteNo="0" devices="tripinfo_flow_route_89_duration_20250327_1940.4" vType="car" speedFactor="0.87" vaporized=""/>
    <tripinfo id="flow_route_89_duration_20250327_1940.9" depart="28.00" departLane="380585338#0_0" departPos="6.01" departSpeed="0.00" departDelay="14.16" arrival="97.00" arrivalLane="380593307#0_2" arrivalPos="73.80" arrivalSpeed="14.24" duration="69.00" routeLength="278.06" waitingTime="26.00" waitingCount="1" stopTime="0.00" timeLoss="51.76" rerouteNo="0" devices="tripinfo_flow_route_89_duration_20250327_1940.9" vType="car" speedFactor="1.09" vaporized=""/>
    <tripinfo id="flow_route_77_duration_20250327_1940.3" depart="20.00" departLane="133342692#0_0" departPos="82.76" departSpeed="0.00" departDelay="0.00" arrival="97.00" arrivalLane="423956929_0" arrivalPos="109.96" arrivalSpeed="15.15" duration="77.00" routeLength="209.73" waitingTime="42.00" waitingCount="1" stopTime="0.00" timeLoss="63.41" rerouteNo="0" devices="tripinfo_flow_route_77_duration_20250327_1940.3" vType="car" speedFactor="1.08" vaporized=""/>
    <tripinfo id="flow_route_89_duration_20250327_1940.15" depart="48.00" departLane="380585338#0_0" departPos="106.97" departSpeed="0.00" departDelay="24.93" arrival="97.00" arrivalLane="380593307#0_1" arrivalPos="26.62" arrivalSpeed="12.98" duration="49.00" routeLength="129.92" waitingTime="21.00" waitingCount="1" stopTime="0.00" timeLoss="40.62" rerouteNo="0" devices="tripinfo_flow_route_89_duration_20250327_1940.15" vType="car" speedFactor="0.98" vaporized=""/>
    <tripinfo id="flow_route_77_duration_20250327_1940.5" depart="36.00" departLane="133342692#0_0" departPos="112.38" departSpeed="0.00" departDelay="2.67" arrival="97.00" arrivalLane="423956929_0" arrivalPos="52.83" arrivalSpeed="10.72" duration="61.00" routeLength="122.97" waitingTime="33.00" waitingCount="1" stopTime="0.00" timeLoss="51.96" rerouteNo="0" devices="tripinfo_flow_route_77_duration_20250327_1940.5" vType="car" speedFactor="0.96" vaporized=""/>
    <tripinfo id="flow_route_89_duration_20250327_1940.10" depart="32.00" departLane="380585338#0_0" departPos="132.15" departSpeed="0.00" departDelay="16.62" arrival="98.00" arrivalLane="380593307#0_1" arrivalPos="123.65" arrivalSpeed="15.16" duration="66.00" routeLength="201.77" waitingTime="34.00" waitingCount="1" stopTime="0.00" timeLoss="53.76" rerouteNo="0" devices="tripinfo_flow_route_89_duration_20250327_1940.10" vType="car" speedFactor="1.17" vaporized=""/>
    <tripinfo id="flow_route_76_duration_20250327_1940.2" depart="24.00" departLane="133342692#0_0" departPos="123.98" departSpeed="0.00" departDelay="0.00" arrival="98.00" arrivalLane="133000063_0" arrivalPos="135.04" arrivalSpeed="16.53" duration="74.00" routeLength="217.98" waitingTime="43.00" waitingCount="1" stopTime="0.00" timeLoss="60.74" rerouteNo="0" devices="tripinfo_flow_route_76_duration_20250327_1940.2" vType="car" speedFactor="1.02" vaporized=""/>