<?xml version="1.0" encoding="UTF-8"?>

<!-- generated on 2025-05-06 21:07:41 by Eclipse SUMO sumo Version 1.20.0
<configuration xmlns:xsi="http://www.w3.org/2001/XMLSchema-instance" xsi:noNamespaceSchemaLocation="http://sumo.dlr.de/xsd/sumoConfiguration.xsd">

    <input>
        <net-file value="osm.net.xml"/>
        <route-files value="xml/route_rl_GS_cluster_1342409365_3839031467_0.rou.xml"/>
    </input>

    <output>
        <tripinfo-output value="xml/tripinfo_rl_GS_cluster_1342409365_3839031467_0.xml"/>
    </output>

    <traci_server>
        <remote-port value="44397"/>
    </traci_server>

</configuration>
-->

<tripinfos xmlns:xsi="http://www.w3.org/2001/XMLSchema-instance" xsi:noNamespaceSchemaLocation="http://sumo.dlr.de/xsd/tripinfo_file.xsd">
    <tripinfo id="flow_route_128_duration_20250327_2010.0" depart="0.00" departLane="134133272_0" departPos="226.49" departSpeed="0.00" departDelay="0.00" arrival="31.00" arrivalLane="380585338#0_0" arrivalPos="7.57" arrivalSpeed="5.61" duration="31.00" routeLength="279.28" waitingTime="0.00" waitingCount="0" stopTime="0.00" timeLoss="10.64" rerouteNo="0" devices="tripinfo_flow_route_128_duration_20250327_2010.0" vType="car" speedFactor="0.83" vaporized=""/>
    <tripinfo id="flow_route_92_duration_20250327_2010.1" depart="3.00" departLane="133000063_0" departPos="109.11" departSpeed="0.00" departDelay="0.60" arrival="40.00" arrivalLane="186409193_0" arrivalPos="29.97" arrivalSpeed="15.96" duration="37.00" routeLength="312.72" waitingTime="0.00" waitingCount="0" stopTime="0.00" timeLoss="16.83" rerouteNo="0" devices="tripinfo_flow_route_92_duration_20250327_2010.1" vType="car" speedFactor="1.09" vaporized=""/>
    <tripinfo id="flow_route_92_duration_20250327_2010.2" depart="5.00" departLane="133000063_0" departPos="40.77" departSpeed="0.00" departDelay="0.20" arrival="47.00" arrivalLane="186409193_0" arrivalPos="51.86" arrivalSpeed="16.45" duration="42.00" routeLength="402.94" waitingTime="0.00" waitingCount="0" stopTime="0.00" timeLoss="16.45" rerouteNo="0" devices="tripinfo_flow_route_92_duration_20250327_2010.2" vType="car" speedFactor="1.05" vaporized=""/>
    <tripinfo id="flow_route_91_duration_20250327_2010.0" depart="0.00" departLane="133000063_0" departPos="128.34" departSpeed="0.00" departDelay="0.00" arrival="48.00" arrivalLane="683079387#1_1" arrivalPos="9.10" arrivalSpeed="16.44" duration="48.00" routeLength="599.49" waitingTime="0.00" waitingCount="0" stopTime="0.00" timeLoss="11.81" rerouteNo="0" devices="tripinfo_flow_route_91_duration_20250327_2010.0" vType="car" speedFactor="1.06" vaporized=""/>
    <tripinfo id="flow_route_92_duration_20250327_2010.0" depart="0.00" departLane="133000063_0" departPos="1.04" departSpeed="0.00" departDelay="0.00" arrival="49.00" arrivalLane="186409193_0" arrivalPos="41.62" arrivalSpeed="15.46" duration="49.00" routeLength="432.44" waitingTime="0.00" waitingCount="0" stopTime="0.00" timeLoss="20.09" rerouteNo="0" devices="tripinfo_flow_route_92_duration_20250327_2010.0" vType="car" speedFactor="0.94" vaporized=""/>
    <tripinfo id="flow_route_103_duration_20250327_2010.0" depart="1.00" departLane="1342963997_0" departPos="57.81" departSpeed="0.00" departDelay="1.00" arrival="50.00" arrivalLane="683079387#1_0" arrivalPos="6.02" arrivalSpeed="16.56" duration="49.00" routeLength="524.42" waitingTime="0.00" waitingCount="0" stopTime="0.00" timeLoss="16.03" rerouteNo="0" devices="tripinfo_flow_route_103_duration_20250327_2010.0" vType="car" speedFactor="1.03" vaporized=""/>
    <tripinfo id="flow_route_128_duration_20250327_2010.1" depart="20.00" departLane="134133272_0" departPos="169.28" departSpeed="0.00" departDelay="0.00" arrival="64.00" arrivalLane="380585338#0_0" arrivalPos="50.36" arrivalSpeed="10.00" duration="44.00" routeLength="379.29" waitingTime="0.00" waitingCount="0" stopTime="0.00" timeLoss="20.52" rerouteNo="0" devices="tripinfo_flow_route_128_duration_20250327_2010.1" vType="car" speedFactor="1.10" vaporized=""/>
    <tripinfo id="flow_route_145_duration_20250327_2010.0" depart="0.00" departLane="683079388#0_0" departPos="22.61" departSpeed="0.00" departDelay="0.00" arrival="68.00" arrivalLane="380585336_0" arrivalPos="229.76" arrivalSpeed="15.56" duration="68.00" routeLength="831.39" waitingTime="0.00" waitingCount="0" stopTime="0.00" timeLoss="15.56" rerouteNo="0" devices="tripinfo_flow_route_145_duration_20250327_2010.0" vType="car" speedFactor="0.94" vaporized=""/>
    <tripinfo id="flow_route_93_duration_20250327_2010.0" depart="0.00" departLane="133000063_0" departPos="115.92" departSpeed="0.00" departDelay="0.00" arrival="69.00" arrivalLane="380585336_1" arrivalPos="19.16" arrivalSpeed="16.12" duration="69.00" routeLength="758.54" waitingTime="0.00" waitingCount="0" stopTime="0.00" timeLoss="22.61" rerouteNo="0" devices="tripinfo_flow_route_93_duration_20250327_2010.0" vType="car" speedFactor="1.01" vaporized=""/>
    <tripinfo id="flow_route_102_duration_20250327_2010.0" depart="0.00" departLane="1342963997_0" departPos="83.70" departSpeed="0.00" departDelay="0.00" arrival="69.00" arrivalLane="380585336_1" arrivalPos="207.08" arrivalSpeed="16.11" duration="69.00" routeLength="834.32" waitingTime="0.00" waitingCount="0" stopTime="0.00" timeLoss="17.96" rerouteNo="0" devices="tripinfo_flow_route_102_duration_20250327_2010.0" vType="car" speedFactor="1.08" vaporized=""/>
    <tripinfo id="flow_route_93_duration_20250327_2010.3" depart="7.00" departLane="133000063_0" departPos="164.76" departSpeed="0.00" departDelay="1.55" arrival="74.00" arrivalLane="380585336_1" arrivalPos="127.15" arrivalSpeed="16.49" duration="67.00" routeLength="817.68" waitingTime="0.00" waitingCount="0" stopTime="0.00" timeLoss="16.84" rerouteNo="0" devices="tripinfo_flow_route_93_duration_20250327_2010.3" vType="car" speedFactor="0.99" vaporized=""/>
    <tripinfo id="flow_route_129_duration_20250327_2010.0" depart="0.00" departLane="134133272_0" departPos="105.80" departSpeed="0.00" departDelay="0.00" arrival="83.00" arrivalLane="683079387#1_0" arrivalPos="7.59" arrivalSpeed="16.28" duration="83.00" routeLength="945.90" waitingTime="1.00" waitingCount="1" stopTime="0.00" timeLoss="25.48" rerouteNo="0" devices="tripinfo_flow_route_129_duration_20250327_2010.0" vType="car" speedFactor="1.05" vaporized=""/>
    <tripinfo id="flow_route_144_duration_20250327_2010.2" depart="9.00" departLane="683079388#0_0" departPos="24.90" departSpeed="0.00" departDelay="0.43" arrival="88.00" arrivalLane="380585338#0_0" arrivalPos="21.77" arrivalSpeed="8.22" duration="79.00" routeLength="576.61" waitingTime="19.00" waitingCount="1" stopTime="0.00" timeLoss="41.97" rerouteNo="0" devices="tripinfo_flow_route_144_duration_20250327_2010.2" vType="car" speedFactor="0.94" vaporized=""/>
    <tripinfo id="flow_route_144_duration_20250327_2010.0" depart="0.00" departLane="683079388#0_0" departPos="1.56" departSpeed="0.00" departDelay="0.00" arrival="89.00" arrivalLane="380585338#0_0" arrivalPos="42.98" arrivalSpeed="9.34" duration="89.00" routeLength="621.16" waitingTime="26.00" waitingCount="1" stopTime="0.00" timeLoss="46.55" rerouteNo="0" devices="tripinfo_flow_route_144_duration_20250327_2010.0" vType="car" speedFactor="0.89" vaporized=""/>
    <tripinfo id="flow_route_129_duration_20250327_2010.1" depart="30.00" departLane="134133272_0" departPos="270.11" departSpeed="0.00" departDelay="0.00" arrival="89.00" arrivalLane="683079387#1_0" arrivalPos="9.01" arrivalSpeed="16.32" duration="59.00" routeLength="783.00" waitingTime="0.00" waitingCount="0" stopTime="0.00" timeLoss="10.74" rerouteNo="0" devices="tripinfo_flow_route_129_duration_20250327_2010.1" vType="car" speedFactor="1.10" vaporized=""/>
    <tripinfo id="flow_route_144_duration_20250327_2010.8" depart="43.00" departLane="683079388#0_0" departPos="3.34" departSpeed="0.00" departDelay="8.72" arrival="90.00" arrivalLane="380585338#0_1" arrivalPos="2.54" arrivalSpeed="13.10" duration="47.00" routeLength="578.94" waitingTime="0.00" waitingCount="0" stopTime="0.00" timeLoss="11.99" rerouteNo="0" devices="tripinfo_flow_route_144_duration_20250327_2010.8" vType="car" speedFactor="1.02" vaporized=""/>
    <tripinfo id="flow_route_144_duration_20250327_2010.1" depart="5.00" departLane="683079388#0_0" departPos="0.84" departSpeed="0.00" departDelay="0.72" arrival="91.00" arrivalLane="380585338#0_0" arrivalPos="68.87" arrivalSpeed="12.26" duration="86.00" routeLength="647.77" waitingTime="23.00" waitingCount="1" stopTime="0.00" timeLoss="46.26" rerouteNo="0" devices="tripinfo_flow_route_144_duration_20250327_2010.1" vType="car" speedFactor="1.12" vaporized=""/>
    <tripinfo id="flow_route_144_duration_20250327_2010.4" depart="18.00" departLane="683079388#0_0" departPos="2.22" departSpeed="0.00" departDelay="0.86" arrival="91.00" arrivalLane="380585338#0_1" arrivalPos="54.50" arrivalSpeed="11.20" duration="73.00" routeLength="632.02" waitingTime="12.00" waitingCount="1" stopTime="0.00" timeLoss="34.59" rerouteNo="0" devices="tripinfo_flow_route_144_duration_20250327_2010.4" vType="car" speedFactor="1.01" vaporized=""/>
    <tripinfo id="flow_route_93_duration_20250327_2010.6" depart="26.00" departLane="133000063_0" departPos="150.51" departSpeed="0.00" departDelay="15.09" arrival="92.00" arrivalLane="380585336_1" arrivalPos="101.71" arrivalSpeed="16.08" duration="66.00" routeLength="806.49" waitingTime="0.00" waitingCount="0" stopTime="0.00" timeLoss="16.43" rerouteNo="0" devices="tripinfo_flow_route_93_duration_20250327_2010.6" vType="car" speedFactor="0.97" vaporized=""/>
    <tripinfo id="flow_route_93_duration_20250327_2010.2" depart="5.00" departLane="133000063_0" departPos="93.75" departSpeed="0.00" departDelay="1.36" arrival="94.00" arrivalLane="380585336_0" arrivalPos="395.67" arrivalSpeed="16.32" duration="89.00" routeLength="1157.21" waitingTime="0.00" waitingCount="0" stopTime="0.00" timeLoss="18.88" rerouteNo="0" devices="tripinfo_flow_route_93_duration_20250327_2010.2" vType="car" speedFactor="1.03" vaporized=""/>
    <tripinfo id="flow_route_144_duration_20250327_2010.7" depart="36.00" departLane="683079388#0_0" departPos="8.93" departSpeed="0.00" departDelay="6.01" arrival="94.00" arrivalLane="380585338#0_1" arrivalPos="64.53" arrivalSpeed="11.65" duration="58.00" routeLength="635.34" waitingTime="0.00" waitingCount="0" stopTime="0.00" timeLoss="19.19" rerouteNo="0" devices="tripinfo_flow_route_144_duration_20250327_2010.7" vType="car" speedFactor="1.00" vaporized=""/>
    <tripinfo id="flow_route_93_duration_20250327_2010.1" depart="3.00" departLane="133000063_0" departPos="52.89" departSpeed="0.00" departDelay="1.18" arrival="96.00" arrivalLane="380585336_0" arrivalPos="288.04" arrivalSpeed="14.18" duration="93.00" routeLength="1090.45" waitingTime="0.00" waitingCount="0" stopTime="0.00" timeLoss="17.38" rerouteNo="0" devices="tripinfo_flow_route_93_duration_20250327_2010.1" vType="car" speedFactor="0.86" vaporized=""/>
    <tripinfo id="flow_route_144_duration_20250327_2010.3" depart="13.00" departLane="683079388#0_0" departPos="7.95" departSpeed="0.00" departDelay="0.15" arrival="97.00" arrivalLane="380585338#0_2" arrivalPos="162.37" arrivalSpeed="15.09" duration="84.00" routeLength="734.16" waitingTime="13.00" waitingCount="1" stopTime="0.00" timeLoss="35.84" rerouteNo="0" devices="tripinfo_flow_route_144_duration_20250327_2010.3" vType="car" speedFactor="0.92" vaporized=""/>
    <tripinfo id="flow_route_144_duration_20250327_2010.5" depart="23.00" departLane="683079388#0_0" departPos="0.62" departSpeed="0.00" departDelay="1.58" arrival="97.00" arrivalLane="380585338#0_0" arrivalPos="101.59" arrivalSpeed="13.38" duration="74.00" routeLength="680.71" waitingTime="7.00" waitingCount="1" stopTime="0.00" timeLoss="31.23" rerouteNo="0" devices="tripinfo_flow_route_144_duration_20250327_2010.5" vType="car" speedFactor="0.96" vaporized=""/>
    <tripinfo id="flow_route_144_duration_20250327_2010.6" depart="29.00" departLane="683079388#0_0" departPos="3.21" departSpeed="0.00" departDelay="3.29" arrival="97.00" arrivalLane="380585338#0_2" arrivalPos="123.42" arrivalSpeed="15.58" duration="68.00" routeLength="699.95" waitingTime="0.00" waitingCount="0" stopTime="0.00" timeLoss="25.04" rerouteNo="0" devices="tripinfo_flow_route_144_duration_20250327_2010.6" vType="car" speedFactor="1.00" vaporized=""/>
    <tripinfo id="flow_route_144_duration_20250327_2010.10" depart="52.00" departLane="683079388#0_0" departPos="24.32" departSpeed="0.00" departDelay="9.15" arrival="100.00" arrivalLane="380585338#0_0" arrivalPos="27.37" arrivalSpeed="16.37" duration="48.00" routeLength="582.79" waitingTime="0.00" waitingCount="0" stopTime="0.00" timeLoss="11.65" rerouteNo="0" devices="tripinfo_flow_route_144_duration_20250327_2010.10" vType="car" speedFactor="0.98" vaporized=""/>
    <tripinfo id="flow_route_144_duration_20250327_2010.9" depart="51.00" departLane="683079388#0_0" departPos="10.18" departSpeed="0.00" departDelay="12.44" arrival="101.00" arrivalLane="380585338#0_0" arrivalPos="19.86" arrivalSpeed="16.10" duration="50.00" routeLength="589.41" waitingTime="0.00" waitingCount="0" stopTime="0.00" timeLoss="13.76" rerouteNo="0" devices="tripinfo_flow_route_144_duration_20250327_2010.9" vType="car" speedFactor="1.04" vaporized=""/>
    <tripinfo id="flow_route_92_duration_20250327_2010.4" depart="21.00" departLane="133000063_0" departPos="105.95" departSpeed="0.00" departDelay="11.40" arrival="103.00" arrivalLane="186409193_0" arrivalPos="13.04" arrivalSpeed="13.91" duration="82.00" routeLength="298.95" waitingTime="37.00" waitingCount="1" stopTime="0.00" timeLoss="63.35" rerouteNo="0" devices="tripinfo_flow_route_92_duration_20250327_2010.4" vType="car" speedFactor="1.02" vaporized=""/>
    <tripinfo id="flow_route_103_duration_20250327_2010.1" depart="12.00" departLane="1342963997_0" departPos="107.06" departSpeed="0.00" departDelay="0.00" arrival="103.00" arrivalLane="683079387#1_0" arrivalPos="6.82" arrivalSpeed="13.74" duration="91.00" routeLength="475.97" waitingTime="35.00" waitingCount="2" stopTime="0.00" timeLoss="55.77" rerouteNo="0" devices="tripinfo_flow_route_103_duration_20250327_2010.1" vType="car" speedFactor="0.83" vaporized=""/>
    <tripinfo id="flow_route_103_duration_20250327_2010.2" depart="24.00" departLane="1342963997_0" departPos="166.08" departSpeed="0.00" departDelay="0.00" arrival="104.00" arrivalLane="683079387#1_0" arrivalPos="8.94" arrivalSpeed="14.60" duration="80.00" routeLength="419.07" waitingTime="28.00" waitingCount="3" stopTime="0.00" timeLoss="54.30" rerouteNo="0" devices="tripinfo_flow_route_103_duration_20250327_2010.2" vType="car" speedFactor="1.04" vaporized=""/>
    <tripinfo id="flow_route_144_duration_20250327_2010.11" depart="55.00" departLane="683079388#0_0" departPos="8.00" departSpeed="0.00" departDelay="7.87" arrival="107.00" arrivalLane="380585338#0_1" arrivalPos="98.91" arrivalSpeed="16.41" duration="52.00" routeLength="670.65" waitingTime="0.00" waitingCount="0" stopTime="0.00" timeLoss="11.01" rerouteNo="0" devices="tripinfo_flow_route_144_duration_20250327_2010.11" vType="car" speedFactor="1.15" vaporized=""/>
    <tripinfo id="flow_route_102_duration_20250327_2010.2" depart="16.00" departLane="1342963997_0" departPos="166.65" departSpeed="0.00" departDelay="2.67" arrival="108.00" arrivalLane="380585336_1" arrivalPos="207.55" arrivalSpeed="15.66" duration="92.00" routeLength="751.85" waitingTime="25.00" waitingCount="1" stopTime="0.00" timeLoss="44.14" rerouteNo="0" devices="tripinfo_flow_route_102_duration_20250327_2010.2" vType="car" speedFactor="0.95" vaporized=""/>
    <tripinfo id="flow_route_144_duration_20250327_2010.12" depart="58.00" departLane="683079388#0_0" departPos="7.35" departSpeed="0.00" departDelay="6.58" arrival="109.00" arrivalLane="380585338#0_0" arrivalPos="91.74" arrivalSpeed="16.14" duration="51.00" routeLength="664.13" waitingTime="0.00" waitingCount="0" stopTime="0.00" timeLoss="10.11" rerouteNo="0" devices="tripinfo_flow_route_144_duration_20250327_2010.12" vType="car" speedFactor="1.02" vaporized=""/>
    <tripinfo id="flow_route_144_duration_20250327_2010.13" depart="64.00" departLane="683079388#0_0" departPos="5.58" departSpeed="0.00" departDelay="8.30" arrival="110.00" arrivalLane="380585338#0_0" arrivalPos="2.31" arrivalSpeed="16.11" duration="46.00" routeLength="576.47" waitingTime="0.00" waitingCount="0" stopTime="0.00" timeLoss="10.97" rerouteNo="0" devices="tripinfo_flow_route_144_duration_20250327_2010.13" vType="car" speedFactor="1.06" vaporized=""/>
    <tripinfo id="flow_route_92_duration_20250327_2010.3" depart="16.00" departLane="133000063_0" departPos="4.79" departSpeed="0.00" departDelay="8.80" arrival="113.00" arrivalLane="186409193_0" arrivalPos="40.02" arrivalSpeed="14.41" duration="97.00" routeLength="427.09" waitingTime="22.00" waitingCount="2" stopTime="0.00" timeLoss="66.88" rerouteNo="0" devices="tripinfo_flow_route_92_duration_20250327_2010.3" vType="car" speedFactor="0.88" vaporized=""/>
    <tripinfo id="flow_route_103_duration_20250327_2010.3" depart="36.00" departLane="1342963997_0" departPos="84.44" departSpeed="0.00" departDelay="0.00" arrival="115.00" arrivalLane="683079387#1_0" arrivalPos="9.22" arrivalSpeed="15.48" duration="79.00" routeLength="500.99" waitingTime="12.00" waitingCount="2" stopTime="0.00" timeLoss="46.45" rerouteNo="0" devices="tripinfo_flow_route_103_duration_20250327_2010.3" vType="car" speedFactor="0.94" vaporized=""/>
    <tripinfo id="flow_route_103_duration_20250327_2010.4" depart="48.00" departLane="1342963997_0" departPos="119.61" departSpeed="0.00" departDelay="0.00" arrival="116.00" arrivalLane="683079387#1_0" arrivalPos="0.86" arrivalSpeed="15.63" duration="68.00" routeLength="457.47" waitingTime="9.00" waitingCount="1" stopTime="0.00" timeLoss="38.46" rerouteNo="0" devices="tripinfo_flow_route_103_duration_20250327_2010.4" vType="car" speedFactor="0.97" vaporized=""/>
    <tripinfo id="flow_route_145_duration_20250327_2010.1" depart="41.00" departLane="683079388#0_0" departPos="8.35" departSpeed="0.00" departDelay="11.00" arrival="118.00" arrivalLane="380585336_0" arrivalPos="202.26" arrivalSpeed="16.25" duration="77.00" routeLength="818.15" waitingTime="4.00" waitingCount="1" stopTime="0.00" timeLoss="27.49" rerouteNo="0" devices="tripinfo_flow_route_145_duration_20250327_2010.1" vType="car" speedFactor="1.00" vaporized=""/>
    <tripinfo id="flow_route_92_duration_20250327_2010.5" depart="30.00" departLane="133000063_0" departPos="7.34" departSpeed="0.00" departDelay="18.00" arrival="124.00" arrivalLane="186409193_0" arrivalPos="5.20" arrivalSpeed="12.37" duration="94.00" routeLength="389.72" waitingTime="19.00" waitingCount="2" stopTime="0.00" timeLoss="66.73" rerouteNo="0" devices="tripinfo_flow_route_92_duration_20250327_2010.5" vType="car" speedFactor="0.89" vaporized=""/>
    <tripinfo id="flow_route_92_duration_20250327_2010.6" depart="33.00" departLane="133000063_0" departPos="65.36" departSpeed="0.00" departDelay="18.60" arrival="125.00" arrivalLane="186409193_0" arrivalPos="55.79" arrivalSpeed="15.85" duration="92.00" routeLength="382.29" waitingTime="25.00" waitingCount="2" stopTime="0.00" timeLoss="68.04" rerouteNo="0" devices="tripinfo_flow_route_92_duration_20250327_2010.6" vType="car" speedFactor="1.13" vaporized=""/>
    <tripinfo id="flow_route_91_duration_20250327_2010.1" depart="19.00" departLane="133000063_0" departPos="35.68" departSpeed="0.00" departDelay="9.00" arrival="126.00" arrivalLane="683079387#1_0" arrivalPos="2.70" arrivalSpeed="16.45" duration="107.00" routeLength="685.74" waitingTime="33.00" waitingCount="1" stopTime="0.00" timeLoss="65.27" rerouteNo="0" devices="tripinfo_flow_route_91_duration_20250327_2010.1" vType="car" speedFactor="1.16" vaporized=""/>
    <tripinfo id="flow_route_92_duration_20250327_2010.10" depart="52.00" departLane="133000063_0" departPos="99.76" departSpeed="0.00" departDelay="28.00" arrival="128.00" arrivalLane="186409193_0" arrivalPos="17.69" arrivalSpeed="13.97" duration="76.00" routeLength="309.79" waitingTime="14.00" waitingCount="1" stopTime="0.00" timeLoss="56.52" rerouteNo="0" devices="tripinfo_flow_route_92_duration_20250327_2010.10" vType="car" speedFactor="1.09" vaporized=""/>
    <tripinfo id="flow_route_102_duration_20250327_2010.1" depart="7.00" departLane="1342963997_0" departPos="5.36" departSpeed="0.00" departDelay="0.33" arrival="129.00" arrivalLane="380585336_1" arrivalPos="67.04" arrivalSpeed="14.96" duration="122.00" routeLength="772.64" waitingTime="28.00" waitingCount="2" stopTime="0.00" timeLoss="72.56" rerouteNo="0" devices="tripinfo_flow_route_102_duration_20250327_2010.1" vType="car" speedFactor="0.93" vaporized=""/>
    <tripinfo id="flow_route_92_duration_20250327_2010.7" depart="37.00" departLane="133000063_0" departPos="0.15" departSpeed="0.00" departDelay="20.20" arrival="129.00" arrivalLane="186409193_0" arrivalPos="3.91" arrivalSpeed="13.93" duration="92.00" routeLength="395.63" waitingTime="5.00" waitingCount="2" stopTime="0.00" timeLoss="67.07" rerouteNo="0" devices="tripinfo_flow_route_92_duration_20250327_2010.7" vType="car" speedFactor="1.18" vaporized=""/>
    <tripinfo id="flow_route_102_duration_20250327_2010.3" depart="20.00" departLane="1342963997_0" departPos="121.86" departSpeed="0.00" departDelay="0.00" arrival="130.00" arrivalLane="380585336_1" arrivalPos="148.25" arrivalSpeed="16.54" duration="110.00" routeLength="737.34" waitingTime="31.00" waitingCount="3" stopTime="0.00" timeLoss="64.23" rerouteNo="0" devices="tripinfo_flow_route_102_duration_20250327_2010.3" vType="car" speedFactor="1.18" vaporized=""/>
    <tripinfo id="flow_route_128_duration_20250327_2010.2" depart="40.00" departLane="134133272_0" departPos="83.00" departSpeed="0.00" departDelay="0.00" arrival="130.00" arrivalLane="380585338#0_0" arrivalPos="136.15" arrivalSpeed="14.62" duration="90.00" routeLength="551.35" waitingTime="31.00" waitingCount="1" stopTime="0.00" timeLoss="53.84" rerouteNo="0" devices="tripinfo_flow_route_128_duration_20250327_2010.2" vType="car" speedFactor="0.94" vaporized=""/>
    <tripinfo id="flow_route_92_duration_20250327_2010.9" depart="49.00" departLane="133000063_0" departPos="78.49" departSpeed="0.00" departDelay="27.40" arrival="133.00" arrivalLane="186409193_0" arrivalPos="29.96" arrivalSpeed="14.27" duration="84.00" routeLength="343.33" waitingTime="5.00" waitingCount="1" stopTime="0.00" timeLoss="60.58" rerouteNo="0" devices="tripinfo_flow_route_92_duration_20250327_2010.9" vType="car" speedFactor="0.90" vaporized=""/>
    <tripinfo id="flow_route_91_duration_20250327_2010.3" depart="73.00" departLane="133000063_0" departPos="61.50" departSpeed="0.00" departDelay="43.00" arrival="133.00" arrivalLane="683079387#1_1" arrivalPos="7.28" arrivalSpeed="16.11" duration="60.00" routeLength="664.52" waitingTime="0.00" waitingCount="0" stopTime="0.00" timeLoss="19.18" rerouteNo="0" devices="tripinfo_flow_route_91_duration_20250327_2010.3" vType="car" speedFactor="1.17" vaporized=""/>
    <tripinfo id="flow_route_92_duration_20250327_2010.11" depart="64.00" departLane="133000063_0" departPos="50.55" departSpeed="0.00" departDelay="37.60" arrival="135.00" arrivalLane="186409193_0" arrivalPos="17.31" arrivalSpeed="13.46" duration="71.00" routeLength="358.63" waitingTime="0.00" waitingCount="0" stopTime="0.00" timeLoss="46.01" rerouteNo="0" devices="tripinfo_flow_route_92_duration_20250327_2010.11" vType="car" speedFactor="0.90" vaporized=""/>
    <tripinfo id="flow_route_92_duration_20250327_2010.8" depart="48.00" departLane="133000063_0" departPos="5.96" departSpeed="0.00" departDelay="28.80" arrival="137.00" arrivalLane="186409193_0" arrivalPos="4.67" arrivalSpeed="13.51" duration="89.00" routeLength="390.57" waitingTime="3.00" waitingCount="2" stopTime="0.00" timeLoss="64.64" rerouteNo="0" devices="tripinfo_flow_route_92_duration_20250327_2010.8" vType="car" speedFactor="1.02" vaporized=""/>
    <tripinfo id="flow_route_91_duration_20250327_2010.2" depart="46.00" departLane="133000063_0" departPos="80.23" departSpeed="0.00" departDelay="26.00" arrival="139.00" arrivalLane="683079387#1_1" arrivalPos="0.48" arrivalSpeed="16.38" duration="93.00" routeLength="638.97" waitingTime="16.00" waitingCount="2" stopTime="0.00" timeLoss="53.93" rerouteNo="0" devices="tripinfo_flow_route_91_duration_20250327_2010.2" vType="car" speedFactor="0.99" vaporized=""/>
    <tripinfo id="flow_route_102_duration_20250327_2010.4" depart="27.00" departLane="1342963997_0" departPos="18.23" departSpeed="0.00" departDelay="0.34" arrival="140.00" arrivalLane="380585336_0" arrivalPos="173.21" arrivalSpeed="14.22" duration="113.00" routeLength="865.93" waitingTime="13.00" waitingCount="2" stopTime="0.00" timeLoss="54.18" rerouteNo="0" devices="tripinfo_flow_route_102_duration_20250327_2010.4" vType="car" speedFactor="0.88" vaporized=""/>
    <tripinfo id="flow_route_92_duration_20250327_2010.13" depart="80.00" departLane="133000063_0" departPos="91.19" departSpeed="0.00" departDelay="48.80" arrival="141.00" arrivalLane="186409193_0" arrivalPos="38.75" arrivalSpeed="15.61" duration="61.00" routeLength="339.42" waitingTime="0.00" waitingCount="0" stopTime="0.00" timeLoss="39.79" rerouteNo="0" devices="tripinfo_flow_route_92_duration_20250327_2010.13" vType="car" speedFactor="1.14" vaporized=""/>
    <tripinfo id="flow_route_102_duration_20250327_2010.5" depart="34.00" departLane="1342963997_0" departPos="169.65" departSpeed="0.00" departDelay="0.67" arrival="141.00" arrivalLane="380585336_0" arrivalPos="360.92" arrivalSpeed="16.40" duration="107.00" routeLength="902.22" waitingTime="27.00" waitingCount="2" stopTime="0.00" timeLoss="51.48" rerouteNo="0" devices="tripinfo_flow_route_102_duration_20250327_2010.5" vType="car" speedFactor="1.08" vaporized=""/>
    <tripinfo id="flow_route_93_duration_20250327_2010.9" depart="39.00" departLane="133000063_0" departPos="146.63" departSpeed="0.00" departDelay="22.64" arrival="145.00" arrivalLane="380585336_2" arrivalPos="75.41" arrivalSpeed="16.11" duration="106.00" routeLength="784.08" waitingTime="27.00" waitingCount="1" stopTime="0.00" timeLoss="58.72" rerouteNo="0" devices="tripinfo_flow_route_93_duration_20250327_2010.9" vType="car" speedFactor="1.15" vaporized=""/>
    <tripinfo id="flow_route_93_duration_20250327_2010.13" depart="52.00" departLane="133000063_0" departPos="39.67" departSpeed="0.00" departDelay="28.37" arrival="152.00" arrivalLane="380585336_2" arrivalPos="44.12" arrivalSpeed="16.13" duration="100.00" routeLength="859.74" waitingTime="0.00" waitingCount="0" stopTime="0.00" timeLoss="47.80" rerouteNo="0" devices="tripinfo_flow_route_93_duration_20250327_2010.13" vType="car" speedFactor="1.04" vaporized=""/>
    <tripinfo id="flow_route_102_duration_20250327_2010.8" depart="54.00" departLane="1342963997_0" departPos="54.29" departSpeed="0.00" departDelay="0.67" arrival="152.00" arrivalLane="380585336_0" arrivalPos="146.10" arrivalSpeed="13.67" duration="98.00" routeLength="802.75" waitingTime="9.00" waitingCount="1" stopTime="0.00" timeLoss="41.73" rerouteNo="0" devices="tripinfo_flow_route_102_duration_20250327_2010.8" vType="car" speedFactor="0.83" vaporized=""/>
    <tripinfo id="flow_route_93_duration_20250327_2010.4" depart="16.00" departLane="133000063_0" departPos="48.03" departSpeed="0.00" departDelay="8.73" arrival="154.00" arrivalLane="380585336_1" arrivalPos="139.60" arrivalSpeed="15.63" duration="138.00" routeLength="946.86" waitingTime="37.00" waitingCount="1" stopTime="0.00" timeLoss="77.50" rerouteNo="0" devices="tripinfo_flow_route_93_duration_20250327_2010.4" vType="car" speedFactor="0.94" vaporized=""/>
    <tripinfo id="flow_route_102_duration_20250327_2010.7" depart="47.00" departLane="1342963997_0" departPos="102.10" departSpeed="0.00" departDelay="0.34" arrival="157.00" arrivalLane="380585336_0" arrivalPos="396.38" arrivalSpeed="16.28" duration="110.00" routeLength="1005.23" waitingTime="9.00" waitingCount="2" stopTime="0.00" timeLoss="47.94" rerouteNo="0" devices="tripinfo_flow_route_102_duration_20250327_2010.7" vType="car" speedFactor="1.03" vaporized=""/>
    <tripinfo id="flow_route_102_duration_20250327_2010.6" depart="40.00" departLane="1342963997_0" departPos="59.76" departSpeed="0.00" departDelay="0.00" arrival="159.00" arrivalLane="380585336_0" arrivalPos="394.47" arrivalSpeed="16.13" duration="119.00" routeLength="1045.65" waitingTime="9.00" waitingCount="1" stopTime="0.00" timeLoss="53.56" rerouteNo="0" devices="tripinfo_flow_route_102_duration_20250327_2010.6" vType="car" speedFactor="0.97" vaporized=""/>
    <tripinfo id="flow_route_93_duration_20250327_2010.5" depart="26.00" departLane="133000063_0" departPos="78.50" departSpeed="0.00" departDelay="16.91" arrival="161.00" arrivalLane="380585336_1" arrivalPos="70.77" arrivalSpeed="16.15" duration="135.00" routeLength="847.56" waitingTime="32.00" waitingCount="2" stopTime="0.00" timeLoss="83.67" rerouteNo="0" devices="tripinfo_flow_route_93_duration_20250327_2010.5" vType="car" speedFactor="1.01" vaporized=""/>
    <tripinfo id="flow_route_93_duration_20250327_2010.14" depart="57.00" departLane="133000063_0" departPos="5.43" departSpeed="0.00" departDelay="31.55" arrival="164.00" arrivalLane="380585336_1" arrivalPos="179.12" arrivalSpeed="16.52" duration="107.00" routeLength="1028.98" waitingTime="0.00" waitingCount="0" stopTime="0.00" timeLoss="44.49" rerouteNo="0" devices="tripinfo_flow_route_93_duration_20250327_2010.14" vType="car" speedFactor="1.09" vaporized=""/>