<?xml version="1.0" encoding="UTF-8"?>

<!-- generated on 2025-05-06 21:08:48 by Eclipse SUMO sumo Version 1.20.0
<configuration xmlns:xsi="http://www.w3.org/2001/XMLSchema-instance" xsi:noNamespaceSchemaLocation="http://sumo.dlr.de/xsd/sumoConfiguration.xsd">

    <input>
        <net-file value="osm.net.xml"/>
        <route-files value="xml/route_static_cluster3839130731_cluster_11644940326_11644940327_11648561426_6.rou.xml"/>
    </input>

    <output>
        <tripinfo-output value="xml/tripinfo_static_cluster3839130731_cluster_11644940326_11644940327_11648561426_6.xml"/>
    </output>

    <traci_server>
        <remote-port value="41615"/>
    </traci_server>

</configuration>
-->

<tripinfos xmlns:xsi="http://www.w3.org/2001/XMLSchema-instance" xsi:noNamespaceSchemaLocation="http://sumo.dlr.de/xsd/tripinfo_file.xsd">
    <tripinfo id="flow_route_123_duration_20250327_2150.0" depart="0.00" departLane="189240000#0-AddedOnRampEdge_0" departPos="5.69" departSpeed="0.00" departDelay="0.00" arrival="22.00" arrivalLane="1254519229#0_1" arrivalPos="19.69" arrivalSpeed="11.13" duration="22.00" routeLength="159.84" waitingTime="0.00" waitingCount="0" stopTime="0.00" timeLoss="10.59" rerouteNo="0" devices="tripinfo_flow_route_123_duration_20250327_2150.0" vType="car" speedFactor="0.89" vaporized=""/>
    <tripinfo id="flow_route_123_duration_20250327_2150.1" depart="6.00" departLane="189240000#0-AddedOnRampEdge_0" departPos="83.80" departSpeed="0.00" departDelay="0.55" arrival="23.00" arrivalLane="1254519229#0_0" arrivalPos="50.41" arrivalSpeed="12.61" duration="17.00" routeLength="108.94" waitingTime="0.00" waitingCount="0" stopTime="0.00" timeLoss="9.60" rerouteNo="0" devices="tripinfo_flow_route_123_duration_20250327_2150.1" vType="car" speedFactor="1.03" vaporized=""/>
    <tripinfo id="flow_route_96_duration_20250327_2150.0" depart="0.00" departLane="1341093416#0_0" departPos="184.53" departSpeed="0.00" departDelay="0.00" arrival="26.00" arrivalLane="1254519229#0_1" arrivalPos="3.62" arrivalSpeed="3.48" duration="26.00" routeLength="114.10" waitingTime="3.00" waitingCount="1" stopTime="0.00" timeLoss="17.85" rerouteNo="0" devices="tripinfo_flow_route_96_duration_20250327_2150.0" vType="car" speedFactor="1.01" vaporized=""/>
    <tripinfo id="flow_route_111_duration_20250327_2150.0" depart="0.00" departLane="1253188486#8_0" departPos="138.93" departSpeed="0.00" departDelay="0.00" arrival="33.00" arrivalLane="1254519229#0_1" arrivalPos="3.47" arrivalSpeed="7.88" duration="33.00" routeLength="140.76" waitingTime="4.00" waitingCount="1" stopTime="0.00" timeLoss="24.07" rerouteNo="0" devices="tripinfo_flow_route_111_duration_20250327_2150.0" vType="car" speedFactor="0.83" vaporized=""/>
    <tripinfo id="flow_route_124_duration_20250327_2150.0" depart="0.00" departLane="189240000#0-AddedOnRampEdge_0" departPos="82.66" departSpeed="0.00" departDelay="0.00" arrival="34.00" arrivalLane="1254519225#0.109_3" arrivalPos="34.02" arrivalSpeed="15.30" duration="34.00" routeLength="196.39" waitingTime="3.00" waitingCount="1" stopTime="0.00" timeLoss="19.98" rerouteNo="0" devices="tripinfo_flow_route_124_duration_20250327_2150.0" vType="car" speedFactor="0.94" vaporized=""/>
    <tripinfo id="flow_route_111_duration_20250327_2150.1" depart="6.00" departLane="1253188486#8_0" departPos="202.24" departSpeed="0.00" departDelay="0.00" arrival="35.00" arrivalLane="1254519229#0_0" arrivalPos="24.43" arrivalSpeed="8.60" duration="29.00" routeLength="98.42" waitingTime="5.00" waitingCount="1" stopTime="0.00" timeLoss="23.00" rerouteNo="0" devices="tripinfo_flow_route_111_duration_20250327_2150.1" vType="car" speedFactor="1.09" vaporized=""/>
    <tripinfo id="flow_route_94_duration_20250327_2150.0" depart="0.00" departLane="1341093416#0_0" departPos="204.30" departSpeed="0.00" departDelay="0.00" arrival="37.00" arrivalLane="799091563#0_0" arrivalPos="338.33" arrivalSpeed="16.38" duration="37.00" routeLength="440.38" waitingTime="0.00" waitingCount="0" stopTime="0.00" timeLoss="10.10" rerouteNo="0" devices="tripinfo_flow_route_94_duration_20250327_2150.0" vType="car" speedFactor="1.06" vaporized=""/>
    <tripinfo id="flow_route_111_duration_20250327_2150.2" depart="12.00" departLane="1253188486#8_0" departPos="64.79" departSpeed="0.00" departDelay="0.00" arrival="38.00" arrivalLane="1254519229#0_1" arrivalPos="26.36" arrivalSpeed="16.31" duration="26.00" routeLength="237.79" waitingTime="0.00" waitingCount="0" stopTime="0.00" timeLoss="11.52" rerouteNo="0" devices="tripinfo_flow_route_111_duration_20250327_2150.2" vType="car" speedFactor="1.16" vaporized=""/>
    <tripinfo id="flow_route_111_duration_20250327_2150.3" depart="19.00" departLane="1253188486#8_0" departPos="142.31" departSpeed="0.00" departDelay="1.00" arrival="42.00" arrivalLane="1254519229#0_0" arrivalPos="55.03" arrivalSpeed="16.22" duration="23.00" routeLength="188.94" waitingTime="0.00" waitingCount="0" stopTime="0.00" timeLoss="11.01" rerouteNo="0" devices="tripinfo_flow_route_111_duration_20250327_2150.3" vType="car" speedFactor="0.83" vaporized=""/>
    <tripinfo id="flow_route_104_duration_20250327_2150.0" depart="0.00" departLane="189240001_0" departPos="36.52" departSpeed="0.00" departDelay="0.00" arrival="43.00" arrivalLane="1254519225#0.109_0" arrivalPos="30.66" arrivalSpeed="14.91" duration="43.00" routeLength="198.30" waitingTime="11.00" waitingCount="1" stopTime="0.00" timeLoss="30.84" rerouteNo="0" devices="tripinfo_flow_route_104_duration_20250327_2150.0" vType="car" speedFactor="1.08" vaporized=""/>
    <tripinfo id="flow_route_104_duration_20250327_2150.1" depart="13.00" departLane="189240001_0" departPos="13.16" departSpeed="0.00" departDelay="1.00" arrival="46.00" arrivalLane="1254519225#0.109_0" arrivalPos="42.74" arrivalSpeed="15.15" duration="33.00" routeLength="233.74" waitingTime="0.00" waitingCount="0" stopTime="0.00" timeLoss="17.47" rerouteNo="0" devices="tripinfo_flow_route_104_duration_20250327_2150.1" vType="car" speedFactor="0.94" vaporized=""/>
    <tripinfo id="flow_route_111_duration_20250327_2150.5" depart="30.00" departLane="1253188486#8_0" departPos="202.54" departSpeed="0.00" departDelay="0.00" arrival="48.00" arrivalLane="1254519229#0_0" arrivalPos="48.94" arrivalSpeed="13.60" duration="18.00" routeLength="122.63" waitingTime="0.00" waitingCount="0" stopTime="0.00" timeLoss="10.15" rerouteNo="0" devices="tripinfo_flow_route_111_duration_20250327_2150.5" vType="car" speedFactor="0.97" vaporized=""/>
    <tripinfo id="flow_route_104_duration_20250327_2150.2" depart="25.00" departLane="189240001_0" departPos="16.23" departSpeed="0.00" departDelay="1.00" arrival="49.00" arrivalLane="1254519225#0.109_0" arrivalPos="34.11" arrivalSpeed="16.43" duration="24.00" routeLength="222.04" waitingTime="0.00" waitingCount="0" stopTime="0.00" timeLoss="10.25" rerouteNo="0" devices="tripinfo_flow_route_104_duration_20250327_2150.2" vType="car" speedFactor="1.18" vaporized=""/>
    <tripinfo id="flow_route_112_duration_20250327_2150.0" depart="0.00" departLane="1253188486#8_0" departPos="64.90" departSpeed="0.00" departDelay="0.00" arrival="51.00" arrivalLane="799091563#0_0" arrivalPos="282.23" arrivalSpeed="16.42" duration="51.00" routeLength="472.04" waitingTime="0.00" waitingCount="0" stopTime="0.00" timeLoss="21.49" rerouteNo="0" devices="tripinfo_flow_route_112_duration_20250327_2150.0" vType="car" speedFactor="1.05" vaporized=""/>
    <tripinfo id="flow_route_111_duration_20250327_2150.4" depart="24.00" departLane="1253188486#8_0" departPos="77.00" departSpeed="0.00" departDelay="0.00" arrival="52.00" arrivalLane="1254519229#0_0" arrivalPos="73.85" arrivalSpeed="16.16" duration="28.00" routeLength="273.07" waitingTime="0.00" waitingCount="0" stopTime="0.00" timeLoss="11.21" rerouteNo="0" devices="tripinfo_flow_route_111_duration_20250327_2150.4" vType="car" speedFactor="1.15" vaporized=""/>
    <tripinfo id="flow_route_104_duration_20250327_2150.3" depart="36.00" departLane="189240001_0" departPos="23.22" departSpeed="0.00" departDelay="0.00" arrival="60.00" arrivalLane="1254519225#0.109_0" arrivalPos="44.34" arrivalSpeed="16.35" duration="24.00" routeLength="225.29" waitingTime="0.00" waitingCount="0" stopTime="0.00" timeLoss="10.24" rerouteNo="0" devices="tripinfo_flow_route_104_duration_20250327_2150.3" vType="car" speedFactor="1.04" vaporized=""/>
    <tripinfo id="flow_route_112_duration_20250327_2150.1" depart="30.00" departLane="1253188486#8_0" departPos="143.53" departSpeed="0.00" departDelay="0.00" arrival="61.00" arrivalLane="799091563#0_0" arrivalPos="148.00" arrivalSpeed="16.29" duration="31.00" routeLength="259.18" waitingTime="0.00" waitingCount="0" stopTime="0.00" timeLoss="14.13" rerouteNo="0" devices="tripinfo_flow_route_112_duration_20250327_2150.1" vType="car" speedFactor="1.18" vaporized=""/>
    <tripinfo id="flow_route_94_duration_20250327_2150.2" depart="26.00" departLane="1341093416#0_0" departPos="12.84" departSpeed="0.00" departDelay="2.00" arrival="63.00" arrivalLane="799091563#0_1" arrivalPos="10.57" arrivalSpeed="7.57" duration="37.00" routeLength="304.08" waitingTime="0.00" waitingCount="0" stopTime="0.00" timeLoss="18.62" rerouteNo="0" devices="tripinfo_flow_route_94_duration_20250327_2150.2" vType="car" speedFactor="1.13" vaporized=""/>
    <tripinfo id="flow_route_123_duration_20250327_2150.2" depart="11.00" departLane="189240000#0-AddedOnRampEdge_0" departPos="15.02" departSpeed="0.00" departDelay="0.09" arrival="66.00" arrivalLane="1254519229#0_1" arrivalPos="24.01" arrivalSpeed="8.48" duration="55.00" routeLength="154.83" waitingTime="25.00" waitingCount="1" stopTime="0.00" timeLoss="44.50" rerouteNo="0" devices="tripinfo_flow_route_123_duration_20250327_2150.2" vType="car" speedFactor="0.93" vaporized=""/>
    <tripinfo id="flow_route_123_duration_20250327_2150.6" depart="33.00" departLane="189240000#0-AddedOnRampEdge_0" departPos="9.89" departSpeed="0.00" departDelay="0.28" arrival="67.00" arrivalLane="1254519229#0_0" arrivalPos="1.90" arrivalSpeed="7.54" duration="34.00" routeLength="134.34" waitingTime="6.00" waitingCount="1" stopTime="0.00" timeLoss="25.16" rerouteNo="0" devices="tripinfo_flow_route_123_duration_20250327_2150.6" vType="car" speedFactor="1.03" vaporized=""/>
    <tripinfo id="flow_route_123_duration_20250327_2150.5" depart="28.00" departLane="189240000#0-AddedOnRampEdge_0" departPos="20.05" departSpeed="0.00" departDelay="0.73" arrival="68.00" arrivalLane="1254519229#0_1" arrivalPos="23.08" arrivalSpeed="9.15" duration="40.00" routeLength="148.87" waitingTime="8.00" waitingCount="1" stopTime="0.00" timeLoss="30.40" rerouteNo="0" devices="tripinfo_flow_route_123_duration_20250327_2150.5" vType="car" speedFactor="0.99" vaporized=""/>
    <tripinfo id="flow_route_123_duration_20250327_2150.3" depart="17.00" departLane="189240000#0-AddedOnRampEdge_0" departPos="67.56" departSpeed="0.00" departDelay="0.64" arrival="69.00" arrivalLane="1254519229#0_0" arrivalPos="53.16" arrivalSpeed="10.65" duration="52.00" routeLength="127.94" waitingTime="24.00" waitingCount="1" stopTime="0.00" timeLoss="43.07" rerouteNo="0" devices="tripinfo_flow_route_123_duration_20250327_2150.3" vType="car" speedFactor="0.97" vaporized=""/>
    <tripinfo id="flow_route_123_duration_20250327_2150.4" depart="22.00" departLane="189240000#0-AddedOnRampEdge_0" departPos="60.58" departSpeed="0.00" departDelay="0.18" arrival="72.00" arrivalLane="1254519229#0_0" arrivalPos="75.98" arrivalSpeed="12.12" duration="50.00" routeLength="157.73" waitingTime="19.00" waitingCount="1" stopTime="0.00" timeLoss="39.65" rerouteNo="0" devices="tripinfo_flow_route_123_duration_20250327_2150.4" vType="car" speedFactor="0.95" vaporized=""/>
    <tripinfo id="flow_route_95_duration_20250327_2150.3" depart="11.00" departLane="1341093416#0_0" departPos="209.62" departSpeed="0.00" departDelay="0.41" arrival="73.00" arrivalLane="1254519225#0.109_0" arrivalPos="2.02" arrivalSpeed="13.05" duration="62.00" routeLength="174.77" waitingTime="30.00" waitingCount="1" stopTime="0.00" timeLoss="50.50" rerouteNo="0" devices="tripinfo_flow_route_95_duration_20250327_2150.3" vType="car" speedFactor="0.99" vaporized=""/>
    <tripinfo id="flow_route_123_duration_20250327_2150.7" depart="39.00" departLane="189240000#0-AddedOnRampEdge_0" departPos="26.55" departSpeed="0.00" departDelay="0.82" arrival="73.00" arrivalLane="1254519229#0_1" arrivalPos="52.66" arrivalSpeed="11.94" duration="34.00" routeLength="171.95" waitingTime="1.00" waitingCount="1" stopTime="0.00" timeLoss="21.59" rerouteNo="0" devices="tripinfo_flow_route_123_duration_20250327_2150.7" vType="car" speedFactor="0.88" vaporized=""/>
    <tripinfo id="flow_route_123_duration_20250327_2150.8" depart="44.00" departLane="189240000#0-AddedOnRampEdge_0" departPos="4.02" departSpeed="0.00" departDelay="0.37" arrival="73.00" arrivalLane="1254519229#0_1" arrivalPos="38.20" arrivalSpeed="10.49" duration="29.00" routeLength="180.01" waitingTime="0.00" waitingCount="0" stopTime="0.00" timeLoss="17.78" rerouteNo="0" devices="tripinfo_flow_route_123_duration_20250327_2150.8" vType="car" speedFactor="1.02" vaporized=""/>
    <tripinfo id="flow_route_96_duration_20250327_2150.1" depart="12.00" departLane="1341093416#0_0" departPos="112.79" departSpeed="0.00" departDelay="0.00" arrival="74.00" arrivalLane="1254519229#0_1" arrivalPos="2.37" arrivalSpeed="3.34" duration="62.00" routeLength="184.60" waitingTime="28.00" waitingCount="2" stopTime="0.00" timeLoss="49.63" rerouteNo="0" devices="tripinfo_flow_route_96_duration_20250327_2150.1" vType="car" speedFactor="0.94" vaporized=""/>
    <tripinfo id="flow_route_95_duration_20250327_2150.5" depart="18.00" departLane="1341093416#0_0" departPos="263.21" departSpeed="0.00" departDelay="0.36" arrival="74.00" arrivalLane="1254519225#0.109_0" arrivalPos="37.20" arrivalSpeed="14.76" duration="56.00" routeLength="156.36" waitingTime="31.00" waitingCount="1" stopTime="0.00" timeLoss="43.87" rerouteNo="0" devices="tripinfo_flow_route_95_duration_20250327_2150.5" vType="car" speedFactor="0.89" vaporized=""/>
    <tripinfo id="flow_route_123_duration_20250327_2150.9" depart="50.00" departLane="189240000#0-AddedOnRampEdge_0" departPos="60.53" departSpeed="0.00" departDelay="0.91" arrival="74.00" arrivalLane="1254519229#0_0" arrivalPos="45.62" arrivalSpeed="11.80" duration="24.00" routeLength="127.42" waitingTime="0.00" waitingCount="0" stopTime="0.00" timeLoss="15.31" rerouteNo="0" devices="tripinfo_flow_route_123_duration_20250327_2150.9" vType="car" speedFactor="1.08" vaporized=""/>
    <tripinfo id="flow_route_123_duration_20250327_2150.10" depart="55.00" departLane="189240000#0-AddedOnRampEdge_0" departPos="62.18" departSpeed="0.00" departDelay="0.46" arrival="77.00" arrivalLane="1254519229#0_0" arrivalPos="63.49" arrivalSpeed="13.24" duration="22.00" routeLength="143.64" waitingTime="0.00" waitingCount="0" stopTime="0.00" timeLoss="11.84" rerouteNo="0" devices="tripinfo_flow_route_123_duration_20250327_2150.10" vType="car" speedFactor="0.94" vaporized=""/>
    <tripinfo id="flow_route_105_duration_20250327_2150.0" depart="1.00" departLane="189240001_0" departPos="25.23" departSpeed="0.00" departDelay="1.00" arrival="78.00" arrivalLane="799091563#0_2" arrivalPos="224.02" arrivalSpeed="16.42" duration="77.00" routeLength="308.35" waitingTime="31.00" waitingCount="2" stopTime="0.00" timeLoss="57.64" rerouteNo="0" devices="tripinfo_flow_route_105_duration_20250327_2150.0" vType="car" speedFactor="1.03" vaporized=""/>
    <tripinfo id="flow_route_95_duration_20250327_2150.1" depart="5.00" departLane="1341093416#0_0" departPos="140.65" departSpeed="0.00" departDelay="1.47" arrival="78.00" arrivalLane="1254519225#0.109_0" arrivalPos="42.65" arrivalSpeed="13.93" duration="73.00" routeLength="284.37" waitingTime="29.00" waitingCount="1" stopTime="0.00" timeLoss="53.09" rerouteNo="0" devices="tripinfo_flow_route_95_duration_20250327_2150.1" vType="car" speedFactor="0.86" vaporized=""/>
    <tripinfo id="flow_route_95_duration_20250327_2150.2" depart="8.00" departLane="1341093416#0_0" departPos="64.91" departSpeed="0.00" departDelay="0.94" arrival="79.00" arrivalLane="1254519225#0.109_0" arrivalPos="33.96" arrivalSpeed="15.04" duration="71.00" routeLength="351.42" waitingTime="25.00" waitingCount="1" stopTime="0.00" timeLoss="48.87" rerouteNo="0" devices="tripinfo_flow_route_95_duration_20250327_2150.2" vType="car" speedFactor="1.12" vaporized=""/>
    <tripinfo id="flow_route_96_duration_20250327_2150.2" depart="26.00" departLane="1341093416#0_0" departPos="21.94" departSpeed="0.00" departDelay="2.00" arrival="81.00" arrivalLane="1254519229#0_1" arrivalPos="22.19" arrivalSpeed="7.02" duration="55.00" routeLength="295.26" waitingTime="9.00" waitingCount="2" stopTime="0.00" timeLoss="35.68" rerouteNo="0" devices="tripinfo_flow_route_96_duration_20250327_2150.2" vType="car" speedFactor="0.93" vaporized=""/>
    <tripinfo id="flow_route_95_duration_20250327_2150.0" depart="0.00" departLane="1341093416#0_0" departPos="1.65" departSpeed="0.00" departDelay="0.00" arrival="82.00" arrivalLane="1254519225#0.109_0" arrivalPos="44.45" arrivalSpeed="15.53" duration="82.00" routeLength="425.17" waitingTime="24.00" waitingCount="1" stopTime="0.00" timeLoss="54.26" rerouteNo="0" devices="tripinfo_flow_route_95_duration_20250327_2150.0" vType="car" speedFactor="0.94" vaporized=""/>
    <tripinfo id="flow_route_95_duration_20250327_2150.11" depart="39.00" departLane="1341093416#0_0" departPos="214.14" departSpeed="0.00" departDelay="0.18" arrival="83.00" arrivalLane="1254519225#0.109_0" arrivalPos="29.09" arrivalSpeed="14.98" duration="44.00" routeLength="197.32" waitingTime="11.00" waitingCount="1" stopTime="0.00" timeLoss="30.01" rerouteNo="0" devices="tripinfo_flow_route_95_duration_20250327_2150.11" vType="car" speedFactor="0.90" vaporized=""/>
    <tripinfo id="flow_route_95_duration_20250327_2150.10" depart="37.00" departLane="1341093416#0_0" departPos="191.79" departSpeed="0.00" departDelay="1.71" arrival="85.00" arrivalLane="1254519225#0.109_0" arrivalPos="30.74" arrivalSpeed="15.77" duration="48.00" routeLength="221.32" waitingTime="11.00" waitingCount="1" stopTime="0.00" timeLoss="33.82" rerouteNo="0" devices="tripinfo_flow_route_95_duration_20250327_2150.10" vType="car" speedFactor="1.09" vaporized=""/>
    <tripinfo id="flow_route_96_duration_20250327_2150.3" depart="37.00" departLane="1341093416#0_0" departPos="27.84" departSpeed="0.00" departDelay="1.00" arrival="85.00" arrivalLane="1254519229#0_1" arrivalPos="33.83" arrivalSpeed="8.44" duration="48.00" routeLength="301.00" waitingTime="6.00" waitingCount="1" stopTime="0.00" timeLoss="28.90" rerouteNo="0" devices="tripinfo_flow_route_96_duration_20250327_2150.3" vType="car" speedFactor="1.04" vaporized=""/>
    <tripinfo id="flow_route_124_duration_20250327_2150.2" depart="13.00" departLane="189240000#0-AddedOnRampEdge_0" departPos="53.97" departSpeed="0.00" departDelay="1.00" arrival="86.00" arrivalLane="1254519225#0.109_3" arrivalPos="8.07" arrivalSpeed="13.61" duration="73.00" routeLength="199.14" waitingTime="31.00" waitingCount="2" stopTime="0.00" timeLoss="59.23" rerouteNo="0" devices="tripinfo_flow_route_124_duration_20250327_2150.2" vType="car" speedFactor="1.02" vaporized=""/>
    <tripinfo id="flow_route_124_duration_20250327_2150.1" depart="6.00" departLane="189240000#0-AddedOnRampEdge_0" departPos="37.44" departSpeed="0.00" departDelay="0.00" arrival="87.00" arrivalLane="1254519225#0.109_3" arrivalPos="58.59" arrivalSpeed="15.47" duration="81.00" routeLength="266.18" waitingTime="35.00" waitingCount="2" stopTime="0.00" timeLoss="63.84" rerouteNo="0" devices="tripinfo_flow_route_124_duration_20250327_2150.1" vType="car" speedFactor="1.05" vaporized=""/>
    <tripinfo id="flow_route_95_duration_20250327_2150.9" depart="35.00" departLane="1341093416#0_0" departPos="171.43" departSpeed="0.00" departDelay="3.24" arrival="88.00" arrivalLane="1254519225#0.109_0" arrivalPos="22.78" arrivalSpeed="14.83" duration="53.00" routeLength="233.72" waitingTime="12.00" waitingCount="1" stopTime="0.00" timeLoss="36.42" rerouteNo="0" devices="tripinfo_flow_route_95_duration_20250327_2150.9" vType="car" speedFactor="0.90" vaporized=""/>
    <tripinfo id="flow_route_124_duration_20250327_2150.4" depart="24.00" departLane="189240000#0-AddedOnRampEdge_0" departPos="32.01" departSpeed="0.00" departDelay="0.00" arrival="89.00" arrivalLane="1254519225#0.109_3" arrivalPos="4.18" arrivalSpeed="14.64" duration="65.00" routeLength="217.20" waitingTime="22.00" waitingCount="2" stopTime="0.00" timeLoss="50.08" rerouteNo="0" devices="tripinfo_flow_route_124_duration_20250327_2150.4" vType="car" speedFactor="1.01" vaporized=""/>
    <tripinfo id="flow_route_94_duration_20250327_2150.3" depart="36.00" departLane="1341093416#0_0" departPos="157.29" departSpeed="0.00" departDelay="0.00" arrival="90.00" arrivalLane="799091563#0_1" arrivalPos="351.21" arrivalSpeed="15.58" duration="54.00" routeLength="500.27" waitingTime="0.00" waitingCount="0" stopTime="0.00" timeLoss="22.63" rerouteNo="0" devices="tripinfo_flow_route_94_duration_20250327_2150.3" vType="car" speedFactor="0.96" vaporized=""/>
    <tripinfo id="flow_route_124_duration_20250327_2150.3" depart="18.00" departLane="189240000#0-AddedOnRampEdge_0" departPos="46.50" departSpeed="0.00" departDelay="0.00" arrival="91.00" arrivalLane="1254519225#0.109_3" arrivalPos="58.34" arrivalSpeed="14.26" duration="73.00" routeLength="256.86" waitingTime="28.00" waitingCount="2" stopTime="0.00" timeLoss="53.55" rerouteNo="0" devices="tripinfo_flow_route_124_duration_20250327_2150.3" vType="car" speedFactor="0.87" vaporized=""/>
    <tripinfo id="flow_route_111_duration_20250327_2150.6" depart="36.00" departLane="1253188486#8_0" departPos="100.85" departSpeed="0.00" departDelay="0.00" arrival="91.00" arrivalLane="1254519229#0_1" arrivalPos="36.27" arrivalSpeed="9.90" duration="55.00" routeLength="211.63" waitingTime="20.00" waitingCount="1" stopTime="0.00" timeLoss="42.00" rerouteNo="0" devices="tripinfo_flow_route_111_duration_20250327_2150.6" vType="car" speedFactor="1.09" vaporized=""/>
    <tripinfo id="flow_route_94_duration_20250327_2150.1" depart="12.00" departLane="1341093416#0_0" departPos="34.38" departSpeed="0.00" departDelay="0.00" arrival="92.00" arrivalLane="799091563#0_0" arrivalPos="363.24" arrivalSpeed="14.56" duration="80.00" routeLength="635.21" waitingTime="14.00" waitingCount="1" stopTime="0.00" timeLoss="38.00" rerouteNo="0" devices="tripinfo_flow_route_94_duration_20250327_2150.1" vType="car" speedFactor="0.88" vaporized=""/>
    <tripinfo id="flow_route_111_duration_20250327_2150.8" depart="48.00" departLane="1253188486#8_0" departPos="68.03" departSpeed="0.00" departDelay="0.00" arrival="92.00" arrivalLane="1254519229#0_0" arrivalPos="27.42" arrivalSpeed="9.47" duration="44.00" routeLength="235.61" waitingTime="9.00" waitingCount="1" stopTime="0.00" timeLoss="29.75" rerouteNo="0" devices="tripinfo_flow_route_111_duration_20250327_2150.8" vType="car" speedFactor="1.14" vaporized=""/>
    <tripinfo id="flow_route_111_duration_20250327_2150.7" depart="42.00" departLane="1253188486#8_0" departPos="175.00" departSpeed="0.00" departDelay="0.00" arrival="93.00" arrivalLane="1254519229#0_0" arrivalPos="56.67" arrivalSpeed="11.02" duration="51.00" routeLength="157.90" waitingTime="22.00" waitingCount="1" stopTime="0.00" timeLoss="41.40" rerouteNo="0" devices="tripinfo_flow_route_111_duration_20250327_2150.7" vType="car" speedFactor="0.85" vaporized=""/>
    <tripinfo id="flow_route_111_duration_20250327_2150.9" depart="54.00" departLane="1253188486#8_0" departPos="41.10" departSpeed="0.00" departDelay="0.00" arrival="96.00" arrivalLane="1254519229#0_1" arrivalPos="70.60" arrivalSpeed="13.77" duration="42.00" routeLength="305.72" waitingTime="0.00" waitingCount="0" stopTime="0.00" timeLoss="23.04" rerouteNo="0" devices="tripinfo_flow_route_111_duration_20250327_2150.9" vType="car" speedFactor="1.02" vaporized=""/>
    <tripinfo id="flow_route_104_duration_20250327_2150.4" depart="48.00" departLane="189240001_0" departPos="46.16" departSpeed="0.00" departDelay="0.00" arrival="101.00" arrivalLane="1254519225#0.109_0" arrivalPos="56.43" arrivalSpeed="14.89" duration="53.00" routeLength="214.43" waitingTime="20.00" waitingCount="1" stopTime="0.00" timeLoss="38.39" rerouteNo="0" devices="tripinfo_flow_route_104_duration_20250327_2150.4" vType="car" speedFactor="0.90" vaporized=""/>
    <tripinfo id="flow_route_96_duration_20250327_2150.4" depart="55.00" departLane="1341093416#0_0" departPos="128.95" departSpeed="0.00" departDelay="7.00" arrival="119.00" arrivalLane="1254519229#0_1" arrivalPos="12.22" arrivalSpeed="6.42" duration="64.00" routeLength="178.28" waitingTime="33.00" waitingCount="1" stopTime="0.00" timeLoss="52.33" rerouteNo="0" devices="tripinfo_flow_route_96_duration_20250327_2150.4" vType="car" speedFactor="1.00" vaporized=""/>
    <tripinfo id="flow_route_95_duration_20250327_2150.7" depart="27.00" departLane="1341093416#0_0" departPos="96.47" departSpeed="0.00" departDelay="2.30" arrival="128.00" arrivalLane="1254519225#0.109_0" arrivalPos="5.37" arrivalSpeed="13.84" duration="101.00" routeLength="291.26" waitingTime="41.00" waitingCount="3" stopTime="0.00" timeLoss="82.39" rerouteNo="0" devices="tripinfo_flow_route_95_duration_20250327_2150.7" vType="car" speedFactor="1.17" vaporized=""/>
    <tripinfo id="flow_route_95_duration_20250327_2150.8" depart="29.00" departLane="1341093416#0_0" departPos="116.04" departSpeed="0.00" departDelay="0.77" arrival="129.00" arrivalLane="1254519225#0.109_0" arrivalPos="42.34" arrivalSpeed="14.95" duration="100.00" routeLength="308.67" waitingTime="42.00" waitingCount="2" stopTime="0.00" timeLoss="80.02" rerouteNo="0" devices="tripinfo_flow_route_95_duration_20250327_2150.8" vType="car" speedFactor="1.02" vaporized=""/>
    <tripinfo id="flow_route_95_duration_20250327_2150.4" depart="16.00" departLane="1341093416#0_0" departPos="24.41" departSpeed="0.00" departDelay="1.88" arrival="132.00" arrivalLane="1254519225#0.109_0" arrivalPos="15.06" arrivalSpeed="14.49" duration="116.00" routeLength="373.02" waitingTime="40.00" waitingCount="2" stopTime="0.00" timeLoss="92.22" rerouteNo="0" devices="tripinfo_flow_route_95_duration_20250327_2150.4" vType="car" speedFactor="1.01" vaporized=""/>
    <tripinfo id="flow_route_95_duration_20250327_2150.6" depart="26.00" departLane="1341093416#0_0" departPos="49.54" departSpeed="0.00" departDelay="4.83" arrival="134.00" arrivalLane="1254519225#0.109_0" arrivalPos="10.51" arrivalSpeed="14.11" duration="108.00" routeLength="343.34" waitingTime="38.00" waitingCount="2" stopTime="0.00" timeLoss="85.38" rerouteNo="0" devices="tripinfo_flow_route_95_duration_20250327_2150.6" vType="car" speedFactor="0.92" vaporized=""/>
    <tripinfo id="flow_route_124_duration_20250327_2150.5" depart="30.00" departLane="189240000#0-AddedOnRampEdge_0" departPos="39.39" departSpeed="0.00" departDelay="0.00" arrival="138.00" arrivalLane="1254519225#0.109_3" arrivalPos="31.99" arrivalSpeed="14.08" duration="108.00" routeLength="237.64" waitingTime="49.00" waitingCount="4" stopTime="0.00" timeLoss="92.44" rerouteNo="0" devices="tripinfo_flow_route_124_duration_20250327_2150.5" vType="car" speedFactor="1.10" vaporized=""/>
    <tripinfo id="flow_route_124_duration_20250327_2150.7" depart="42.00" departLane="189240000#0-AddedOnRampEdge_0" departPos="13.33" departSpeed="0.00" departDelay="0.00" arrival="139.00" arrivalLane="1254519225#0.109_3" arrivalPos="7.75" arrivalSpeed="14.11" duration="97.00" routeLength="239.46" waitingTime="36.00" waitingCount="4" stopTime="0.00" timeLoss="78.93" rerouteNo="0" devices="tripinfo_flow_route_124_duration_20250327_2150.7" vType="car" speedFactor="0.85" vaporized=""/>
    <tripinfo id="flow_route_95_duration_20250327_2150.12" depart="43.00" departLane="1341093416#0_0" departPos="101.89" departSpeed="0.00" departDelay="0.65" arrival="139.00" arrivalLane="1254519225#0.109_0" arrivalPos="55.03" arrivalSpeed="16.16" duration="96.00" routeLength="335.51" waitingTime="37.00" waitingCount="2" stopTime="0.00" timeLoss="74.57" rerouteNo="0" devices="tripinfo_flow_route_95_duration_20250327_2150.12" vType="car" speedFactor="1.17" vaporized=""/>
    <tripinfo id="flow_route_95_duration_20250327_2150.15" depart="57.00" departLane="1341093416#0_0" departPos="133.37" departSpeed="0.00" departDelay="4.07" arrival="140.00" arrivalLane="1254519225#0.109_0" arrivalPos="34.27" arrivalSpeed="15.30" duration="83.00" routeLength="283.27" waitingTime="29.00" waitingCount="1" stopTime="0.00" timeLoss="64.60" rerouteNo="0" devices="tripinfo_flow_route_95_duration_20250327_2150.15" vType="car" speedFactor="1.12" vaporized=""/>
    <tripinfo id="flow_route_124_duration_20250327_2150.6" depart="36.00" departLane="189240000#0-AddedOnRampEdge_0" departPos="32.37" departSpeed="0.00" departDelay="0.00" arrival="141.00" arrivalLane="1254519225#0.109_3" arrivalPos="54.52" arrivalSpeed="15.77" duration="105.00" routeLength="267.18" waitingTime="44.00" waitingCount="4" stopTime="0.00" timeLoss="87.50" rerouteNo="0" devices="tripinfo_flow_route_124_duration_20250327_2150.6" vType="car" speedFactor="1.00" vaporized=""/>
    <tripinfo id="flow_route_95_duration_20250327_2150.16" depart="58.00" departLane="1341093416#0_0" departPos="112.93" departSpeed="0.00" departDelay="1.54" arrival="141.00" arrivalLane="1254519225#0.109_0" arrivalPos="0.73" arrivalSpeed="14.63" duration="83.00" routeLength="270.17" waitingTime="28.00" waitingCount="2" stopTime="0.00" timeLoss="64.52" rerouteNo="0" devices="tripinfo_flow_route_95_duration_20250327_2150.16" vType="car" speedFactor="0.88" vaporized=""/>