<?xml version="1.0" encoding="UTF-8"?>

<!-- generated on 2025-05-06 21:08:26 by Eclipse SUMO sumo Version 1.20.0
<configuration xmlns:xsi="http://www.w3.org/2001/XMLSchema-instance" xsi:noNamespaceSchemaLocation="http://sumo.dlr.de/xsd/sumoConfiguration.xsd">

    <input>
        <net-file value="osm.net.xml"/>
        <route-files value="xml/route_static_cluster_11644940323_11644940324_3828703845_4.rou.xml"/>
    </input>

    <output>
        <tripinfo-output value="xml/tripinfo_static_cluster_11644940323_11644940324_3828703845_4.xml"/>
    </output>

    <traci_server>
        <remote-port value="54117"/>
    </traci_server>

</configuration>
-->

<tripinfos xmlns:xsi="http://www.w3.org/2001/XMLSchema-instance" xsi:noNamespaceSchemaLocation="http://sumo.dlr.de/xsd/tripinfo_file.xsd">
    <tripinfo id="flow_route_3_duration_20250327_2200.0" depart="0.00" departLane="1318793173#0_0" departPos="80.53" departSpeed="0.00" departDelay="0.00" arrival="19.00" arrivalLane="291974733#0_1" arrivalPos="66.76" arrivalSpeed="13.99" duration="19.00" routeLength="123.20" waitingTime="0.00" waitingCount="0" stopTime="0.00" timeLoss="10.27" rerouteNo="0" devices="tripinfo_flow_route_3_duration_20250327_2200.0" vType="car" speedFactor="0.94" vaporized=""/>
    <tripinfo id="flow_route_2_duration_20250327_2200.0" depart="0.00" departLane="1318793173#0_0" departPos="58.93" departSpeed="0.00" departDelay="0.00" arrival="20.00" arrivalLane="189835257_0" arrivalPos="46.92" arrivalSpeed="15.83" duration="20.00" routeLength="167.93" waitingTime="0.00" waitingCount="0" stopTime="0.00" timeLoss="9.26" rerouteNo="0" devices="tripinfo_flow_route_2_duration_20250327_2200.0" vType="car" speedFactor="1.06" vaporized=""/>
    <tripinfo id="flow_route_16_duration_20250327_2200.0" depart="0.00" departLane="137406408#0_0" departPos="52.27" departSpeed="0.00" departDelay="0.00" arrival="20.00" arrivalLane="133126040#0_0" arrivalPos="80.39" arrivalSpeed="14.24" duration="20.00" routeLength="149.31" waitingTime="0.00" waitingCount="0" stopTime="0.00" timeLoss="11.00" rerouteNo="0" devices="tripinfo_flow_route_16_duration_20250327_2200.0" vType="car" speedFactor="1.05" vaporized=""/>
    <tripinfo id="flow_route_17_duration_20250327_2200.0" depart="0.00" departLane="137406408#0_0" departPos="24.41" departSpeed="0.00" departDelay="0.00" arrival="22.00" arrivalLane="1254771874#0_0" arrivalPos="63.27" arrivalSpeed="16.22" duration="22.00" routeLength="182.06" waitingTime="0.00" waitingCount="0" stopTime="0.00" timeLoss="9.94" rerouteNo="0" devices="tripinfo_flow_route_17_duration_20250327_2200.0" vType="car" speedFactor="0.89" vaporized=""/>
    <tripinfo id="flow_route_9_duration_20250327_2200.0" depart="0.00" departLane="1318793173#0_0" departPos="0.65" departSpeed="0.00" departDelay="0.00" arrival="24.00" arrivalLane="1254771874#0_1" arrivalPos="11.63" arrivalSpeed="11.16" duration="24.00" routeLength="169.44" waitingTime="0.00" waitingCount="0" stopTime="0.00" timeLoss="12.43" rerouteNo="0" devices="tripinfo_flow_route_9_duration_20250327_2200.0" vType="car" speedFactor="1.01" vaporized=""/>
    <tripinfo id="flow_route_2_duration_20250327_2200.3" depart="12.00" departLane="1318793173#0_0" departPos="101.48" departSpeed="0.00" departDelay="0.00" arrival="29.00" arrivalLane="189835257_0" arrivalPos="33.36" arrivalSpeed="12.15" duration="17.00" routeLength="111.82" waitingTime="0.00" waitingCount="0" stopTime="0.00" timeLoss="9.61" rerouteNo="0" devices="tripinfo_flow_route_2_duration_20250327_2200.3" vType="car" speedFactor="1.03" vaporized=""/>
    <tripinfo id="flow_route_2_duration_20250327_2200.1" depart="4.00" departLane="1318793173#0_0" departPos="34.79" departSpeed="0.00" departDelay="0.00" arrival="32.00" arrivalLane="189835257_0" arrivalPos="46.11" arrivalSpeed="14.00" duration="28.00" routeLength="191.25" waitingTime="0.00" waitingCount="0" stopTime="0.00" timeLoss="14.39" rerouteNo="0" devices="tripinfo_flow_route_2_duration_20250327_2200.1" vType="car" speedFactor="0.94" vaporized=""/>
    <tripinfo id="flow_route_2_duration_20250327_2200.5" depart="20.00" departLane="1318793173#0_0" departPos="82.62" departSpeed="0.00" departDelay="0.00" arrival="36.00" arrivalLane="189835257_0" arrivalPos="1.71" arrivalSpeed="12.90" duration="16.00" routeLength="99.03" waitingTime="0.00" waitingCount="0" stopTime="0.00" timeLoss="9.17" rerouteNo="0" devices="tripinfo_flow_route_2_duration_20250327_2200.5" vType="car" speedFactor="1.12" vaporized=""/>
    <tripinfo id="flow_route_9_duration_20250327_2200.1" depart="10.00" departLane="1318793173#0_0" departPos="33.18" departSpeed="0.00" departDelay="0.00" arrival="39.00" arrivalLane="1254771874#0_1" arrivalPos="131.12" arrivalSpeed="16.11" duration="29.00" routeLength="256.41" waitingTime="0.00" waitingCount="0" stopTime="0.00" timeLoss="11.83" rerouteNo="0" devices="tripinfo_flow_route_9_duration_20250327_2200.1" vType="car" speedFactor="1.09" vaporized=""/>
    <tripinfo id="flow_route_2_duration_20250327_2200.2" depart="8.00" departLane="1318793173#0_0" departPos="4.99" departSpeed="0.00" departDelay="0.00" arrival="40.00" arrivalLane="189835257_0" arrivalPos="36.00" arrivalSpeed="14.00" duration="32.00" routeLength="210.95" waitingTime="0.00" waitingCount="0" stopTime="0.00" timeLoss="16.39" rerouteNo="0" devices="tripinfo_flow_route_2_duration_20250327_2200.2" vType="car" speedFactor="0.86" vaporized=""/>
    <tripinfo id="flow_route_13_duration_20250327_2200.0" depart="0.00" departLane="1252820503#0_0" departPos="99.64" departSpeed="0.00" departDelay="0.00" arrival="43.00" arrivalLane="291974733#0_0" arrivalPos="46.05" arrivalSpeed="9.62" duration="43.00" routeLength="103.57" waitingTime="19.00" waitingCount="1" stopTime="0.00" timeLoss="35.74" rerouteNo="0" devices="tripinfo_flow_route_13_duration_20250327_2200.0" vType="car" speedFactor="1.08" vaporized=""/>
    <tripinfo id="flow_route_2_duration_20250327_2200.4" depart="19.00" departLane="1318793173#0_0" departPos="25.58" departSpeed="0.00" departDelay="3.00" arrival="43.00" arrivalLane="189835257_0" arrivalPos="43.41" arrivalSpeed="16.51" duration="24.00" routeLength="197.77" waitingTime="0.00" waitingCount="0" stopTime="0.00" timeLoss="10.85" rerouteNo="0" devices="tripinfo_flow_route_2_duration_20250327_2200.4" vType="car" speedFactor="1.05" vaporized=""/>
    <tripinfo id="flow_route_15_duration_20250327_2200.0" depart="1.00" departLane="1252820503#0_0" departPos="8.92" departSpeed="0.00" departDelay="1.00" arrival="44.00" arrivalLane="133126040#0_1" arrivalPos="4.72" arrivalSpeed="8.10" duration="43.00" routeLength="174.98" waitingTime="10.00" waitingCount="1" stopTime="0.00" timeLoss="31.37" rerouteNo="0" devices="tripinfo_flow_route_15_duration_20250327_2200.0" vType="car" speedFactor="0.83" vaporized=""/>
    <tripinfo id="flow_route_2_duration_20250327_2200.8" depart="33.00" departLane="1318793173#0_0" departPos="87.72" departSpeed="0.00" departDelay="1.00" arrival="49.00" arrivalLane="189835257_0" arrivalPos="8.84" arrivalSpeed="12.27" duration="16.00" routeLength="101.06" waitingTime="0.00" waitingCount="0" stopTime="0.00" timeLoss="9.54" rerouteNo="0" devices="tripinfo_flow_route_2_duration_20250327_2200.8" vType="car" speedFactor="1.16" vaporized=""/>
    <tripinfo id="flow_route_2_duration_20250327_2200.7" depart="28.00" departLane="1318793173#0_0" departPos="35.80" departSpeed="0.00" departDelay="0.00" arrival="53.00" arrivalLane="189835257_0" arrivalPos="36.08" arrivalSpeed="13.98" duration="25.00" routeLength="180.21" waitingTime="0.00" waitingCount="0" stopTime="0.00" timeLoss="11.99" rerouteNo="0" devices="tripinfo_flow_route_2_duration_20250327_2200.7" vType="car" speedFactor="0.88" vaporized=""/>
    <tripinfo id="flow_route_14_duration_20250327_2200.1" depart="31.00" departLane="1252820503#0_0" departPos="33.03" departSpeed="0.00" departDelay="1.00" arrival="54.00" arrivalLane="1254771874#0_0" arrivalPos="32.05" arrivalSpeed="16.34" duration="23.00" routeLength="208.90" waitingTime="0.00" waitingCount="0" stopTime="0.00" timeLoss="10.16" rerouteNo="0" devices="tripinfo_flow_route_14_duration_20250327_2200.1" vType="car" speedFactor="0.94" vaporized=""/>
    <tripinfo id="flow_route_14_duration_20250327_2200.0" depart="0.00" departLane="1252820503#0_0" departPos="69.02" departSpeed="0.00" departDelay="0.00" arrival="56.00" arrivalLane="1254771874#0_0" arrivalPos="150.80" arrivalSpeed="16.25" duration="56.00" routeLength="291.67" waitingTime="15.00" waitingCount="1" stopTime="0.00" timeLoss="37.98" rerouteNo="0" devices="tripinfo_flow_route_14_duration_20250327_2200.0" vType="car" speedFactor="1.03" vaporized=""/>
    <tripinfo id="flow_route_2_duration_20250327_2200.6" depart="24.00" departLane="1318793173#0_0" departPos="3.22" departSpeed="0.00" departDelay="0.00" arrival="56.00" arrivalLane="189835257_0" arrivalPos="50.37" arrivalSpeed="15.23" duration="32.00" routeLength="227.09" waitingTime="0.00" waitingCount="0" stopTime="0.00" timeLoss="16.31" rerouteNo="0" devices="tripinfo_flow_route_2_duration_20250327_2200.6" vType="car" speedFactor="0.93" vaporized=""/>
    <tripinfo id="flow_route_2_duration_20250327_2200.9" depart="40.00" departLane="1318793173#0_0" departPos="33.26" departSpeed="0.00" departDelay="4.00" arrival="62.00" arrivalLane="189835257_0" arrivalPos="4.69" arrivalSpeed="14.13" duration="22.00" routeLength="151.37" waitingTime="0.00" waitingCount="0" stopTime="0.00" timeLoss="11.48" rerouteNo="0" devices="tripinfo_flow_route_2_duration_20250327_2200.9" vType="car" speedFactor="1.02" vaporized=""/>
    <tripinfo id="flow_route_2_duration_20250327_2200.10" depart="40.00" departLane="1318793173#0_0" departPos="53.23" departSpeed="0.00" departDelay="0.00" arrival="63.00" arrivalLane="189835257_0" arrivalPos="49.24" arrivalSpeed="15.36" duration="23.00" routeLength="175.95" waitingTime="0.00" waitingCount="0" stopTime="0.00" timeLoss="11.34" rerouteNo="0" devices="tripinfo_flow_route_2_duration_20250327_2200.10" vType="car" speedFactor="1.01" vaporized=""/>
    <tripinfo id="flow_route_2_duration_20250327_2200.14" depart="56.00" departLane="1318793173#0_0" departPos="107.23" departSpeed="0.00" departDelay="0.00" arrival="71.00" arrivalLane="189835257_0" arrivalPos="9.42" arrivalSpeed="10.64" duration="15.00" routeLength="82.13" waitingTime="0.00" waitingCount="0" stopTime="0.00" timeLoss="8.71" rerouteNo="0" devices="tripinfo_flow_route_2_duration_20250327_2200.14" vType="car" speedFactor="0.95" vaporized=""/>
    <tripinfo id="flow_route_2_duration_20250327_2200.11" depart="45.00" departLane="1318793173#0_0" departPos="19.82" departSpeed="0.00" departDelay="1.00" arrival="73.00" arrivalLane="189835257_0" arrivalPos="8.87" arrivalSpeed="11.43" duration="28.00" routeLength="168.99" waitingTime="0.00" waitingCount="0" stopTime="0.00" timeLoss="15.29" rerouteNo="0" devices="tripinfo_flow_route_2_duration_20250327_2200.11" vType="car" speedFactor="0.89" vaporized=""/>
    <tripinfo id="flow_route_9_duration_20250327_2200.3" depart="32.00" departLane="1318793173#0_0" departPos="61.77" departSpeed="0.00" departDelay="2.00" arrival="76.00" arrivalLane="1254771874#0_1" arrivalPos="33.07" arrivalSpeed="11.86" duration="44.00" routeLength="129.77" waitingTime="17.00" waitingCount="1" stopTime="0.00" timeLoss="34.12" rerouteNo="0" devices="tripinfo_flow_route_9_duration_20250327_2200.3" vType="car" speedFactor="0.94" vaporized=""/>
    <tripinfo id="flow_route_2_duration_20250327_2200.12" depart="48.00" departLane="1318793173#0_0" departPos="16.41" departSpeed="0.00" departDelay="0.00" arrival="76.00" arrivalLane="189835257_0" arrivalPos="33.79" arrivalSpeed="12.38" duration="28.00" routeLength="197.32" waitingTime="0.00" waitingCount="0" stopTime="0.00" timeLoss="13.00" rerouteNo="0" devices="tripinfo_flow_route_2_duration_20250327_2200.12" vType="car" speedFactor="0.83" vaporized=""/>
    <tripinfo id="flow_route_9_duration_20250327_2200.2" depart="20.00" departLane="1318793173#0_0" departPos="17.19" departSpeed="0.00" departDelay="0.00" arrival="78.00" arrivalLane="1254771874#0_1" arrivalPos="77.14" arrivalSpeed="13.84" duration="58.00" routeLength="218.41" waitingTime="21.00" waitingCount="1" stopTime="0.00" timeLoss="42.73" rerouteNo="0" devices="tripinfo_flow_route_9_duration_20250327_2200.2" vType="car" speedFactor="0.99" vaporized=""/>
    <tripinfo id="flow_route_9_duration_20250327_2200.5" depart="51.00" departLane="1318793173#0_0" departPos="59.09" departSpeed="0.00" departDelay="1.00" arrival="78.00" arrivalLane="1254771874#0_1" arrivalPos="7.12" arrivalSpeed="9.98" duration="27.00" routeLength="106.50" waitingTime="2.00" waitingCount="1" stopTime="0.00" timeLoss="18.60" rerouteNo="0" devices="tripinfo_flow_route_9_duration_20250327_2200.5" vType="car" speedFactor="0.87" vaporized=""/>
    <tripinfo id="flow_route_2_duration_20250327_2200.13" depart="52.00" departLane="1318793173#0_0" departPos="7.24" departSpeed="0.00" departDelay="0.00" arrival="79.00" arrivalLane="189835257_0" arrivalPos="48.87" arrivalSpeed="14.83" duration="27.00" routeLength="221.58" waitingTime="0.00" waitingCount="0" stopTime="0.00" timeLoss="11.70" rerouteNo="0" devices="tripinfo_flow_route_2_duration_20250327_2200.13" vType="car" speedFactor="0.92" vaporized=""/>
    <tripinfo id="flow_route_9_duration_20250327_2200.4" depart="40.00" departLane="1318793173#0_0" departPos="62.69" departSpeed="0.00" departDelay="0.00" arrival="92.00" arrivalLane="1254771874#0_0" arrivalPos="245.38" arrivalSpeed="16.43" duration="52.00" routeLength="341.16" waitingTime="11.00" waitingCount="1" stopTime="0.00" timeLoss="29.44" rerouteNo="0" devices="tripinfo_flow_route_9_duration_20250327_2200.4" vType="car" speedFactor="0.97" vaporized=""/>
</tripinfos>
