<?xml version="1.0" encoding="UTF-8"?>

<!-- generated on 2025-05-06 21:08:33 by Eclipse SUMO sumo Version 1.20.0
<configuration xmlns:xsi="http://www.w3.org/2001/XMLSchema-instance" xsi:noNamespaceSchemaLocation="http://sumo.dlr.de/xsd/sumoConfiguration.xsd">

    <input>
        <net-file value="osm.net.xml"/>
        <route-files value="xml/route_rl_J7_5.rou.xml"/>
    </input>

    <output>
        <tripinfo-output value="xml/tripinfo_rl_J7_5.xml"/>
    </output>

    <traci_server>
        <remote-port value="55803"/>
    </traci_server>

</configuration>
-->

<tripinfos xmlns:xsi="http://www.w3.org/2001/XMLSchema-instance" xsi:noNamespaceSchemaLocation="http://sumo.dlr.de/xsd/tripinfo_file.xsd">
    <tripinfo id="flow_route_127_duration_20250327_2050.1" depart="6.00" departLane="-138000461_0" departPos="174.20" departSpeed="0.00" departDelay="1.00" arrival="25.00" arrivalLane="189240000#0-AddedOnRampEdge_0" arrivalPos="48.43" arrivalSpeed="13.66" duration="19.00" routeLength="133.34" waitingTime="0.00" waitingCount="0" stopTime="0.00" timeLoss="10.35" rerouteNo="0" devices="tripinfo_flow_route_127_duration_20250327_2050.1" vType="car" speedFactor="1.09" vaporized=""/>
    <tripinfo id="flow_route_131_duration_20250327_2050.0" depart="0.00" departLane="714011134#0_0" departPos="6.35" departSpeed="0.00" departDelay="0.00" arrival="26.00" arrivalLane="134194079#0_0" arrivalPos="73.02" arrivalSpeed="14.38" duration="26.00" routeLength="232.63" waitingTime="0.00" waitingCount="0" stopTime="0.00" timeLoss="9.74" rerouteNo="0" devices="tripinfo_flow_route_131_duration_20250327_2050.0" vType="car" speedFactor="0.89" vaporized=""/>
    <tripinfo id="flow_route_127_duration_20250327_2050.3" depart="15.00" departLane="-138000461_0" departPos="171.54" departSpeed="0.00" departDelay="0.00" arrival="33.00" arrivalLane="189240000#0-AddedOnRampEdge_0" arrivalPos="21.07" arrivalSpeed="10.71" duration="18.00" routeLength="108.64" waitingTime="0.00" waitingCount="0" stopTime="0.00" timeLoss="10.28" rerouteNo="0" devices="tripinfo_flow_route_127_duration_20250327_2050.3" vType="car" speedFactor="1.02" vaporized=""/>
    <tripinfo id="flow_route_132_duration_20250327_2050.0" depart="0.00" departLane="714011134#0_0" departPos="92.28" departSpeed="0.00" departDelay="0.00" arrival="34.00" arrivalLane="189240000#0-AddedOnRampEdge_1" arrivalPos="51.48" arrivalSpeed="15.25" duration="34.00" routeLength="375.34" waitingTime="0.00" waitingCount="0" stopTime="0.00" timeLoss="9.98" rerouteNo="0" devices="tripinfo_flow_route_132_duration_20250327_2050.0" vType="car" speedFactor="0.94" vaporized=""/>
    <tripinfo id="flow_route_127_duration_20250327_2050.2" depart="10.00" departLane="-138000461_0" departPos="144.78" departSpeed="0.00" departDelay="0.00" arrival="35.00" arrivalLane="189240000#0-AddedOnRampEdge_0" arrivalPos="15.02" arrivalSpeed="10.17" duration="25.00" routeLength="129.36" waitingTime="0.00" waitingCount="0" stopTime="0.00" timeLoss="15.96" rerouteNo="0" devices="tripinfo_flow_route_127_duration_20250327_2050.2" vType="car" speedFactor="0.93" vaporized=""/>
    <tripinfo id="flow_route_132_duration_20250327_2050.1" depart="6.00" departLane="714011134#0_0" departPos="93.55" departSpeed="0.00" departDelay="1.00" arrival="38.00" arrivalLane="189240000#0-AddedOnRampEdge_1" arrivalPos="28.99" arrivalSpeed="16.15" duration="32.00" routeLength="351.58" waitingTime="0.00" waitingCount="0" stopTime="0.00" timeLoss="10.34" rerouteNo="0" devices="tripinfo_flow_route_132_duration_20250327_2050.1" vType="car" speedFactor="1.03" vaporized=""/>
    <tripinfo id="flow_route_116_duration_20250327_2050.0" depart="0.00" departLane="177211987#1_0" departPos="0.88" departSpeed="0.00" departDelay="0.00" arrival="39.00" arrivalLane="688883939#0_1" arrivalPos="93.94" arrivalSpeed="16.42" duration="39.00" routeLength="448.08" waitingTime="0.00" waitingCount="0" stopTime="0.00" timeLoss="11.21" rerouteNo="0" devices="tripinfo_flow_route_116_duration_20250327_2050.0" vType="car" speedFactor="1.06" vaporized=""/>
    <tripinfo id="flow_route_121_duration_20250327_2050.0" depart="1.00" departLane="799091563#0_0" departPos="259.58" departSpeed="0.00" departDelay="1.00" arrival="41.00" arrivalLane="134194079#0_0" arrivalPos="144.99" arrivalSpeed="15.31" duration="40.00" routeLength="274.57" waitingTime="1.00" waitingCount="1" stopTime="0.00" timeLoss="22.23" rerouteNo="0" devices="tripinfo_flow_route_121_duration_20250327_2050.0" vType="car" speedFactor="1.08" vaporized=""/>
    <tripinfo id="flow_route_127_duration_20250327_2050.0" depart="0.00" departLane="-138000461_0" departPos="55.90" departSpeed="0.00" departDelay="0.00" arrival="41.00" arrivalLane="189240000#0-AddedOnRampEdge_0" arrivalPos="70.17" arrivalSpeed="14.16" duration="41.00" routeLength="273.38" waitingTime="0.00" waitingCount="0" stopTime="0.00" timeLoss="23.89" rerouteNo="0" devices="tripinfo_flow_route_127_duration_20250327_2050.0" vType="car" speedFactor="1.05" vaporized=""/>
    <tripinfo id="flow_route_127_duration_20250327_2050.4" depart="20.00" departLane="-138000461_0" departPos="104.10" departSpeed="0.00" departDelay="0.00" arrival="48.00" arrivalLane="189240000#0-AddedOnRampEdge_0" arrivalPos="65.29" arrivalSpeed="12.22" duration="28.00" routeLength="220.31" waitingTime="0.00" waitingCount="0" stopTime="0.00" timeLoss="11.89" rerouteNo="0" devices="tripinfo_flow_route_127_duration_20250327_2050.4" vType="car" speedFactor="0.83" vaporized=""/>
    <tripinfo id="flow_route_126_duration_20250327_2050.0" depart="0.00" departLane="-138000461_0" departPos="119.67" departSpeed="0.00" departDelay="0.00" arrival="52.00" arrivalLane="138000492#0_1" arrivalPos="18.35" arrivalSpeed="13.72" duration="52.00" routeLength="582.25" waitingTime="0.00" waitingCount="0" stopTime="0.00" timeLoss="9.12" rerouteNo="0" devices="tripinfo_flow_route_126_duration_20250327_2050.0" vType="car" speedFactor="0.83" vaporized=""/>
    <tripinfo id="flow_route_132_duration_20250327_2050.2" depart="10.00" departLane="714011134#0_0" departPos="34.92" departSpeed="0.00" departDelay="0.00" arrival="52.00" arrivalLane="189240000#0-AddedOnRampEdge_1" arrivalPos="90.31" arrivalSpeed="14.18" duration="42.00" routeLength="471.54" waitingTime="0.00" waitingCount="0" stopTime="0.00" timeLoss="9.20" rerouteNo="0" devices="tripinfo_flow_route_132_duration_20250327_2050.2" vType="car" speedFactor="0.88" vaporized=""/>
    <tripinfo id="flow_route_127_duration_20250327_2050.5" depart="26.00" departLane="-138000461_0" departPos="37.82" departSpeed="0.00" departDelay="1.00" arrival="56.00" arrivalLane="189240000#0-AddedOnRampEdge_0" arrivalPos="2.63" arrivalSpeed="9.77" duration="30.00" routeLength="223.91" waitingTime="0.00" waitingCount="0" stopTime="0.00" timeLoss="16.48" rerouteNo="0" devices="tripinfo_flow_route_127_duration_20250327_2050.5" vType="car" speedFactor="1.13" vaporized=""/>
    <tripinfo id="flow_route_127_duration_20250327_2050.6" depart="30.00" departLane="-138000461_0" departPos="74.36" departSpeed="0.00" departDelay="0.00" arrival="56.00" arrivalLane="189240000#0-AddedOnRampEdge_0" arrivalPos="19.56" arrivalSpeed="10.51" duration="26.00" routeLength="204.31" waitingTime="0.00" waitingCount="0" stopTime="0.00" timeLoss="13.17" rerouteNo="0" devices="tripinfo_flow_route_127_duration_20250327_2050.6" vType="car" speedFactor="0.99" vaporized=""/>
    <tripinfo id="flow_route_132_duration_20250327_2050.3" depart="15.00" departLane="714011134#0_0" departPos="9.38" departSpeed="0.00" departDelay="0.00" arrival="57.00" arrivalLane="189240000#0-AddedOnRampEdge_2" arrivalPos="15.86" arrivalSpeed="16.36" duration="42.00" routeLength="422.61" waitingTime="0.00" waitingCount="0" stopTime="0.00" timeLoss="16.21" rerouteNo="0" devices="tripinfo_flow_route_132_duration_20250327_2050.3" vType="car" speedFactor="1.01" vaporized=""/>
    <tripinfo id="flow_route_132_duration_20250327_2050.5" depart="25.00" departLane="714011134#0_0" departPos="97.81" departSpeed="0.00" departDelay="0.00" arrival="57.00" arrivalLane="189240000#0-AddedOnRampEdge_1" arrivalPos="26.33" arrivalSpeed="15.42" duration="32.00" routeLength="344.65" waitingTime="0.00" waitingCount="0" stopTime="0.00" timeLoss="9.17" rerouteNo="0" devices="tripinfo_flow_route_132_duration_20250327_2050.5" vType="car" speedFactor="0.93" vaporized=""/>
    <tripinfo id="flow_route_131_duration_20250327_2050.1" depart="20.00" departLane="714011134#0_0" departPos="61.13" departSpeed="0.00" departDelay="0.00" arrival="58.00" arrivalLane="134194079#0_0" arrivalPos="275.86" arrivalSpeed="14.20" duration="38.00" routeLength="380.69" waitingTime="0.00" waitingCount="0" stopTime="0.00" timeLoss="11.42" rerouteNo="0" devices="tripinfo_flow_route_131_duration_20250327_2050.1" vType="car" speedFactor="0.87" vaporized=""/>
    <tripinfo id="flow_route_133_duration_20250327_2050.0" depart="0.00" departLane="714011134#0_0" departPos="33.93" departSpeed="0.00" departDelay="0.00" arrival="59.00" arrivalLane="138000492#0_0" arrivalPos="313.58" arrivalSpeed="13.96" duration="59.00" routeLength="604.48" waitingTime="0.00" waitingCount="0" stopTime="0.00" timeLoss="15.57" rerouteNo="0" devices="tripinfo_flow_route_133_duration_20250327_2050.0" vType="car" speedFactor="0.86" vaporized=""/>
    <tripinfo id="flow_route_117_duration_20250327_2050.0" depart="0.00" departLane="177211987#1_0" departPos="98.51" departSpeed="0.00" departDelay="0.00" arrival="62.00" arrivalLane="138000492#0_0" arrivalPos="299.85" arrivalSpeed="15.26" duration="62.00" routeLength="701.60" waitingTime="0.00" waitingCount="0" stopTime="0.00" timeLoss="16.19" rerouteNo="0" devices="tripinfo_flow_route_117_duration_20250327_2050.0" vType="car" speedFactor="0.94" vaporized=""/>
    <tripinfo id="flow_route_132_duration_20250327_2050.4" depart="22.00" departLane="714011134#0_0" departPos="19.32" departSpeed="0.00" departDelay="2.00" arrival="65.00" arrivalLane="189240000#0-AddedOnRampEdge_1" arrivalPos="90.63" arrivalSpeed="15.28" duration="43.00" routeLength="487.44" waitingTime="0.00" waitingCount="0" stopTime="0.00" timeLoss="10.21" rerouteNo="0" devices="tripinfo_flow_route_132_duration_20250327_2050.4" vType="car" speedFactor="0.92" vaporized=""/>
    <tripinfo id="flow_route_132_duration_20250327_2050.6" depart="30.00" departLane="714011134#0_0" departPos="30.57" departSpeed="0.00" departDelay="0.00" arrival="65.00" arrivalLane="189240000#0-AddedOnRampEdge_1" arrivalPos="17.06" arrivalSpeed="16.49" duration="35.00" routeLength="402.63" waitingTime="0.00" waitingCount="0" stopTime="0.00" timeLoss="10.40" rerouteNo="0" devices="tripinfo_flow_route_132_duration_20250327_2050.6" vType="car" speedFactor="1.02" vaporized=""/>
    <tripinfo id="flow_route_127_duration_20250327_2050.7" depart="37.00" departLane="-138000461_0" departPos="63.98" departSpeed="0.00" departDelay="2.00" arrival="66.00" arrivalLane="189240000#0-AddedOnRampEdge_0" arrivalPos="36.80" arrivalSpeed="11.43" duration="29.00" routeLength="231.93" waitingTime="0.00" waitingCount="0" stopTime="0.00" timeLoss="12.82" rerouteNo="0" devices="tripinfo_flow_route_127_duration_20250327_2050.7" vType="car" speedFactor="0.90" vaporized=""/>
    <tripinfo id="flow_route_133_duration_20250327_2050.1" depart="30.00" departLane="714011134#0_0" departPos="22.38" departSpeed="0.00" departDelay="0.00" arrival="69.00" arrivalLane="138000492#0_1" arrivalPos="19.71" arrivalSpeed="11.39" duration="39.00" routeLength="322.17" waitingTime="0.00" waitingCount="0" stopTime="0.00" timeLoss="17.65" rerouteNo="0" devices="tripinfo_flow_route_133_duration_20250327_2050.1" vType="car" speedFactor="0.97" vaporized=""/>
    <tripinfo id="flow_route_131_duration_20250327_2050.2" depart="42.00" departLane="714011134#0_0" departPos="43.32" departSpeed="0.00" departDelay="2.00" arrival="71.00" arrivalLane="134194079#0_1" arrivalPos="145.35" arrivalSpeed="16.51" duration="29.00" routeLength="267.99" waitingTime="0.00" waitingCount="0" stopTime="0.00" timeLoss="12.80" rerouteNo="0" devices="tripinfo_flow_route_131_duration_20250327_2050.2" vType="car" speedFactor="1.04" vaporized=""/>
    <tripinfo id="flow_route_117_duration_20250327_2050.1" depart="7.00" departLane="177211987#1_0" departPos="79.67" departSpeed="0.00" departDelay="0.33" arrival="73.00" arrivalLane="138000492#0_0" arrivalPos="166.90" arrivalSpeed="16.20" duration="66.00" routeLength="587.48" waitingTime="5.00" waitingCount="1" stopTime="0.00" timeLoss="29.82" rerouteNo="0" devices="tripinfo_flow_route_117_duration_20250327_2050.1" vType="car" speedFactor="1.05" vaporized=""/>
    <tripinfo id="flow_route_127_duration_20250327_2050.8" depart="42.00" departLane="-138000461_0" departPos="62.62" departSpeed="0.00" departDelay="2.00" arrival="74.00" arrivalLane="189240000#0-AddedOnRampEdge_0" arrivalPos="87.32" arrivalSpeed="15.17" duration="32.00" routeLength="283.81" waitingTime="0.00" waitingCount="0" stopTime="0.00" timeLoss="13.92" rerouteNo="0" devices="tripinfo_flow_route_127_duration_20250327_2050.8" vType="car" speedFactor="1.04" vaporized=""/>
    <tripinfo id="flow_route_127_duration_20250327_2050.9" depart="45.00" departLane="-138000461_0" departPos="29.83" departSpeed="0.00" departDelay="0.00" arrival="76.00" arrivalLane="189240000#0-AddedOnRampEdge_0" arrivalPos="26.55" arrivalSpeed="9.78" duration="31.00" routeLength="255.83" waitingTime="0.00" waitingCount="0" stopTime="0.00" timeLoss="12.57" rerouteNo="0" devices="tripinfo_flow_route_127_duration_20250327_2050.9" vType="car" speedFactor="0.85" vaporized=""/>
    <tripinfo id="flow_route_127_duration_20250327_2050.10" depart="51.00" departLane="-138000461_0" departPos="32.45" departSpeed="0.00" departDelay="1.00" arrival="80.00" arrivalLane="189240000#0-AddedOnRampEdge_0" arrivalPos="36.88" arrivalSpeed="12.12" duration="29.00" routeLength="263.54" waitingTime="0.00" waitingCount="0" stopTime="0.00" timeLoss="12.87" rerouteNo="0" devices="tripinfo_flow_route_127_duration_20250327_2050.10" vType="car" speedFactor="1.02" vaporized=""/>
    <tripinfo id="flow_route_132_duration_20250327_2050.9" depart="45.00" departLane="714011134#0_0" departPos="92.95" departSpeed="0.00" departDelay="0.00" arrival="82.00" arrivalLane="189240000#0-AddedOnRampEdge_1" arrivalPos="67.24" arrivalSpeed="13.97" duration="37.00" routeLength="390.43" waitingTime="0.00" waitingCount="0" stopTime="0.00" timeLoss="8.85" rerouteNo="0" devices="tripinfo_flow_route_132_duration_20250327_2050.9" vType="car" speedFactor="0.85" vaporized=""/>
    <tripinfo id="flow_route_132_duration_20250327_2050.10" depart="50.00" departLane="714011134#0_0" departPos="89.11" departSpeed="0.00" departDelay="0.00" arrival="85.00" arrivalLane="189240000#0-AddedOnRampEdge_1" arrivalPos="63.76" arrivalSpeed="16.52" duration="35.00" routeLength="390.79" waitingTime="0.00" waitingCount="0" stopTime="0.00" timeLoss="10.53" rerouteNo="0" devices="tripinfo_flow_route_132_duration_20250327_2050.10" vType="car" speedFactor="1.10" vaporized=""/>
    <tripinfo id="flow_route_132_duration_20250327_2050.7" depart="36.00" departLane="714011134#0_0" departPos="2.51" departSpeed="0.00" departDelay="1.00" arrival="86.00" arrivalLane="189240000#0-AddedOnRampEdge_1" arrivalPos="48.42" arrivalSpeed="16.25" duration="50.00" routeLength="462.04" waitingTime="0.00" waitingCount="0" stopTime="0.00" timeLoss="21.42" rerouteNo="0" devices="tripinfo_flow_route_132_duration_20250327_2050.7" vType="car" speedFactor="1.03" vaporized=""/>
    <tripinfo id="flow_route_127_duration_20250327_2050.11" depart="55.00" departLane="-138000461_0" departPos="21.74" departSpeed="0.00" departDelay="0.00" arrival="86.00" arrivalLane="189240000#0-AddedOnRampEdge_0" arrivalPos="64.28" arrivalSpeed="14.45" duration="31.00" routeLength="301.65" waitingTime="0.00" waitingCount="0" stopTime="0.00" timeLoss="12.79" rerouteNo="0" devices="tripinfo_flow_route_127_duration_20250327_2050.11" vType="car" speedFactor="1.14" vaporized=""/>
    <tripinfo id="flow_route_132_duration_20250327_2050.8" depart="43.00" departLane="714011134#0_0" departPos="10.70" departSpeed="0.00" departDelay="3.00" arrival="87.00" arrivalLane="189240000#0-AddedOnRampEdge_1" arrivalPos="40.13" arrivalSpeed="16.46" duration="44.00" routeLength="445.57" waitingTime="0.00" waitingCount="0" stopTime="0.00" timeLoss="16.48" rerouteNo="0" devices="tripinfo_flow_route_132_duration_20250327_2050.8" vType="car" speedFactor="1.09" vaporized=""/>
    <tripinfo id="flow_route_121_duration_20250327_2050.5" depart="38.00" departLane="799091563#0_0" departPos="332.46" departSpeed="0.00" departDelay="0.50" arrival="91.00" arrivalLane="134194079#0_0" arrivalPos="30.89" arrivalSpeed="7.57" duration="53.00" routeLength="87.59" waitingTime="25.00" waitingCount="1" stopTime="0.00" timeLoss="45.99" rerouteNo="0" devices="tripinfo_flow_route_121_duration_20250327_2050.5" vType="car" speedFactor="0.96" vaporized=""/>
    <tripinfo id="flow_route_122_duration_20250327_2050.0" depart="1.00" departLane="799091563#0_0" departPos="17.54" departSpeed="0.00" departDelay="1.00" arrival="92.00" arrivalLane="688883939#0_2" arrivalPos="62.20" arrivalSpeed="14.24" duration="91.00" routeLength="483.30" waitingTime="37.00" waitingCount="1" stopTime="0.00" timeLoss="61.08" rerouteNo="0" devices="tripinfo_flow_route_122_duration_20250327_2050.0" vType="car" speedFactor="1.03" vaporized=""/>
    <tripinfo id="flow_route_132_duration_20250327_2050.11" depart="59.00" departLane="714011134#0_0" departPos="57.88" departSpeed="0.00" departDelay="4.00" arrival="96.00" arrivalLane="189240000#0-AddedOnRampEdge_1" arrivalPos="55.96" arrivalSpeed="16.27" duration="37.00" routeLength="414.21" waitingTime="0.00" waitingCount="0" stopTime="0.00" timeLoss="11.74" rerouteNo="0" devices="tripinfo_flow_route_132_duration_20250327_2050.11" vType="car" speedFactor="1.02" vaporized=""/>
    <tripinfo id="flow_route_121_duration_20250327_2050.2" depart="15.00" departLane="799091563#0_0" departPos="91.66" departSpeed="0.00" departDelay="0.00" arrival="100.00" arrivalLane="134194079#0_0" arrivalPos="77.91" arrivalSpeed="11.61" duration="85.00" routeLength="375.41" waitingTime="24.00" waitingCount="1" stopTime="0.00" timeLoss="61.27" rerouteNo="0" devices="tripinfo_flow_route_121_duration_20250327_2050.2" vType="car" speedFactor="1.16" vaporized=""/>
    <tripinfo id="flow_route_120_duration_20250327_2050.0" depart="0.00" departLane="799091563#0_0" departPos="177.01" departSpeed="0.00" departDelay="0.00" arrival="102.00" arrivalLane="138000492#0_0" arrivalPos="19.14" arrivalSpeed="11.50" duration="102.00" routeLength="440.29" waitingTime="50.00" waitingCount="1" stopTime="0.00" timeLoss="74.86" rerouteNo="0" devices="tripinfo_flow_route_120_duration_20250327_2050.0" vType="car" speedFactor="1.01" vaporized=""/>
    <tripinfo id="flow_route_121_duration_20250327_2050.1" depart="8.00" departLane="799091563#0_0" departPos="12.31" departSpeed="0.00" departDelay="0.50" arrival="102.00" arrivalLane="134194079#0_0" arrivalPos="69.84" arrivalSpeed="11.89" duration="94.00" routeLength="446.69" waitingTime="22.00" waitingCount="1" stopTime="0.00" timeLoss="65.44" rerouteNo="0" devices="tripinfo_flow_route_121_duration_20250327_2050.1" vType="car" speedFactor="1.12" vaporized=""/>
    <tripinfo id="flow_route_121_duration_20250327_2050.4" depart="30.00" departLane="799091563#0_0" departPos="274.11" departSpeed="0.00" departDelay="0.00" arrival="104.00" arrivalLane="134194079#0_0" arrivalPos="167.32" arrivalSpeed="16.10" duration="74.00" routeLength="282.37" waitingTime="24.00" waitingCount="1" stopTime="0.00" timeLoss="55.89" rerouteNo="0" devices="tripinfo_flow_route_121_duration_20250327_2050.4" vType="car" speedFactor="1.17" vaporized=""/>
    <tripinfo id="flow_route_120_duration_20250327_2050.3" depart="26.00" departLane="799091563#0_0" departPos="376.78" departSpeed="0.00" departDelay="0.29" arrival="111.00" arrivalLane="138000492#0_1" arrivalPos="28.19" arrivalSpeed="10.06" duration="85.00" routeLength="249.56" waitingTime="47.00" waitingCount="2" stopTime="0.00" timeLoss="69.58" rerouteNo="0" devices="tripinfo_flow_route_120_duration_20250327_2050.3" vType="car" speedFactor="1.18" vaporized=""/>
    <tripinfo id="flow_route_121_duration_20250327_2050.3" depart="23.00" departLane="799091563#0_0" departPos="57.65" departSpeed="0.00" departDelay="0.50" arrival="114.00" arrivalLane="134194079#0_0" arrivalPos="189.30" arrivalSpeed="15.56" duration="91.00" routeLength="520.80" waitingTime="23.00" waitingCount="1" stopTime="0.00" timeLoss="56.19" rerouteNo="0" devices="tripinfo_flow_route_121_duration_20250327_2050.3" vType="car" speedFactor="0.95" vaporized=""/>
    <tripinfo id="flow_route_121_duration_20250327_2050.7" depart="54.00" departLane="799091563#0_0" departPos="105.29" departSpeed="0.00" departDelay="1.50" arrival="120.00" arrivalLane="134194079#0_1" arrivalPos="195.69" arrivalSpeed="16.52" duration="66.00" routeLength="479.56" waitingTime="2.00" waitingCount="1" stopTime="0.00" timeLoss="35.61" rerouteNo="0" devices="tripinfo_flow_route_121_duration_20250327_2050.7" vType="car" speedFactor="1.00" vaporized=""/>
    <tripinfo id="flow_route_121_duration_20250327_2050.6" depart="46.00" departLane="799091563#0_0" departPos="141.11" departSpeed="0.00" departDelay="1.00" arrival="121.00" arrivalLane="134194079#0_0" arrivalPos="230.41" arrivalSpeed="14.39" duration="75.00" routeLength="478.46" waitingTime="9.00" waitingCount="1" stopTime="0.00" timeLoss="40.15" rerouteNo="0" devices="tripinfo_flow_route_121_duration_20250327_2050.6" vType="car" speedFactor="0.88" vaporized=""/>
    <tripinfo id="flow_route_120_duration_20250327_2050.1" depart="11.00" departLane="799091563#0_0" departPos="49.13" departSpeed="0.00" departDelay="2.43" arrival="124.00" arrivalLane="138000492#0_1" arrivalPos="126.99" arrivalSpeed="15.74" duration="113.00" routeLength="676.03" waitingTime="34.00" waitingCount="1" stopTime="0.00" timeLoss="71.77" rerouteNo="0" devices="tripinfo_flow_route_120_duration_20250327_2050.1" vType="car" speedFactor="0.99" vaporized=""/>
    <tripinfo id="flow_route_120_duration_20250327_2050.2" depart="18.00" departLane="799091563#0_0" departPos="271.71" departSpeed="0.00" departDelay="0.86" arrival="130.00" arrivalLane="138000492#0_2" arrivalPos="281.17" arrivalSpeed="16.14" duration="112.00" routeLength="607.62" waitingTime="40.00" waitingCount="1" stopTime="0.00" timeLoss="73.70" rerouteNo="0" devices="tripinfo_flow_route_120_duration_20250327_2050.2" vType="car" speedFactor="0.97" vaporized=""/>
    <tripinfo id="flow_route_120_duration_20250327_2050.4" depart="35.00" departLane="799091563#0_0" departPos="222.14" departSpeed="0.00" departDelay="0.72" arrival="135.00" arrivalLane="138000492#0_2" arrivalPos="258.87" arrivalSpeed="16.37" duration="100.00" routeLength="634.88" waitingTime="21.00" waitingCount="1" stopTime="0.00" timeLoss="60.66" rerouteNo="0" devices="tripinfo_flow_route_120_duration_20250327_2050.4" vType="car" speedFactor="1.10" vaporized=""/>
    <tripinfo id="flow_route_120_duration_20250327_2050.5" depart="43.00" departLane="799091563#0_0" departPos="177.07" departSpeed="0.00" departDelay="0.15" arrival="136.00" arrivalLane="138000492#0_1" arrivalPos="294.37" arrivalSpeed="16.31" duration="93.00" routeLength="715.46" waitingTime="11.00" waitingCount="1" stopTime="0.00" timeLoss="49.33" rerouteNo="0" devices="tripinfo_flow_route_120_duration_20250327_2050.5" vType="car" speedFactor="1.00" vaporized=""/>
    <tripinfo id="flow_route_120_duration_20250327_2050.6" depart="52.00" departLane="799091563#0_0" departPos="130.84" departSpeed="0.00" departDelay="0.57" arrival="144.00" arrivalLane="138000492#0_2" arrivalPos="380.62" arrivalSpeed="16.12" duration="92.00" routeLength="847.94" waitingTime="1.00" waitingCount="1" stopTime="0.00" timeLoss="40.04" rerouteNo="0" devices="tripinfo_flow_route_120_duration_20250327_2050.6" vType="car" speedFactor="1.00" vaporized=""/>
    <tripinfo id="flow_route_116_duration_20250327_2050.2" depart="30.00" departLane="177211987#1_0" departPos="11.71" departSpeed="0.00" departDelay="0.00" arrival="163.00" arrivalLane="688883939#0_1" arrivalPos="9.07" arrivalSpeed="9.57" duration="133.00" routeLength="352.38" waitingTime="86.00" waitingCount="1" stopTime="0.00" timeLoss="111.40" rerouteNo="0" devices="tripinfo_flow_route_116_duration_20250327_2050.2" vType="car" speedFactor="1.01" vaporized=""/>
    <tripinfo id="flow_route_116_duration_20250327_2050.3" depart="45.00" departLane="177211987#1_0" departPos="18.19" departSpeed="0.00" departDelay="0.00" arrival="167.00" arrivalLane="688883939#0_2" arrivalPos="69.78" arrivalSpeed="14.23" duration="122.00" routeLength="406.60" waitingTime="73.00" waitingCount="1" stopTime="0.00" timeLoss="94.39" rerouteNo="0" devices="tripinfo_flow_route_116_duration_20250327_2050.3" vType="car" speedFactor="0.90" vaporized=""/>
    <tripinfo id="flow_route_116_duration_20250327_2050.1" depart="15.00" departLane="177211987#1_0" departPos="83.67" departSpeed="0.00" departDelay="0.00" arrival="169.00" arrivalLane="688883939#0_0" arrivalPos="101.69" arrivalSpeed="14.89" duration="154.00" routeLength="373.05" waitingTime="108.00" waitingCount="1" stopTime="0.00" timeLoss="130.07" rerouteNo="0" devices="tripinfo_flow_route_116_duration_20250327_2050.1" vType="car" speedFactor="0.94" vaporized=""/>
    <tripinfo id="flow_route_117_duration_20250327_2050.2" depart="14.00" departLane="177211987#1_0" departPos="60.21" departSpeed="0.00" departDelay="0.67" arrival="183.00" arrivalLane="138000492#0_1" arrivalPos="52.77" arrivalSpeed="11.67" duration="169.00" routeLength="492.82" waitingTime="106.00" waitingCount="1" stopTime="0.00" timeLoss="137.16" rerouteNo="0" devices="tripinfo_flow_route_117_duration_20250327_2050.2" vType="car" speedFactor="0.94" vaporized=""/>
    <tripinfo id="flow_route_117_duration_20250327_2050.4" depart="27.00" departLane="177211987#1_0" departPos="49.62" departSpeed="0.00" departDelay="0.34" arrival="193.00" arrivalLane="138000492#0_2" arrivalPos="132.09" arrivalSpeed="16.55" duration="166.00" routeLength="582.72" waitingTime="93.00" waitingCount="1" stopTime="0.00" timeLoss="130.14" rerouteNo="0" devices="tripinfo_flow_route_117_duration_20250327_2050.4" vType="car" speedFactor="1.15" vaporized=""/>
    <tripinfo id="flow_route_117_duration_20250327_2050.3" depart="20.00" departLane="177211987#1_0" departPos="45.05" departSpeed="0.00" departDelay="0.00" arrival="195.00" arrivalLane="138000492#0_1" arrivalPos="250.92" arrivalSpeed="14.61" duration="175.00" routeLength="706.13" waitingTime="102.00" waitingCount="1" stopTime="0.00" timeLoss="126.84" rerouteNo="0" devices="tripinfo_flow_route_117_duration_20250327_2050.3" vType="car" speedFactor="0.89" vaporized=""/>
    <tripinfo id="flow_route_117_duration_20250327_2050.5" depart="35.00" departLane="177211987#1_0" departPos="120.83" departSpeed="0.00" departDelay="1.67" arrival="200.00" arrivalLane="138000492#0_1" arrivalPos="285.61" arrivalSpeed="16.47" duration="165.00" routeLength="665.04" waitingTime="95.00" waitingCount="1" stopTime="0.00" timeLoss="124.54" rerouteNo="0" devices="tripinfo_flow_route_117_duration_20250327_2050.5" vType="car" speedFactor="1.18" vaporized=""/>
    <tripinfo id="flow_route_117_duration_20250327_2050.7" depart="47.00" departLane="177211987#1_0" departPos="6.23" departSpeed="0.00" departDelay="0.34" arrival="201.00" arrivalLane="138000492#0_2" arrivalPos="202.01" arrivalSpeed="16.26" duration="154.00" routeLength="696.04" waitingTime="76.00" waitingCount="1" stopTime="0.00" timeLoss="111.11" rerouteNo="0" devices="tripinfo_flow_route_117_duration_20250327_2050.7" vType="car" speedFactor="1.17" vaporized=""/>
    <tripinfo id="flow_route_117_duration_20250327_2050.6" depart="40.00" departLane="177211987#1_0" departPos="104.03" departSpeed="0.00" departDelay="0.00" arrival="203.00" arrivalLane="138000492#0_1" arrivalPos="263.12" arrivalSpeed="16.26" duration="163.00" routeLength="659.35" waitingTime="92.00" waitingCount="1" stopTime="0.00" timeLoss="122.33" rerouteNo="0" devices="tripinfo_flow_route_117_duration_20250327_2050.6" vType="car" speedFactor="1.09" vaporized=""/>
    <tripinfo id="flow_route_117_duration_20250327_2050.8" depart="55.00" departLane="177211987#1_0" departPos="83.92" departSpeed="0.00" departDelay="1.67" arrival="204.00" arrivalLane="138000492#0_0" arrivalPos="247.91" arrivalSpeed="14.62" duration="149.00" routeLength="664.25" waitingTime="76.00" waitingCount="1" stopTime="0.00" timeLoss="104.21" rerouteNo="0" devices="tripinfo_flow_route_117_duration_20250327_2050.8" vType="car" speedFactor="0.90" vaporized=""/>
</tripinfos>
