<?xml version="1.0" encoding="UTF-8"?>

<!-- generated on 2025-05-06 21:08:25 by Eclipse SUMO sumo Version 1.20.0
<configuration xmlns:xsi="http://www.w3.org/2001/XMLSchema-instance" xsi:noNamespaceSchemaLocation="http://sumo.dlr.de/xsd/sumoConfiguration.xsd">

    <input>
        <net-file value="osm.net.xml"/>
        <route-files value="xml/route_static_11644940310_4.rou.xml"/>
    </input>

    <output>
        <tripinfo-output value="xml/tripinfo_static_11644940310_4.xml"/>
    </output>

    <traci_server>
        <remote-port value="56877"/>
    </traci_server>

</configuration>
-->

<tripinfos xmlns:xsi="http://www.w3.org/2001/XMLSchema-instance" xsi:noNamespaceSchemaLocation="http://sumo.dlr.de/xsd/tripinfo_file.xsd">
    <tripinfo id="flow_route_27_duration_20250327_2110.1" depart="5.00" departLane="1254771874#0_0" departPos="223.82" departSpeed="0.00" departDelay="0.00" arrival="17.00" arrivalLane="138002006#0_1" arrivalPos="5.35" arrivalSpeed="7.68" duration="12.00" routeLength="53.42" waitingTime="0.00" waitingCount="0" stopTime="0.00" timeLoss="7.23" rerouteNo="0" devices="tripinfo_flow_route_27_duration_20250327_2110.1" vType="car" speedFactor="0.89" vaporized=""/>
    <tripinfo id="flow_route_27_duration_20250327_2110.0" depart="0.00" departLane="1254771874#0_0" departPos="190.47" departSpeed="0.00" departDelay="0.00" arrival="22.00" arrivalLane="138002006#0_1" arrivalPos="4.04" arrivalSpeed="8.73" duration="22.00" routeLength="85.46" waitingTime="0.00" waitingCount="0" stopTime="0.00" timeLoss="15.54" rerouteNo="0" devices="tripinfo_flow_route_27_duration_20250327_2110.0" vType="car" speedFactor="1.01" vaporized=""/>
    <tripinfo id="flow_route_25_duration_20250327_2110.0" depart="0.00" departLane="1254771874#0_0" departPos="63.27" departSpeed="0.00" departDelay="0.00" arrival="34.00" arrivalLane="1341093415#0_2" arrivalPos="158.81" arrivalSpeed="16.52" duration="34.00" routeLength="373.33" waitingTime="0.00" waitingCount="0" stopTime="0.00" timeLoss="11.40" rerouteNo="0" devices="tripinfo_flow_route_25_duration_20250327_2110.0" vType="car" speedFactor="1.06" vaporized=""/>
    <tripinfo id="flow_route_50_duration_20250327_2110.0" depart="0.00" departLane="-138002006#3_0" departPos="41.39" departSpeed="0.00" departDelay="0.00" arrival="35.00" arrivalLane="-422986370#2_0" arrivalPos="13.06" arrivalSpeed="7.38" duration="35.00" routeLength="82.72" waitingTime="13.00" waitingCount="1" stopTime="0.00" timeLoss="28.65" rerouteNo="0" devices="tripinfo_flow_route_50_duration_20250327_2110.0" vType="car" speedFactor="0.83" vaporized=""/>
    <tripinfo id="flow_route_41_duration_20250327_2110.1" depart="13.00" departLane="1369578054_0" departPos="247.00" departSpeed="0.00" departDelay="1.00" arrival="36.00" arrivalLane="138002006#0_1" arrivalPos="27.26" arrivalSpeed="8.22" duration="23.00" routeLength="102.19" waitingTime="0.00" waitingCount="0" stopTime="0.00" timeLoss="16.83" rerouteNo="0" devices="tripinfo_flow_route_41_duration_20250327_2110.1" vType="car" speedFactor="1.09" vaporized=""/>
    <tripinfo id="flow_route_26_duration_20250327_2110.0" depart="0.00" departLane="1254771874#0_0" departPos="139.38" departSpeed="0.00" departDelay="0.00" arrival="38.00" arrivalLane="-422986370#2_0" arrivalPos="213.43" arrivalSpeed="15.35" duration="38.00" routeLength="338.64" waitingTime="0.00" waitingCount="0" stopTime="0.00" timeLoss="16.04" rerouteNo="0" devices="tripinfo_flow_route_26_duration_20250327_2110.0" vType="car" speedFactor="0.94" vaporized=""/>
    <tripinfo id="flow_route_41_duration_20250327_2110.0" depart="0.00" departLane="1369578054_0" departPos="201.66" departSpeed="0.00" departDelay="0.00" arrival="39.00" arrivalLane="138002006#0_0" arrivalPos="52.37" arrivalSpeed="11.21" duration="39.00" routeLength="172.64" waitingTime="8.00" waitingCount="1" stopTime="0.00" timeLoss="28.14" rerouteNo="0" devices="tripinfo_flow_route_41_duration_20250327_2110.0" vType="car" speedFactor="1.03" vaporized=""/>
    <tripinfo id="flow_route_40_duration_20250327_2110.0" depart="0.00" departLane="1369578054_0" departPos="1.81" departSpeed="0.00" departDelay="0.00" arrival="42.00" arrivalLane="1341093415#0_0" arrivalPos="87.60" arrivalSpeed="13.04" duration="42.00" routeLength="396.71" waitingTime="0.00" waitingCount="0" stopTime="0.00" timeLoss="16.88" rerouteNo="0" devices="tripinfo_flow_route_40_duration_20250327_2110.0" vType="car" speedFactor="1.08" vaporized=""/>
    <tripinfo id="flow_route_51_duration_20250327_2110.1" depart="30.00" departLane="-138002006#3_0" departPos="21.43" departSpeed="0.00" departDelay="0.00" arrival="49.00" arrivalLane="1341093415#0_3" arrivalPos="29.94" arrivalSpeed="10.16" duration="19.00" routeLength="112.19" waitingTime="0.00" waitingCount="0" stopTime="0.00" timeLoss="11.11" rerouteNo="0" devices="tripinfo_flow_route_51_duration_20250327_2110.1" vType="car" speedFactor="1.16" vaporized=""/>
    <tripinfo id="flow_route_51_duration_20250327_2110.0" depart="2.00" departLane="-138002006#3_0" departPos="23.48" departSpeed="0.00" departDelay="2.00" arrival="52.00" arrivalLane="1341093415#0_3" arrivalPos="132.48" arrivalSpeed="14.63" duration="50.00" routeLength="212.67" waitingTime="14.00" waitingCount="2" stopTime="0.00" timeLoss="36.30" rerouteNo="0" devices="tripinfo_flow_route_51_duration_20250327_2110.0" vType="car" speedFactor="1.05" vaporized=""/>
    <tripinfo id="flow_route_40_duration_20250327_2110.2" depart="40.00" departLane="1369578054_0" departPos="286.13" departSpeed="0.00" departDelay="0.00" arrival="58.00" arrivalLane="1341093415#0_0" arrivalPos="87.80" arrivalSpeed="12.68" duration="18.00" routeLength="112.59" waitingTime="0.00" waitingCount="0" stopTime="0.00" timeLoss="9.88" rerouteNo="0" devices="tripinfo_flow_route_40_duration_20250327_2110.2" vType="car" speedFactor="0.87" vaporized=""/>
    <tripinfo id="flow_route_27_duration_20250327_2110.4" depart="21.00" departLane="1254771874#0_0" departPos="244.52" departSpeed="0.00" departDelay="1.00" arrival="72.00" arrivalLane="138002006#0_1" arrivalPos="21.01" arrivalSpeed="7.73" duration="51.00" routeLength="48.38" waitingTime="35.00" waitingCount="1" stopTime="0.00" timeLoss="47.44" rerouteNo="0" devices="tripinfo_flow_route_27_duration_20250327_2110.4" vType="car" speedFactor="1.12" vaporized=""/>
    <tripinfo id="flow_route_26_duration_20250327_2110.2" depart="25.00" departLane="1254771874#0_0" departPos="105.15" departSpeed="0.00" departDelay="1.00" arrival="74.00" arrivalLane="-422986370#2_0" arrivalPos="8.93" arrivalSpeed="6.13" duration="49.00" routeLength="168.39" waitingTime="18.00" waitingCount="1" stopTime="0.00" timeLoss="37.60" rerouteNo="0" devices="tripinfo_flow_route_26_duration_20250327_2110.2" vType="car" speedFactor="0.93" vaporized=""/>
    <tripinfo id="flow_route_26_duration_20250327_2110.4" depart="48.00" departLane="1254771874#0_0" departPos="139.77" departSpeed="0.00" departDelay="0.00" arrival="77.00" arrivalLane="-422986370#2_0" arrivalPos="8.34" arrivalSpeed="7.06" duration="29.00" routeLength="133.17" waitingTime="1.00" waitingCount="1" stopTime="0.00" timeLoss="19.90" rerouteNo="0" devices="tripinfo_flow_route_26_duration_20250327_2110.4" vType="car" speedFactor="0.95" vaporized=""/>
    <tripinfo id="flow_route_27_duration_20250327_2110.2" depart="11.00" departLane="1254771874#0_0" departPos="11.81" departSpeed="0.00" departDelay="1.00" arrival="78.00" arrivalLane="138002006#0_1" arrivalPos="28.58" arrivalSpeed="9.74" duration="67.00" routeLength="288.66" waitingTime="25.00" waitingCount="1" stopTime="0.00" timeLoss="48.00" rerouteNo="0" devices="tripinfo_flow_route_27_duration_20250327_2110.2" vType="car" speedFactor="0.94" vaporized=""/>
    <tripinfo id="flow_route_27_duration_20250327_2110.6" depart="30.00" departLane="1254771874#0_0" departPos="146.11" departSpeed="0.00" departDelay="0.00" arrival="79.00" arrivalLane="138002006#0_1" arrivalPos="19.81" arrivalSpeed="8.83" duration="49.00" routeLength="145.58" waitingTime="19.00" waitingCount="1" stopTime="0.00" timeLoss="39.10" rerouteNo="0" devices="tripinfo_flow_route_27_duration_20250327_2110.6" vType="car" speedFactor="0.94" vaporized=""/>
    <tripinfo id="flow_route_27_duration_20250327_2110.3" depart="15.00" departLane="1254771874#0_0" departPos="101.37" departSpeed="0.00" departDelay="0.00" arrival="80.00" arrivalLane="138002006#0_1" arrivalPos="78.79" arrivalSpeed="12.62" duration="65.00" routeLength="249.31" waitingTime="26.00" waitingCount="1" stopTime="0.00" timeLoss="48.92" rerouteNo="0" devices="tripinfo_flow_route_27_duration_20250327_2110.3" vType="car" speedFactor="1.03" vaporized=""/>
    <tripinfo id="flow_route_25_duration_20250327_2110.1" depart="20.00" departLane="1254771874#0_0" departPos="77.14" departSpeed="0.00" departDelay="0.00" arrival="80.00" arrivalLane="1341093415#0_0" arrivalPos="97.02" arrivalSpeed="13.26" duration="60.00" routeLength="297.66" waitingTime="18.00" waitingCount="1" stopTime="0.00" timeLoss="41.74" rerouteNo="0" devices="tripinfo_flow_route_25_duration_20250327_2110.1" vType="car" speedFactor="1.05" vaporized=""/>
    <tripinfo id="flow_route_27_duration_20250327_2110.5" depart="26.00" departLane="1254771874#0_0" departPos="67.50" departSpeed="0.00" departDelay="1.00" arrival="80.00" arrivalLane="138002006#0_1" arrivalPos="11.13" arrivalSpeed="9.09" duration="54.00" routeLength="215.52" waitingTime="17.00" waitingCount="1" stopTime="0.00" timeLoss="39.80" rerouteNo="0" devices="tripinfo_flow_route_27_duration_20250327_2110.5" vType="car" speedFactor="0.94" vaporized=""/>
    <tripinfo id="flow_route_26_duration_20250327_2110.1" depart="12.00" departLane="1254771874#0_0" departPos="161.93" departSpeed="0.00" departDelay="0.00" arrival="83.00" arrivalLane="-422986370#2_0" arrivalPos="153.66" arrivalSpeed="14.25" duration="71.00" routeLength="256.33" waitingTime="34.00" waitingCount="1" stopTime="0.00" timeLoss="52.77" rerouteNo="0" devices="tripinfo_flow_route_26_duration_20250327_2110.1" vType="car" speedFactor="0.86" vaporized=""/>
    <tripinfo id="flow_route_25_duration_20250327_2110.2" depart="40.00" departLane="1254771874#0_0" departPos="148.28" departSpeed="0.00" departDelay="0.00" arrival="85.00" arrivalLane="1341093415#0_1" arrivalPos="171.10" arrivalSpeed="16.46" duration="45.00" routeLength="300.60" waitingTime="5.00" waitingCount="1" stopTime="0.00" timeLoss="26.16" rerouteNo="0" devices="tripinfo_flow_route_25_duration_20250327_2110.2" vType="car" speedFactor="0.89" vaporized=""/>
    <tripinfo id="flow_route_27_duration_20250327_2110.8" depart="40.00" departLane="1254771874#0_0" departPos="43.05" departSpeed="0.00" departDelay="0.00" arrival="86.00" arrivalLane="138002006#0_1" arrivalPos="27.32" arrivalSpeed="9.62" duration="46.00" routeLength="256.17" waitingTime="5.00" waitingCount="1" stopTime="0.00" timeLoss="28.82" rerouteNo="0" devices="tripinfo_flow_route_27_duration_20250327_2110.8" vType="car" speedFactor="0.83" vaporized=""/>
    <tripinfo id="flow_route_27_duration_20250327_2110.7" depart="35.00" departLane="1254771874#0_0" departPos="22.76" departSpeed="0.00" departDelay="0.00" arrival="87.00" arrivalLane="138002006#0_1" arrivalPos="72.05" arrivalSpeed="13.55" duration="52.00" routeLength="321.19" waitingTime="7.00" waitingCount="1" stopTime="0.00" timeLoss="31.22" rerouteNo="0" devices="tripinfo_flow_route_27_duration_20250327_2110.7" vType="car" speedFactor="1.02" vaporized=""/>
    <tripinfo id="flow_route_27_duration_20250327_2110.10" depart="51.00" departLane="1254771874#0_0" departPos="80.23" departSpeed="0.00" departDelay="1.00" arrival="87.00" arrivalLane="138002006#0_1" arrivalPos="15.89" arrivalSpeed="9.30" duration="36.00" routeLength="207.55" waitingTime="0.00" waitingCount="0" stopTime="0.00" timeLoss="22.14" rerouteNo="0" devices="tripinfo_flow_route_27_duration_20250327_2110.10" vType="car" speedFactor="0.93" vaporized=""/>
    <tripinfo id="flow_route_26_duration_20250327_2110.3" depart="37.00" departLane="1254771874#0_0" departPos="239.02" departSpeed="0.00" departDelay="1.00" arrival="88.00" arrivalLane="-422986370#2_0" arrivalPos="200.14" arrivalSpeed="16.60" duration="51.00" routeLength="225.72" waitingTime="21.00" waitingCount="1" stopTime="0.00" timeLoss="35.64" rerouteNo="0" devices="tripinfo_flow_route_26_duration_20250327_2110.3" vType="car" speedFactor="1.01" vaporized=""/>
    <tripinfo id="flow_route_27_duration_20250327_2110.9" depart="46.00" departLane="1254771874#0_0" departPos="38.81" departSpeed="0.00" departDelay="1.00" arrival="89.00" arrivalLane="138002006#0_1" arrivalPos="16.28" arrivalSpeed="9.75" duration="43.00" routeLength="249.36" waitingTime="0.00" waitingCount="0" stopTime="0.00" timeLoss="26.49" rerouteNo="0" devices="tripinfo_flow_route_27_duration_20250327_2110.9" vType="car" speedFactor="0.92" vaporized=""/>
    <tripinfo id="flow_route_40_duration_20250327_2110.1" depart="20.00" departLane="1369578054_0" departPos="47.67" departSpeed="0.00" departDelay="0.00" arrival="98.00" arrivalLane="1341093415#0_0" arrivalPos="5.78" arrivalSpeed="6.37" duration="78.00" routeLength="269.02" waitingTime="35.00" waitingCount="1" stopTime="0.00" timeLoss="60.54" rerouteNo="0" devices="tripinfo_flow_route_40_duration_20250327_2110.1" vType="car" speedFactor="0.99" vaporized=""/>
    <tripinfo id="flow_route_41_duration_20250327_2110.4" depart="49.00" departLane="1369578054_0" departPos="20.07" departSpeed="0.00" departDelay="1.00" arrival="102.00" arrivalLane="138002006#0_1" arrivalPos="24.75" arrivalSpeed="8.96" duration="53.00" routeLength="326.61" waitingTime="10.00" waitingCount="1" stopTime="0.00" timeLoss="33.09" rerouteNo="0" devices="tripinfo_flow_route_41_duration_20250327_2110.4" vType="car" speedFactor="1.13" vaporized=""/>
    <tripinfo id="flow_route_41_duration_20250327_2110.2" depart="24.00" departLane="1369578054_0" departPos="38.77" departSpeed="0.00" departDelay="0.00" arrival="103.00" arrivalLane="138002006#0_1" arrivalPos="60.81" arrivalSpeed="10.86" duration="79.00" routeLength="343.98" waitingTime="34.00" waitingCount="1" stopTime="0.00" timeLoss="55.29" rerouteNo="0" devices="tripinfo_flow_route_41_duration_20250327_2110.2" vType="car" speedFactor="0.88" vaporized=""/>
    <tripinfo id="flow_route_41_duration_20250327_2110.3" depart="36.00" departLane="1369578054_0" departPos="207.23" departSpeed="0.00" departDelay="0.00" arrival="104.00" arrivalLane="138002006#0_0" arrivalPos="63.52" arrivalSpeed="11.40" duration="68.00" routeLength="178.22" waitingTime="35.00" waitingCount="1" stopTime="0.00" timeLoss="56.55" rerouteNo="0" devices="tripinfo_flow_route_41_duration_20250327_2110.3" vType="car" speedFactor="0.97" vaporized=""/>
    <tripinfo id="flow_route_27_duration_20250327_2110.11" depart="55.00" departLane="1254771874#0_0" departPos="21.99" departSpeed="0.00" departDelay="0.00" arrival="136.00" arrivalLane="138002006#0_1" arrivalPos="30.09" arrivalSpeed="8.76" duration="81.00" routeLength="280.00" waitingTime="37.00" waitingCount="1" stopTime="0.00" timeLoss="63.29" rerouteNo="0" devices="tripinfo_flow_route_27_duration_20250327_2110.11" vType="car" speedFactor="1.18" vaporized=""/>
</tripinfos>
