<?xml version="1.0" encoding="UTF-8"?>

<!-- generated on 2025-05-06 21:08:01 by Eclipse SUMO sumo Version 1.20.0
<configuration xmlns:xsi="http://www.w3.org/2001/XMLSchema-instance" xsi:noNamespaceSchemaLocation="http://sumo.dlr.de/xsd/sumoConfiguration.xsd">

    <input>
        <net-file value="osm.net.xml"/>
        <route-files value="xml/route_rl_cluster_11648561419_11648561420_2271142975_4854142869_2.rou.xml"/>
    </input>

    <output>
        <tripinfo-output value="xml/tripinfo_rl_cluster_11648561419_11648561420_2271142975_4854142869_2.xml"/>
    </output>

    <traci_server>
        <remote-port value="51433"/>
    </traci_server>

</configuration>
-->

<tripinfos xmlns:xsi="http://www.w3.org/2001/XMLSchema-instance" xsi:noNamespaceSchemaLocation="http://sumo.dlr.de/xsd/tripinfo_file.xsd">
    <tripinfo id="flow_route_118_duration_20250327_2000.2" depart="3.00" departLane="134194079#0_0" departPos="225.54" departSpeed="0.00" departDelay="0.86" arrival="23.00" arrivalLane="1328664744#0_0" arrivalPos="52.52" arrivalSpeed="14.68" duration="20.00" routeLength="148.12" waitingTime="0.00" waitingCount="0" stopTime="0.00" timeLoss="10.32" rerouteNo="0" devices="tripinfo_flow_route_118_duration_20250327_2000.2" vType="car" speedFactor="0.93" vaporized=""/>
    <tripinfo id="flow_route_97_duration_20250327_2000.0" depart="0.00" departLane="1328664748#0_0" departPos="149.74" departSpeed="0.00" departDelay="0.00" arrival="27.00" arrivalLane="135474719#0_0" arrivalPos="137.46" arrivalSpeed="15.89" duration="27.00" routeLength="222.45" waitingTime="0.00" waitingCount="0" stopTime="0.00" timeLoss="12.47" rerouteNo="0" devices="tripinfo_flow_route_97_duration_20250327_2000.0" vType="car" speedFactor="1.06" vaporized=""/>
    <tripinfo id="flow_route_98_duration_20250327_2000.0" depart="0.00" departLane="1328664748#0_0" departPos="103.72" departSpeed="0.00" departDelay="0.00" arrival="27.00" arrivalLane="177211987#1_0" arrivalPos="104.29" arrivalSpeed="15.20" duration="27.00" routeLength="249.04" waitingTime="0.00" waitingCount="0" stopTime="0.00" timeLoss="11.01" rerouteNo="0" devices="tripinfo_flow_route_98_duration_20250327_2000.0" vType="car" speedFactor="0.94" vaporized=""/>
    <tripinfo id="flow_route_119_duration_20250327_2000.0" depart="0.00" departLane="134194079#0_0" departPos="151.34" departSpeed="0.00" departDelay="0.00" arrival="28.00" arrivalLane="1253188486#8_0" arrivalPos="1.48" arrivalSpeed="8.74" duration="28.00" routeLength="161.10" waitingTime="0.00" waitingCount="0" stopTime="0.00" timeLoss="17.15" rerouteNo="0" devices="tripinfo_flow_route_119_duration_20250327_2000.0" vType="car" speedFactor="1.09" vaporized=""/>
    <tripinfo id="flow_route_118_duration_20250327_2000.1" depart="2.00" departLane="134194079#0_0" departPos="261.87" departSpeed="0.00" departDelay="0.93" arrival="30.00" arrivalLane="1328664744#0_0" arrivalPos="208.33" arrivalSpeed="16.20" duration="28.00" routeLength="267.61" waitingTime="0.00" waitingCount="0" stopTime="0.00" timeLoss="11.07" rerouteNo="0" devices="tripinfo_flow_route_118_duration_20250327_2000.1" vType="car" speedFactor="1.05" vaporized=""/>
    <tripinfo id="flow_route_118_duration_20250327_2000.4" depart="9.00" departLane="134194079#0_0" departPos="161.31" departSpeed="0.00" departDelay="4.72" arrival="36.00" arrivalLane="1328664744#0_1" arrivalPos="91.26" arrivalSpeed="14.15" duration="27.00" routeLength="251.10" waitingTime="0.00" waitingCount="0" stopTime="0.00" timeLoss="11.57" rerouteNo="0" devices="tripinfo_flow_route_118_duration_20250327_2000.4" vType="car" speedFactor="1.02" vaporized=""/>
    <tripinfo id="flow_route_118_duration_20250327_2000.9" depart="20.00" departLane="134194079#0_0" departPos="242.24" departSpeed="0.00" departDelay="10.36" arrival="36.00" arrivalLane="1328664744#0_0" arrivalPos="19.08" arrivalSpeed="12.27" duration="16.00" routeLength="97.99" waitingTime="0.00" waitingCount="0" stopTime="0.00" timeLoss="9.67" rerouteNo="0" devices="tripinfo_flow_route_118_duration_20250327_2000.9" vType="car" speedFactor="1.10" vaporized=""/>
    <tripinfo id="flow_route_118_duration_20250327_2000.8" depart="19.00" departLane="134194079#0_0" departPos="195.69" departSpeed="0.00" departDelay="10.43" arrival="37.00" arrivalLane="1328664744#0_0" arrivalPos="6.18" arrivalSpeed="13.63" duration="18.00" routeLength="131.64" waitingTime="0.00" waitingCount="0" stopTime="0.00" timeLoss="9.44" rerouteNo="0" devices="tripinfo_flow_route_118_duration_20250327_2000.8" vType="car" speedFactor="1.01" vaporized=""/>
    <tripinfo id="flow_route_97_duration_20250327_2000.3" depart="23.00" departLane="1328664748#0_0" departPos="221.77" departSpeed="0.00" departDelay="0.50" arrival="38.00" arrivalLane="135474719#0_0" arrivalPos="75.04" arrivalSpeed="11.39" duration="15.00" routeLength="88.00" waitingTime="0.00" waitingCount="0" stopTime="0.00" timeLoss="8.14" rerouteNo="0" devices="tripinfo_flow_route_97_duration_20250327_2000.3" vType="car" speedFactor="0.96" vaporized=""/>
    <tripinfo id="flow_route_118_duration_20250327_2000.7" depart="18.00" departLane="134194079#0_0" departPos="288.59" departSpeed="0.00" departDelay="10.50" arrival="39.00" arrivalLane="1328664744#0_0" arrivalPos="128.69" arrivalSpeed="14.79" duration="21.00" routeLength="161.25" waitingTime="0.00" waitingCount="0" stopTime="0.00" timeLoss="10.49" rerouteNo="0" devices="tripinfo_flow_route_118_duration_20250327_2000.7" vType="car" speedFactor="0.93" vaporized=""/>
    <tripinfo id="flow_route_118_duration_20250327_2000.5" depart="12.00" departLane="134194079#0_0" departPos="243.55" departSpeed="0.00" departDelay="6.65" arrival="41.00" arrivalLane="1328664744#0_1" arrivalPos="180.08" arrivalSpeed="13.36" duration="29.00" routeLength="257.68" waitingTime="0.00" waitingCount="0" stopTime="0.00" timeLoss="9.73" rerouteNo="0" devices="tripinfo_flow_route_118_duration_20250327_2000.5" vType="car" speedFactor="0.83" vaporized=""/>
    <tripinfo id="flow_route_97_duration_20250327_2000.2" depart="15.00" departLane="1328664748#0_0" departPos="103.75" departSpeed="0.00" departDelay="0.00" arrival="42.00" arrivalLane="135474719#0_0" arrivalPos="65.58" arrivalSpeed="11.20" duration="27.00" routeLength="196.55" waitingTime="0.00" waitingCount="0" stopTime="0.00" timeLoss="12.42" rerouteNo="0" devices="tripinfo_flow_route_97_duration_20250327_2000.2" vType="car" speedFactor="0.88" vaporized=""/>
    <tripinfo id="flow_route_97_duration_20250327_2000.1" depart="8.00" departLane="1328664748#0_0" departPos="40.80" departSpeed="0.00" departDelay="0.50" arrival="43.00" arrivalLane="135474719#0_0" arrivalPos="47.49" arrivalSpeed="10.29" duration="35.00" routeLength="241.41" waitingTime="0.00" waitingCount="0" stopTime="0.00" timeLoss="18.16" rerouteNo="0" devices="tripinfo_flow_route_97_duration_20250327_2000.1" vType="car" speedFactor="0.95" vaporized=""/>
    <tripinfo id="flow_route_118_duration_20250327_2000.0" depart="0.00" departLane="134194079#0_0" departPos="13.63" departSpeed="0.00" departDelay="0.00" arrival="44.00" arrivalLane="1328664744#0_1" arrivalPos="165.30" arrivalSpeed="13.91" duration="44.00" routeLength="472.83" waitingTime="0.00" waitingCount="0" stopTime="0.00" timeLoss="10.83" rerouteNo="0" devices="tripinfo_flow_route_118_duration_20250327_2000.0" vType="car" speedFactor="0.86" vaporized=""/>
    <tripinfo id="flow_route_118_duration_20250327_2000.3" depart="4.00" departLane="134194079#0_0" departPos="97.74" departSpeed="0.00" departDelay="0.79" arrival="44.00" arrivalLane="1328664744#0_2" arrivalPos="212.22" arrivalSpeed="15.59" duration="40.00" routeLength="435.63" waitingTime="0.00" waitingCount="0" stopTime="0.00" timeLoss="12.13" rerouteNo="0" devices="tripinfo_flow_route_118_duration_20250327_2000.3" vType="car" speedFactor="0.94" vaporized=""/>
    <tripinfo id="flow_route_99_duration_20250327_2000.0" depart="1.00" departLane="1328664748#0_0" departPos="68.32" departSpeed="0.00" departDelay="1.00" arrival="46.00" arrivalLane="1253188486#8_2" arrivalPos="11.16" arrivalSpeed="7.00" duration="45.00" routeLength="200.71" waitingTime="12.00" waitingCount="1" stopTime="0.00" timeLoss="32.27" rerouteNo="0" devices="tripinfo_flow_route_99_duration_20250327_2000.0" vType="car" speedFactor="1.01" vaporized=""/>
    <tripinfo id="flow_route_99_duration_20250327_2000.3" depart="30.00" departLane="1328664748#0_0" departPos="134.50" departSpeed="0.00" departDelay="0.00" arrival="53.00" arrivalLane="1253188486#8_2" arrivalPos="8.50" arrivalSpeed="8.02" duration="23.00" routeLength="131.86" waitingTime="0.00" waitingCount="0" stopTime="0.00" timeLoss="14.60" rerouteNo="0" devices="tripinfo_flow_route_99_duration_20250327_2000.3" vType="car" speedFactor="1.09" vaporized=""/>
    <tripinfo id="flow_route_99_duration_20250327_2000.1" depart="10.00" departLane="1328664748#0_0" departPos="10.42" departSpeed="0.00" departDelay="0.00" arrival="54.00" arrivalLane="1253188486#8_2" arrivalPos="43.91" arrivalSpeed="11.23" duration="44.00" routeLength="291.36" waitingTime="3.00" waitingCount="1" stopTime="0.00" timeLoss="25.38" rerouteNo="0" devices="tripinfo_flow_route_99_duration_20250327_2000.1" vType="car" speedFactor="0.99" vaporized=""/>
    <tripinfo id="flow_route_97_duration_20250327_2000.4" depart="30.00" departLane="1328664748#0_0" departPos="164.43" departSpeed="0.00" departDelay="0.00" arrival="54.00" arrivalLane="135474719#0_0" arrivalPos="87.88" arrivalSpeed="13.58" duration="24.00" routeLength="158.17" waitingTime="0.00" waitingCount="0" stopTime="0.00" timeLoss="12.19" rerouteNo="0" devices="tripinfo_flow_route_97_duration_20250327_2000.4" vType="car" speedFactor="0.92" vaporized=""/>
    <tripinfo id="flow_route_99_duration_20250327_2000.2" depart="20.00" departLane="1328664748#0_0" departPos="197.40" departSpeed="0.00" departDelay="0.00" arrival="56.00" arrivalLane="1253188486#8_2" arrivalPos="93.10" arrivalSpeed="13.43" duration="36.00" routeLength="153.57" waitingTime="7.00" waitingCount="1" stopTime="0.00" timeLoss="25.88" rerouteNo="0" devices="tripinfo_flow_route_99_duration_20250327_2000.2" vType="car" speedFactor="1.02" vaporized=""/>
    <tripinfo id="flow_route_99_duration_20250327_2000.4" depart="40.00" departLane="1328664748#0_0" departPos="172.28" departSpeed="0.00" departDelay="0.00" arrival="61.00" arrivalLane="1253188486#8_2" arrivalPos="59.25" arrivalSpeed="12.86" duration="21.00" routeLength="144.84" waitingTime="0.00" waitingCount="0" stopTime="0.00" timeLoss="11.74" rerouteNo="0" devices="tripinfo_flow_route_99_duration_20250327_2000.4" vType="car" speedFactor="1.06" vaporized=""/>
    <tripinfo id="flow_route_97_duration_20250327_2000.5" depart="38.00" departLane="1328664748#0_0" departPos="85.65" departSpeed="0.00" departDelay="0.50" arrival="67.00" arrivalLane="135474719#0_0" arrivalPos="78.21" arrivalSpeed="12.41" duration="29.00" routeLength="227.28" waitingTime="0.00" waitingCount="0" stopTime="0.00" timeLoss="14.21" rerouteNo="0" devices="tripinfo_flow_route_97_duration_20250327_2000.5" vType="car" speedFactor="1.00" vaporized=""/>
    <tripinfo id="flow_route_97_duration_20250327_2000.6" depart="45.00" departLane="1328664748#0_0" departPos="189.64" departSpeed="0.00" departDelay="0.00" arrival="67.00" arrivalLane="135474719#0_0" arrivalPos="121.88" arrivalSpeed="14.58" duration="22.00" routeLength="166.96" waitingTime="0.00" waitingCount="0" stopTime="0.00" timeLoss="10.22" rerouteNo="0" devices="tripinfo_flow_route_97_duration_20250327_2000.6" vType="car" speedFactor="0.95" vaporized=""/>
    <tripinfo id="flow_route_99_duration_20250327_2000.5" depart="50.00" departLane="1328664748#0_0" departPos="94.08" departSpeed="0.00" departDelay="0.00" arrival="79.00" arrivalLane="1253188486#8_2" arrivalPos="93.39" arrivalSpeed="16.20" duration="29.00" routeLength="257.18" waitingTime="0.00" waitingCount="0" stopTime="0.00" timeLoss="11.14" rerouteNo="0" devices="tripinfo_flow_route_99_duration_20250327_2000.5" vType="car" speedFactor="0.93" vaporized=""/>
    <tripinfo id="flow_route_110_duration_20250327_2000.0" depart="0.00" departLane="1254519225#0.109_0" departPos="3.76" departSpeed="0.00" departDelay="0.00" arrival="81.00" arrivalLane="177211987#1_2" arrivalPos="6.38" arrivalSpeed="7.39" duration="81.00" routeLength="190.24" waitingTime="50.00" waitingCount="1" stopTime="0.00" timeLoss="66.38" rerouteNo="0" devices="tripinfo_flow_route_110_duration_20250327_2000.0" vType="car" speedFactor="0.83" vaporized=""/>
    <tripinfo id="flow_route_108_duration_20250327_2000.0" depart="0.00" departLane="1254519225#0.109_0" departPos="35.33" departSpeed="0.00" departDelay="0.00" arrival="88.00" arrivalLane="135474719#0_0" arrivalPos="75.82" arrivalSpeed="14.13" duration="88.00" routeLength="240.24" waitingTime="51.00" waitingCount="1" stopTime="0.00" timeLoss="73.45" rerouteNo="0" devices="tripinfo_flow_route_108_duration_20250327_2000.0" vType="car" speedFactor="1.08" vaporized=""/>
    <tripinfo id="flow_route_109_duration_20250327_2000.1" depart="5.00" departLane="1254519225#0.109_0" departPos="16.48" departSpeed="0.00" departDelay="0.00" arrival="89.00" arrivalLane="1328664744#0_0" arrivalPos="28.70" arrivalSpeed="10.58" duration="84.00" routeLength="186.46" waitingTime="46.00" waitingCount="1" stopTime="0.00" timeLoss="70.65" rerouteNo="0" devices="tripinfo_flow_route_109_duration_20250327_2000.1" vType="car" speedFactor="0.94" vaporized=""/>
    <tripinfo id="flow_route_109_duration_20250327_2000.2" depart="10.00" departLane="1254519225#0.109_0" departPos="45.04" departSpeed="0.00" departDelay="0.00" arrival="90.00" arrivalLane="1328664744#0_0" arrivalPos="69.63" arrivalSpeed="12.46" duration="80.00" routeLength="198.82" waitingTime="46.00" waitingCount="1" stopTime="0.00" timeLoss="66.52" rerouteNo="0" devices="tripinfo_flow_route_109_duration_20250327_2000.2" vType="car" speedFactor="0.97" vaporized=""/>
    <tripinfo id="flow_route_109_duration_20250327_2000.0" depart="0.00" departLane="1254519225#0.109_0" departPos="16.50" departSpeed="0.00" departDelay="0.00" arrival="92.00" arrivalLane="1328664744#0_0" arrivalPos="130.88" arrivalSpeed="15.30" duration="92.00" routeLength="288.61" waitingTime="50.00" waitingCount="1" stopTime="0.00" timeLoss="73.72" rerouteNo="0" devices="tripinfo_flow_route_109_duration_20250327_2000.0" vType="car" speedFactor="1.03" vaporized=""/>
    <tripinfo id="flow_route_108_duration_20250327_2000.2" depart="20.00" departLane="1254519225#0.109_0" departPos="30.12" departSpeed="0.00" departDelay="0.00" arrival="95.00" arrivalLane="135474719#0_2" arrivalPos="105.04" arrivalSpeed="15.54" duration="75.00" routeLength="274.68" waitingTime="34.00" waitingCount="1" stopTime="0.00" timeLoss="58.21" rerouteNo="0" devices="tripinfo_flow_route_108_duration_20250327_2000.2" vType="car" speedFactor="0.99" vaporized=""/>
    <tripinfo id="flow_route_108_duration_20250327_2000.1" depart="10.00" departLane="1254519225#0.109_0" departPos="4.99" departSpeed="0.00" departDelay="0.00" arrival="96.00" arrivalLane="135474719#0_2" arrivalPos="153.09" arrivalSpeed="16.29" duration="86.00" routeLength="347.85" waitingTime="42.00" waitingCount="1" stopTime="0.00" timeLoss="64.86" rerouteNo="0" devices="tripinfo_flow_route_108_duration_20250327_2000.1" vType="car" speedFactor="1.02" vaporized=""/>
    <tripinfo id="flow_route_109_duration_20250327_2000.4" depart="20.00" departLane="1254519225#0.109_0" departPos="56.36" departSpeed="0.00" departDelay="0.00" arrival="98.00" arrivalLane="1328664744#0_0" arrivalPos="131.49" arrivalSpeed="15.23" duration="78.00" routeLength="249.36" waitingTime="40.00" waitingCount="1" stopTime="0.00" timeLoss="60.96" rerouteNo="0" devices="tripinfo_flow_route_109_duration_20250327_2000.4" vType="car" speedFactor="0.94" vaporized=""/>
    <tripinfo id="flow_route_108_duration_20250327_2000.3" depart="30.00" departLane="1254519225#0.109_0" departPos="11.89" departSpeed="0.00" departDelay="0.00" arrival="98.00" arrivalLane="135474719#0_2" arrivalPos="115.64" arrivalSpeed="16.35" duration="68.00" routeLength="303.50" waitingTime="25.00" waitingCount="1" stopTime="0.00" timeLoss="48.82" rerouteNo="0" devices="tripinfo_flow_route_108_duration_20250327_2000.3" vType="car" speedFactor="1.06" vaporized=""/>
    <tripinfo id="flow_route_109_duration_20250327_2000.5" depart="25.00" departLane="1254519225#0.109_0" departPos="9.83" departSpeed="0.00" departDelay="0.00" arrival="101.00" arrivalLane="1328664744#0_0" arrivalPos="73.84" arrivalSpeed="14.05" duration="76.00" routeLength="238.23" waitingTime="34.00" waitingCount="1" stopTime="0.00" timeLoss="60.61" rerouteNo="0" devices="tripinfo_flow_route_109_duration_20250327_2000.5" vType="car" speedFactor="1.03" vaporized=""/>
    <tripinfo id="flow_route_108_duration_20250327_2000.4" depart="40.00" departLane="1254519225#0.109_0" departPos="46.18" departSpeed="0.00" departDelay="0.00" arrival="102.00" arrivalLane="135474719#0_2" arrivalPos="153.44" arrivalSpeed="16.20" duration="62.00" routeLength="307.01" waitingTime="20.00" waitingCount="1" stopTime="0.00" timeLoss="42.64" rerouteNo="0" devices="tripinfo_flow_route_108_duration_20250327_2000.4" vType="car" speedFactor="1.15" vaporized=""/>
    <tripinfo id="flow_route_108_duration_20250327_2000.5" depart="50.00" departLane="1254519225#0.109_0" departPos="56.19" departSpeed="0.00" departDelay="0.00" arrival="102.00" arrivalLane="135474719#0_2" arrivalPos="125.86" arrivalSpeed="16.53" duration="52.00" routeLength="269.42" waitingTime="12.00" waitingCount="1" stopTime="0.00" timeLoss="34.88" rerouteNo="0" devices="tripinfo_flow_route_108_duration_20250327_2000.5" vType="car" speedFactor="1.06" vaporized=""/>
    <tripinfo id="flow_route_109_duration_20250327_2000.3" depart="15.00" departLane="1254519225#0.109_0" departPos="41.29" departSpeed="0.00" departDelay="0.00" arrival="103.00" arrivalLane="1328664744#0_0" arrivalPos="157.68" arrivalSpeed="14.03" duration="88.00" routeLength="290.62" waitingTime="41.00" waitingCount="3" stopTime="0.00" timeLoss="65.77" rerouteNo="0" devices="tripinfo_flow_route_109_duration_20250327_2000.3" vType="car" speedFactor="0.85" vaporized=""/>
    <tripinfo id="flow_route_109_duration_20250327_2000.10" depart="51.00" departLane="1254519225#0.109_0" departPos="53.29" departSpeed="0.00" departDelay="1.00" arrival="104.00" arrivalLane="1328664744#0_0" arrivalPos="33.16" arrivalSpeed="11.55" duration="53.00" routeLength="154.09" waitingTime="22.00" waitingCount="1" stopTime="0.00" timeLoss="43.04" rerouteNo="0" devices="tripinfo_flow_route_109_duration_20250327_2000.10" vType="car" speedFactor="1.12" vaporized=""/>
    <tripinfo id="flow_route_109_duration_20250327_2000.6" depart="30.00" departLane="1254519225#0.109_0" departPos="61.29" departSpeed="0.00" departDelay="0.00" arrival="105.00" arrivalLane="1328664744#0_0" arrivalPos="164.41" arrivalSpeed="16.34" duration="75.00" routeLength="277.35" waitingTime="34.00" waitingCount="1" stopTime="0.00" timeLoss="57.15" rerouteNo="0" devices="tripinfo_flow_route_109_duration_20250327_2000.6" vType="car" speedFactor="1.01" vaporized=""/>
    <tripinfo id="flow_route_109_duration_20250327_2000.7" depart="35.00" departLane="1254519225#0.109_0" departPos="35.91" departSpeed="0.00" departDelay="0.00" arrival="109.00" arrivalLane="1328664744#0_0" arrivalPos="168.83" arrivalSpeed="16.40" duration="74.00" routeLength="307.15" waitingTime="31.00" waitingCount="1" stopTime="0.00" timeLoss="54.29" rerouteNo="0" devices="tripinfo_flow_route_109_duration_20250327_2000.7" vType="car" speedFactor="1.06" vaporized=""/>
    <tripinfo id="flow_route_109_duration_20250327_2000.11" depart="55.00" departLane="1254519225#0.109_0" departPos="50.66" departSpeed="0.00" departDelay="0.00" arrival="111.00" arrivalLane="1328664744#0_0" arrivalPos="73.01" arrivalSpeed="14.50" duration="56.00" routeLength="196.58" waitingTime="21.00" waitingCount="2" stopTime="0.00" timeLoss="43.00" rerouteNo="0" devices="tripinfo_flow_route_109_duration_20250327_2000.11" vType="car" speedFactor="1.09" vaporized=""/>
    <tripinfo id="flow_route_109_duration_20250327_2000.8" depart="41.00" departLane="1254519225#0.109_0" departPos="33.03" departSpeed="0.00" departDelay="1.00" arrival="113.00" arrivalLane="1328664744#0_0" arrivalPos="198.25" arrivalSpeed="16.50" duration="72.00" routeLength="339.44" waitingTime="27.00" waitingCount="1" stopTime="0.00" timeLoss="50.29" rerouteNo="0" devices="tripinfo_flow_route_109_duration_20250327_2000.8" vType="car" speedFactor="1.03" vaporized=""/>
    <tripinfo id="flow_route_109_duration_20250327_2000.9" depart="45.00" departLane="1254519225#0.109_0" departPos="21.77" departSpeed="0.00" departDelay="0.00" arrival="113.00" arrivalLane="1328664744#0_0" arrivalPos="134.06" arrivalSpeed="16.10" duration="68.00" routeLength="286.52" waitingTime="21.00" waitingCount="1" stopTime="0.00" timeLoss="49.40" rerouteNo="0" devices="tripinfo_flow_route_109_duration_20250327_2000.9" vType="car" speedFactor="1.11" vaporized=""/>
    <tripinfo id="flow_route_114_duration_20250327_2000.0" depart="0.00" departLane="1253188486#4_0" departPos="49.31" departSpeed="0.00" departDelay="0.00" arrival="123.00" arrivalLane="177211987#1_0" arrivalPos="36.23" arrivalSpeed="9.80" duration="123.00" routeLength="153.37" waitingTime="90.00" waitingCount="1" stopTime="0.00" timeLoss="112.52" rerouteNo="0" devices="tripinfo_flow_route_114_duration_20250327_2000.0" vType="car" speedFactor="0.89" vaporized=""/>
    <tripinfo id="flow_route_113_duration_20250327_2000.3" depart="5.00" departLane="1253188486#4_0" departPos="34.17" departSpeed="0.00" departDelay="0.72" arrival="123.00" arrivalLane="1253188486#8_1" arrivalPos="30.76" arrivalSpeed="11.45" duration="118.00" routeLength="195.22" waitingTime="84.00" waitingCount="1" stopTime="0.00" timeLoss="105.96" rerouteNo="0" devices="tripinfo_flow_route_113_duration_20250327_2000.3" vType="car" speedFactor="1.16" vaporized=""/>
    <tripinfo id="flow_route_115_duration_20250327_2000.3" depart="15.00" departLane="1253188486#4_0" departPos="107.13" departSpeed="0.00" departDelay="6.00" arrival="125.00" arrivalLane="1328664744#0_2" arrivalPos="33.68" arrivalSpeed="11.53" duration="110.00" routeLength="111.95" waitingTime="84.00" waitingCount="1" stopTime="0.00" timeLoss="102.35" rerouteNo="0" devices="tripinfo_flow_route_115_duration_20250327_2000.3" vType="car" speedFactor="1.15" vaporized=""/>
    <tripinfo id="flow_route_115_duration_20250327_2000.0" depart="0.00" departLane="1253188486#4_0" departPos="104.70" departSpeed="0.00" departDelay="0.00" arrival="127.00" arrivalLane="1328664744#0_2" arrivalPos="120.97" arrivalSpeed="15.11" duration="127.00" routeLength="201.67" waitingTime="95.00" waitingCount="1" stopTime="0.00" timeLoss="112.73" rerouteNo="0" devices="tripinfo_flow_route_115_duration_20250327_2000.0" vType="car" speedFactor="0.94" vaporized=""/>
    <tripinfo id="flow_route_115_duration_20250327_2000.1" depart="4.00" departLane="1253188486#4_0" departPos="104.93" departSpeed="0.00" departDelay="1.00" arrival="128.00" arrivalLane="1328664744#0_2" arrivalPos="120.76" arrivalSpeed="14.81" duration="124.00" routeLength="201.23" waitingTime="93.00" waitingCount="1" stopTime="0.00" timeLoss="110.92" rerouteNo="0" devices="tripinfo_flow_route_115_duration_20250327_2000.1" vType="car" speedFactor="0.99" vaporized=""/>
    <tripinfo id="flow_route_113_duration_20250327_2000.7" depart="16.00" departLane="1253188486#4_0" departPos="109.08" departSpeed="0.00" departDelay="6.00" arrival="129.00" arrivalLane="1253188486#8_1" arrivalPos="83.17" arrivalSpeed="15.02" duration="113.00" routeLength="172.72" waitingTime="84.00" waitingCount="1" stopTime="0.00" timeLoss="102.28" rerouteNo="0" devices="tripinfo_flow_route_113_duration_20250327_2000.7" vType="car" speedFactor="1.18" vaporized=""/>
    <tripinfo id="flow_route_113_duration_20250327_2000.1" depart="2.00" departLane="1253188486#4_0" departPos="126.25" departSpeed="0.00" departDelay="0.57" arrival="130.00" arrivalLane="1253188486#8_1" arrivalPos="155.42" arrivalSpeed="16.19" duration="128.00" routeLength="227.80" waitingTime="96.00" waitingCount="1" stopTime="0.00" timeLoss="113.33" rerouteNo="0" devices="tripinfo_flow_route_113_duration_20250327_2000.1" vType="car" speedFactor="1.03" vaporized=""/>
    <tripinfo id="flow_route_115_duration_20250327_2000.2" depart="10.00" departLane="1253188486#4_0" departPos="31.73" departSpeed="0.00" departDelay="4.00" arrival="131.00" arrivalLane="1328664744#0_2" arrivalPos="53.55" arrivalSpeed="12.80" duration="121.00" routeLength="207.22" waitingTime="81.00" waitingCount="1" stopTime="0.00" timeLoss="106.52" rerouteNo="0" devices="tripinfo_flow_route_115_duration_20250327_2000.2" vType="car" speedFactor="0.89" vaporized=""/>
    <tripinfo id="flow_route_113_duration_20250327_2000.0" depart="0.00" departLane="1253188486#4_0" departPos="134.10" departSpeed="0.00" departDelay="0.00" arrival="132.00" arrivalLane="1253188486#8_0" arrivalPos="182.35" arrivalSpeed="16.29" duration="132.00" routeLength="246.88" waitingTime="99.00" waitingCount="1" stopTime="0.00" timeLoss="116.21" rerouteNo="0" devices="tripinfo_flow_route_113_duration_20250327_2000.0" vType="car" speedFactor="1.05" vaporized=""/>
    <tripinfo id="flow_route_113_duration_20250327_2000.4" depart="6.00" departLane="1253188486#4_0" departPos="102.33" departSpeed="0.00" departDelay="0.29" arrival="132.00" arrivalLane="1253188486#8_0" arrivalPos="140.24" arrivalSpeed="16.34" duration="126.00" routeLength="236.54" waitingTime="91.00" waitingCount="1" stopTime="0.00" timeLoss="111.28" rerouteNo="0" devices="tripinfo_flow_route_113_duration_20250327_2000.4" vType="car" speedFactor="0.97" vaporized=""/>
    <tripinfo id="flow_route_113_duration_20250327_2000.9" depart="23.00" departLane="1253188486#4_0" departPos="125.49" departSpeed="0.00" departDelay="10.15" arrival="132.00" arrivalLane="1253188486#8_0" arrivalPos="89.59" arrivalSpeed="15.07" duration="109.00" routeLength="162.73" waitingTime="83.00" waitingCount="1" stopTime="0.00" timeLoss="98.93" rerouteNo="0" devices="tripinfo_flow_route_113_duration_20250327_2000.9" vType="car" speedFactor="1.04" vaporized=""/>
    <tripinfo id="flow_route_113_duration_20250327_2000.2" depart="4.00" departLane="1253188486#4_0" departPos="4.57" departSpeed="0.00" departDelay="1.14" arrival="133.00" arrivalLane="1253188486#8_2" arrivalPos="97.30" arrivalSpeed="14.96" duration="129.00" routeLength="291.36" waitingTime="83.00" waitingCount="1" stopTime="0.00" timeLoss="110.76" rerouteNo="0" devices="tripinfo_flow_route_113_duration_20250327_2000.2" vType="car" speedFactor="1.12" vaporized=""/>
    <tripinfo id="flow_route_115_duration_20250327_2000.6" depart="29.00" departLane="1253188486#4_0" departPos="61.77" departSpeed="0.00" departDelay="11.00" arrival="134.00" arrivalLane="1328664744#0_2" arrivalPos="9.45" arrivalSpeed="9.45" duration="105.00" routeLength="133.08" waitingTime="72.00" waitingCount="3" stopTime="0.00" timeLoss="96.54" rerouteNo="0" devices="tripinfo_flow_route_115_duration_20250327_2000.6" vType="car" speedFactor="1.14" vaporized=""/>
    <tripinfo id="flow_route_114_duration_20250327_2000.1" depart="35.00" departLane="1253188486#4_0" departPos="2.04" departSpeed="0.00" departDelay="15.00" arrival="134.00" arrivalLane="177211987#1_0" arrivalPos="15.06" arrivalSpeed="8.54" duration="99.00" routeLength="179.48" waitingTime="65.00" waitingCount="1" stopTime="0.00" timeLoss="86.62" rerouteNo="0" devices="tripinfo_flow_route_114_duration_20250327_2000.1" vType="car" speedFactor="0.91" vaporized=""/>
    <tripinfo id="flow_route_113_duration_20250327_2000.8" depart="20.00" departLane="1253188486#4_0" departPos="84.12" departSpeed="0.00" departDelay="8.58" arrival="135.00" arrivalLane="1253188486#8_0" arrivalPos="103.83" arrivalSpeed="16.25" duration="115.00" routeLength="218.34" waitingTime="79.00" waitingCount="1" stopTime="0.00" timeLoss="101.19" rerouteNo="0" devices="tripinfo_flow_route_113_duration_20250327_2000.8" vType="car" speedFactor="0.96" vaporized=""/>
    <tripinfo id="flow_route_113_duration_20250327_2000.5" depart="13.00" departLane="1253188486#4_0" departPos="16.04" departSpeed="0.00" departDelay="5.86" arrival="136.00" arrivalLane="1253188486#8_1" arrivalPos="120.85" arrivalSpeed="16.18" duration="123.00" routeLength="303.44" waitingTime="78.00" waitingCount="1" stopTime="0.00" timeLoss="103.84" rerouteNo="0" devices="tripinfo_flow_route_113_duration_20250327_2000.5" vType="car" speedFactor="1.13" vaporized=""/>
    <tripinfo id="flow_route_113_duration_20250327_2000.6" depart="15.00" departLane="1253188486#4_0" departPos="52.51" departSpeed="0.00" departDelay="6.43" arrival="136.00" arrivalLane="1253188486#8_1" arrivalPos="157.42" arrivalSpeed="16.30" duration="121.00" routeLength="303.54" waitingTime="79.00" waitingCount="1" stopTime="0.00" timeLoss="101.95" rerouteNo="0" devices="tripinfo_flow_route_113_duration_20250327_2000.6" vType="car" speedFactor="1.18" vaporized=""/>
    <tripinfo id="flow_route_113_duration_20250327_2000.10" depart="25.00" departLane="1253188486#4_0" departPos="68.09" departSpeed="0.00" departDelay="10.72" arrival="137.00" arrivalLane="1253188486#8_0" arrivalPos="111.82" arrivalSpeed="16.52" duration="112.00" routeLength="242.36" waitingTime="74.00" waitingCount="1" stopTime="0.00" timeLoss="96.80" rerouteNo="0" devices="tripinfo_flow_route_113_duration_20250327_2000.10" vType="car" speedFactor="0.85" vaporized=""/>