<?xml version="1.0" encoding="UTF-8"?>

<!-- generated on 2025-05-06 21:09:06 by Eclipse SUMO sumo Version 1.20.0
<configuration xmlns:xsi="http://www.w3.org/2001/XMLSchema-instance" xsi:noNamespaceSchemaLocation="http://sumo.dlr.de/xsd/sumoConfiguration.xsd">

    <input>
        <net-file value="osm.net.xml"/>
        <route-files value="xml/route_static_cluster_4110471701_632031939_8.rou.xml"/>
    </input>

    <output>
        <tripinfo-output value="xml/tripinfo_static_cluster_4110471701_632031939_8.xml"/>
    </output>

    <traci_server>
        <remote-port value="57885"/>
    </traci_server>

</configuration>
-->

<tripinfos xmlns:xsi="http://www.w3.org/2001/XMLSchema-instance" xsi:noNamespaceSchemaLocation="http://sumo.dlr.de/xsd/tripinfo_file.xsd">
    <tripinfo id="flow_route_83_duration_20250327_2120.0" depart="0.00" departLane="423956929_0" departPos="101.16" departSpeed="0.00" departDelay="0.00" arrival="17.00" arrivalLane="186407685_0" arrivalPos="8.05" arrivalSpeed="6.86" duration="17.00" routeLength="101.45" waitingTime="0.00" waitingCount="0" stopTime="0.00" timeLoss="10.18" rerouteNo="0" devices="tripinfo_flow_route_83_duration_20250327_2120.0" vType="car" speedFactor="1.01" vaporized=""/>
    <tripinfo id="flow_route_62_duration_20250327_2120.1" depart="10.00" departLane="409155823_0" departPos="77.08" departSpeed="0.00" departDelay="0.00" arrival="20.00" arrivalLane="1091883842_0" arrivalPos="11.19" arrivalSpeed="7.76" duration="10.00" routeLength="39.52" waitingTime="0.00" waitingCount="0" stopTime="0.00" timeLoss="7.37" rerouteNo="0" devices="tripinfo_flow_route_62_duration_20250327_2120.1" vType="car" speedFactor="0.94" vaporized=""/>
    <tripinfo id="flow_route_62_duration_20250327_2120.0" depart="0.00" departLane="409155823_0" departPos="65.43" departSpeed="0.00" departDelay="0.00" arrival="23.00" arrivalLane="1091883842_0" arrivalPos="165.47" arrivalSpeed="16.20" duration="23.00" routeLength="205.45" waitingTime="0.00" waitingCount="0" stopTime="0.00" timeLoss="10.52" rerouteNo="0" devices="tripinfo_flow_route_62_duration_20250327_2120.0" vType="car" speedFactor="1.06" vaporized=""/>
    <tripinfo id="flow_route_82_duration_20250327_2120.0" depart="0.00" departLane="423956929_0" departPos="45.92" departSpeed="0.00" departDelay="0.00" arrival="24.00" arrivalLane="186407684#0_0" arrivalPos="62.79" arrivalSpeed="15.18" duration="24.00" routeLength="219.95" waitingTime="0.00" waitingCount="0" stopTime="0.00" timeLoss="8.99" rerouteNo="0" devices="tripinfo_flow_route_82_duration_20250327_2120.0" vType="car" speedFactor="0.94" vaporized=""/>
    <tripinfo id="flow_route_87_duration_20250327_2120.1" depart="30.00" departLane="430416184_0" departPos="276.64" departSpeed="0.00" departDelay="0.00" arrival="39.00" arrivalLane="1091883842_0" arrivalPos="6.02" arrivalSpeed="6.30" duration="9.00" routeLength="29.83" waitingTime="0.00" waitingCount="0" stopTime="0.00" timeLoss="6.23" rerouteNo="0" devices="tripinfo_flow_route_87_duration_20250327_2120.1" vType="car" speedFactor="0.88" vaporized=""/>
    <tripinfo id="flow_route_88_duration_20250327_2120.0" depart="0.00" departLane="430416184_0" departPos="194.63" departSpeed="0.00" departDelay="0.00" arrival="42.00" arrivalLane="186407684#0_1" arrivalPos="3.84" arrivalSpeed="7.77" duration="42.00" routeLength="126.85" waitingTime="13.00" waitingCount="1" stopTime="0.00" timeLoss="32.54" rerouteNo="0" devices="tripinfo_flow_route_88_duration_20250327_2120.0" vType="car" speedFactor="0.83" vaporized=""/>
    <tripinfo id="flow_route_88_duration_20250327_2120.3" depart="13.00" departLane="430416184_0" departPos="197.69" departSpeed="0.00" departDelay="0.15" arrival="47.00" arrivalLane="186407684#0_1" arrivalPos="28.37" arrivalSpeed="10.66" duration="34.00" routeLength="148.31" waitingTime="3.00" waitingCount="1" stopTime="0.00" timeLoss="22.85" rerouteNo="0" devices="tripinfo_flow_route_88_duration_20250327_2120.3" vType="car" speedFactor="0.86" vaporized=""/>
    <tripinfo id="flow_route_86_duration_20250327_2120.0" depart="0.00" departLane="430416184_0" departPos="215.48" departSpeed="0.00" departDelay="0.00" arrival="48.00" arrivalLane="186407685_1" arrivalPos="87.02" arrivalSpeed="13.72" duration="48.00" routeLength="195.42" waitingTime="15.00" waitingCount="1" stopTime="0.00" timeLoss="35.91" rerouteNo="0" devices="tripinfo_flow_route_86_duration_20250327_2120.0" vType="car" speedFactor="1.08" vaporized=""/>
    <tripinfo id="flow_route_87_duration_20250327_2120.0" depart="0.00" departLane="430416184_0" departPos="1.75" departSpeed="0.00" departDelay="0.00" arrival="51.00" arrivalLane="1091883842_0" arrivalPos="109.56" arrivalSpeed="14.97" duration="51.00" routeLength="408.27" waitingTime="0.00" waitingCount="0" stopTime="0.00" timeLoss="24.74" rerouteNo="0" devices="tripinfo_flow_route_87_duration_20250327_2120.0" vType="car" speedFactor="1.03" vaporized=""/>
    <tripinfo id="flow_route_88_duration_20250327_2120.9" depart="40.00" departLane="430416184_0" departPos="278.94" departSpeed="0.00" departDelay="1.44" arrival="52.00" arrivalLane="186407684#0_1" arrivalPos="11.40" arrivalSpeed="9.49" duration="12.00" routeLength="50.10" waitingTime="0.00" waitingCount="0" stopTime="0.00" timeLoss="7.92" rerouteNo="0" devices="tripinfo_flow_route_88_duration_20250327_2120.9" vType="car" speedFactor="1.16" vaporized=""/>
    <tripinfo id="flow_route_88_duration_20250327_2120.5" depart="22.00" departLane="430416184_0" departPos="238.38" departSpeed="0.00" departDelay="0.58" arrival="53.00" arrivalLane="186407684#0_1" arrivalPos="82.76" arrivalSpeed="13.64" duration="31.00" routeLength="162.01" waitingTime="1.00" waitingCount="1" stopTime="0.00" timeLoss="20.04" rerouteNo="0" devices="tripinfo_flow_route_88_duration_20250327_2120.5" vType="car" speedFactor="1.05" vaporized=""/>
    <tripinfo id="flow_route_88_duration_20250327_2120.4" depart="18.00" departLane="430416184_0" departPos="148.34" departSpeed="0.00" departDelay="0.86" arrival="56.00" arrivalLane="186407684#0_1" arrivalPos="4.07" arrivalSpeed="9.24" duration="38.00" routeLength="173.36" waitingTime="0.00" waitingCount="0" stopTime="0.00" timeLoss="26.59" rerouteNo="0" devices="tripinfo_flow_route_88_duration_20250327_2120.4" vType="car" speedFactor="1.09" vaporized=""/>
    <tripinfo id="flow_route_88_duration_20250327_2120.1" depart="5.00" departLane="430416184_0" departPos="130.75" departSpeed="0.00" departDelay="0.72" arrival="57.00" arrivalLane="186407684#0_1" arrivalPos="41.08" arrivalSpeed="10.63" duration="52.00" routeLength="227.97" waitingTime="2.00" waitingCount="2" stopTime="0.00" timeLoss="37.54" rerouteNo="0" devices="tripinfo_flow_route_88_duration_20250327_2120.1" vType="car" speedFactor="1.05" vaporized=""/>
    <tripinfo id="flow_route_88_duration_20250327_2120.2" depart="9.00" departLane="430416184_0" departPos="76.50" departSpeed="0.00" departDelay="0.43" arrival="62.00" arrivalLane="186407684#0_1" arrivalPos="49.91" arrivalSpeed="12.47" duration="53.00" routeLength="291.04" waitingTime="0.00" waitingCount="0" stopTime="0.00" timeLoss="33.43" rerouteNo="0" devices="tripinfo_flow_route_88_duration_20250327_2120.2" vType="car" speedFactor="0.89" vaporized=""/>
    <tripinfo id="flow_route_88_duration_20250327_2120.6" depart="26.00" departLane="430416184_0" departPos="114.69" departSpeed="0.00" departDelay="0.29" arrival="66.00" arrivalLane="186407684#0_1" arrivalPos="78.23" arrivalSpeed="14.51" duration="40.00" routeLength="281.17" waitingTime="0.00" waitingCount="0" stopTime="0.00" timeLoss="22.51" rerouteNo="0" devices="tripinfo_flow_route_88_duration_20250327_2120.6" vType="car" speedFactor="1.12" vaporized=""/>
    <tripinfo id="flow_route_88_duration_20250327_2120.11" depart="49.00" departLane="430416184_0" departPos="234.74" departSpeed="0.00" departDelay="1.87" arrival="74.00" arrivalLane="186407684#0_1" arrivalPos="50.38" arrivalSpeed="11.74" duration="25.00" routeLength="133.27" waitingTime="0.00" waitingCount="0" stopTime="0.00" timeLoss="15.23" rerouteNo="0" devices="tripinfo_flow_route_88_duration_20250327_2120.11" vType="car" speedFactor="0.97" vaporized=""/>
    <tripinfo id="flow_route_88_duration_20250327_2120.13" depart="56.00" departLane="430416184_0" departPos="277.61" departSpeed="0.00" departDelay="0.30" arrival="74.00" arrivalLane="186407684#0_1" arrivalPos="82.41" arrivalSpeed="13.60" duration="18.00" routeLength="122.43" waitingTime="0.00" waitingCount="0" stopTime="0.00" timeLoss="8.51" rerouteNo="0" devices="tripinfo_flow_route_88_duration_20250327_2120.13" vType="car" speedFactor="0.87" vaporized=""/>
    <tripinfo id="flow_route_62_duration_20250327_2120.5" depart="51.00" departLane="409155823_0" departPos="62.99" departSpeed="0.00" departDelay="1.00" arrival="77.00" arrivalLane="1091883842_2" arrivalPos="16.53" arrivalSpeed="7.38" duration="26.00" routeLength="58.95" waitingTime="7.00" waitingCount="1" stopTime="0.00" timeLoss="21.83" rerouteNo="0" devices="tripinfo_flow_route_62_duration_20250327_2120.5" vType="car" speedFactor="0.89" vaporized=""/>
    <tripinfo id="flow_route_62_duration_20250327_2120.2" depart="20.00" departLane="409155823_0" departPos="55.77" departSpeed="0.00" departDelay="0.00" arrival="81.00" arrivalLane="1091883842_0" arrivalPos="57.02" arrivalSpeed="10.72" duration="61.00" routeLength="106.67" waitingTime="37.00" waitingCount="1" stopTime="0.00" timeLoss="53.94" rerouteNo="0" devices="tripinfo_flow_route_62_duration_20250327_2120.2" vType="car" speedFactor="1.03" vaporized=""/>
    <tripinfo id="flow_route_62_duration_20250327_2120.3" depart="30.00" departLane="409155823_0" departPos="67.30" departSpeed="0.00" departDelay="0.00" arrival="85.00" arrivalLane="1091883842_0" arrivalPos="101.08" arrivalSpeed="13.39" duration="55.00" routeLength="139.20" waitingTime="30.00" waitingCount="1" stopTime="0.00" timeLoss="46.15" rerouteNo="0" devices="tripinfo_flow_route_62_duration_20250327_2120.3" vType="car" speedFactor="0.99" vaporized=""/>
    <tripinfo id="flow_route_62_duration_20250327_2120.4" depart="40.00" departLane="409155823_0" departPos="23.25" departSpeed="0.00" departDelay="0.00" arrival="85.00" arrivalLane="1091883842_0" arrivalPos="76.39" arrivalSpeed="12.41" duration="45.00" routeLength="158.55" waitingTime="14.00" waitingCount="1" stopTime="0.00" timeLoss="34.83" rerouteNo="0" devices="tripinfo_flow_route_62_duration_20250327_2120.4" vType="car" speedFactor="1.02" vaporized=""/>
    <tripinfo id="flow_route_86_duration_20250327_2120.1" depart="30.00" departLane="430416184_0" departPos="46.01" departSpeed="0.00" departDelay="0.00" arrival="114.00" arrivalLane="186407685_1" arrivalPos="41.92" arrivalSpeed="11.15" duration="84.00" routeLength="319.78" waitingTime="30.00" waitingCount="1" stopTime="0.00" timeLoss="64.67" rerouteNo="0" devices="tripinfo_flow_route_86_duration_20250327_2120.1" vType="car" speedFactor="0.93" vaporized=""/>
    <tripinfo id="flow_route_88_duration_20250327_2120.8" depart="35.00" departLane="430416184_0" departPos="95.81" departSpeed="0.00" departDelay="0.72" arrival="114.00" arrivalLane="186407684#0_1" arrivalPos="60.38" arrivalSpeed="11.02" duration="79.00" routeLength="282.19" waitingTime="30.00" waitingCount="1" stopTime="0.00" timeLoss="60.00" rerouteNo="0" devices="tripinfo_flow_route_88_duration_20250327_2120.8" vType="car" speedFactor="0.94" vaporized=""/>
    <tripinfo id="flow_route_88_duration_20250327_2120.7" depart="30.00" departLane="430416184_0" departPos="8.62" departSpeed="0.00" departDelay="0.01" arrival="117.00" arrivalLane="186407684#0_1" arrivalPos="26.59" arrivalSpeed="10.53" duration="87.00" routeLength="335.60" waitingTime="29.00" waitingCount="1" stopTime="0.00" timeLoss="65.25" rerouteNo="0" devices="tripinfo_flow_route_88_duration_20250327_2120.7" vType="car" speedFactor="0.94" vaporized=""/>
    <tripinfo id="flow_route_88_duration_20250327_2120.12" depart="52.00" departLane="430416184_0" departPos="200.01" departSpeed="0.00" departDelay="0.58" arrival="117.00" arrivalLane="186407684#0_1" arrivalPos="52.55" arrivalSpeed="11.45" duration="65.00" routeLength="170.17" waitingTime="29.00" waitingCount="1" stopTime="0.00" timeLoss="52.41" rerouteNo="0" devices="tripinfo_flow_route_88_duration_20250327_2120.12" vType="car" speedFactor="0.83" vaporized=""/>
    <tripinfo id="flow_route_88_duration_20250327_2120.10" depart="43.00" departLane="430416184_0" departPos="48.57" departSpeed="0.00" departDelay="0.15" arrival="118.00" arrivalLane="186407684#0_1" arrivalPos="19.66" arrivalSpeed="10.06" duration="75.00" routeLength="288.72" waitingTime="28.00" waitingCount="1" stopTime="0.00" timeLoss="56.47" rerouteNo="0" devices="tripinfo_flow_route_88_duration_20250327_2120.10" vType="car" speedFactor="1.01" vaporized=""/>
</tripinfos>
