<?xml version="1.0" encoding="UTF-8"?>

<!-- generated on 2025-05-06 21:08:56 by Eclipse SUMO sumo Version 1.20.0
<configuration xmlns:xsi="http://www.w3.org/2001/XMLSchema-instance" xsi:noNamespaceSchemaLocation="http://sumo.dlr.de/xsd/sumoConfiguration.xsd">

    <input>
        <net-file value="osm.net.xml"/>
        <route-files value="xml/route_static_GS_cluster_4854142864_4854142865_7.rou.xml"/>
    </input>

    <output>
        <tripinfo-output value="xml/tripinfo_static_GS_cluster_4854142864_4854142865_7.xml"/>
    </output>

    <traci_server>
        <remote-port value="41985"/>
    </traci_server>

</configuration>
-->

<tripinfos xmlns:xsi="http://www.w3.org/2001/XMLSchema-instance" xsi:noNamespaceSchemaLocation="http://sumo.dlr.de/xsd/tripinfo_file.xsd">
    <tripinfo id="flow_route_39_duration_20250327_2030.0" depart="0.00" departLane="133126030#0_0" departPos="101.03" departSpeed="0.00" departDelay="0.00" arrival="29.00" arrivalLane="1328664748#0_0" arrivalPos="158.52" arrivalSpeed="15.14" duration="29.00" routeLength="263.70" waitingTime="0.00" waitingCount="0" stopTime="0.00" timeLoss="11.27" rerouteNo="0" devices="tripinfo_flow_route_39_duration_20250327_2030.0" vType="car" speedFactor="0.94" vaporized=""/>
    <tripinfo id="flow_route_38_duration_20250327_2030.0" depart="0.00" departLane="133126030#0_0" departPos="45.86" departSpeed="0.00" departDelay="0.00" arrival="34.00" arrivalLane="134193294#0_0" arrivalPos="152.84" arrivalSpeed="16.03" duration="34.00" routeLength="301.86" waitingTime="0.00" waitingCount="0" stopTime="0.00" timeLoss="15.00" rerouteNo="0" devices="tripinfo_flow_route_38_duration_20250327_2030.0" vType="car" speedFactor="1.06" vaporized=""/>
    <tripinfo id="flow_route_38_duration_20250327_2030.1" depart="20.00" departLane="133126030#0_0" departPos="101.31" departSpeed="0.00" departDelay="0.00" arrival="42.00" arrivalLane="134193294#0_0" arrivalPos="31.45" arrivalSpeed="9.29" duration="22.00" routeLength="125.02" waitingTime="0.00" waitingCount="0" stopTime="0.00" timeLoss="12.29" rerouteNo="0" devices="tripinfo_flow_route_38_duration_20250327_2030.1" vType="car" speedFactor="0.92" vaporized=""/>
    <tripinfo id="flow_route_43_duration_20250327_2030.0" depart="0.00" departLane="1328664744#0_0" departPos="1.34" departSpeed="0.00" departDelay="0.00" arrival="56.00" arrivalLane="134193294#0_3" arrivalPos="84.30" arrivalSpeed="12.47" duration="56.00" routeLength="323.03" waitingTime="13.00" waitingCount="1" stopTime="0.00" timeLoss="35.70" rerouteNo="0" devices="tripinfo_flow_route_43_duration_20250327_2030.0" vType="car" speedFactor="1.08" vaporized=""/>
    <tripinfo id="flow_route_45_duration_20250327_2030.3" depart="13.00" departLane="791826085_0" departPos="314.57" departSpeed="0.00" departDelay="3.53" arrival="95.00" arrivalLane="485211947#0_0" arrivalPos="29.48" arrivalSpeed="8.20" duration="82.00" routeLength="50.67" waitingTime="67.00" waitingCount="1" stopTime="0.00" timeLoss="77.47" rerouteNo="0" devices="tripinfo_flow_route_45_duration_20250327_2030.3" vType="car" speedFactor="0.88" vaporized=""/>
    <tripinfo id="flow_route_44_duration_20250327_2030.1" depart="3.00" departLane="791826085_0" departPos="285.55" departSpeed="0.00" departDelay="0.50" arrival="96.00" arrivalLane="134193294#0_1" arrivalPos="45.37" arrivalSpeed="11.31" duration="93.00" routeLength="114.19" waitingTime="66.00" waitingCount="1" stopTime="0.00" timeLoss="84.75" rerouteNo="0" devices="tripinfo_flow_route_44_duration_20250327_2030.1" vType="car" speedFactor="0.89" vaporized=""/>
    <tripinfo id="flow_route_45_duration_20250327_2030.0" depart="0.00" departLane="791826085_0" departPos="152.03" departSpeed="0.00" departDelay="0.00" arrival="97.00" arrivalLane="485211947#0_0" arrivalPos="8.08" arrivalSpeed="6.11" duration="97.00" routeLength="191.81" waitingTime="56.00" waitingCount="1" stopTime="0.00" timeLoss="82.03" rerouteNo="0" devices="tripinfo_flow_route_45_duration_20250327_2030.0" vType="car" speedFactor="0.83" vaporized=""/>
    <tripinfo id="flow_route_44_duration_20250327_2030.5" depart="15.00" departLane="791826085_0" departPos="264.72" departSpeed="0.00" departDelay="2.50" arrival="98.00" arrivalLane="134193294#0_0" arrivalPos="21.51" arrivalSpeed="10.29" duration="83.00" routeLength="111.16" waitingTime="57.00" waitingCount="1" stopTime="0.00" timeLoss="75.50" rerouteNo="0" devices="tripinfo_flow_route_44_duration_20250327_2030.5" vType="car" speedFactor="0.94" vaporized=""/>
    <tripinfo id="flow_route_46_duration_20250327_2030.1" depart="3.00" departLane="791826085_0" departPos="105.00" departSpeed="0.00" departDelay="0.27" arrival="99.00" arrivalLane="1328664748#0_1" arrivalPos="13.41" arrivalSpeed="8.80" duration="96.00" routeLength="257.19" waitingTime="57.00" waitingCount="1" stopTime="0.00" timeLoss="78.53" rerouteNo="0" devices="tripinfo_flow_route_46_duration_20250327_2030.1" vType="car" speedFactor="0.94" vaporized=""/>
    <tripinfo id="flow_route_44_duration_20250327_2030.2" depart="6.00" departLane="791826085_0" departPos="306.25" departSpeed="0.00" departDelay="1.00" arrival="100.00" arrivalLane="134193294#0_0" arrivalPos="87.99" arrivalSpeed="13.30" duration="94.00" routeLength="136.12" waitingTime="68.00" waitingCount="1" stopTime="0.00" timeLoss="85.49" rerouteNo="0" devices="tripinfo_flow_route_44_duration_20250327_2030.2" vType="car" speedFactor="1.09" vaporized=""/>
    <tripinfo id="flow_route_44_duration_20250327_2030.0" depart="0.00" departLane="791826085_0" departPos="219.49" departSpeed="0.00" departDelay="0.00" arrival="102.00" arrivalLane="134193294#0_1" arrivalPos="101.20" arrivalSpeed="14.38" duration="102.00" routeLength="236.08" waitingTime="65.00" waitingCount="1" stopTime="0.00" timeLoss="87.68" rerouteNo="0" devices="tripinfo_flow_route_44_duration_20250327_2030.0" vType="car" speedFactor="1.03" vaporized=""/>
    <tripinfo id="flow_route_46_duration_20250327_2030.2" depart="6.00" departLane="791826085_0" departPos="268.83" departSpeed="0.00" departDelay="0.55" arrival="103.00" arrivalLane="1328664748#0_1" arrivalPos="140.94" arrivalSpeed="16.17" duration="97.00" routeLength="220.90" waitingTime="63.00" waitingCount="1" stopTime="0.00" timeLoss="81.95" rerouteNo="0" devices="tripinfo_flow_route_46_duration_20250327_2030.2" vType="car" speedFactor="1.03" vaporized=""/>
    <tripinfo id="flow_route_46_duration_20250327_2030.5" depart="16.00" departLane="791826085_0" departPos="194.45" departSpeed="0.00" departDelay="2.37" arrival="104.00" arrivalLane="1328664748#0_1" arrivalPos="49.64" arrivalSpeed="11.57" duration="88.00" routeLength="203.99" waitingTime="52.00" waitingCount="1" stopTime="0.00" timeLoss="74.85" rerouteNo="0" devices="tripinfo_flow_route_46_duration_20250327_2030.5" vType="car" speedFactor="1.02" vaporized=""/>
    <tripinfo id="flow_route_44_duration_20250327_2030.3" depart="8.00" departLane="791826085_0" departPos="77.20" departSpeed="0.00" departDelay="0.50" arrival="106.00" arrivalLane="134193294#0_1" arrivalPos="93.37" arrivalSpeed="14.27" duration="98.00" routeLength="370.54" waitingTime="51.00" waitingCount="1" stopTime="0.00" timeLoss="75.49" rerouteNo="0" devices="tripinfo_flow_route_44_duration_20250327_2030.3" vType="car" speedFactor="1.12" vaporized=""/>
    <tripinfo id="flow_route_46_duration_20250327_2030.0" depart="1.00" departLane="791826085_0" departPos="184.68" departSpeed="0.00" departDelay="1.00" arrival="107.00" arrivalLane="1328664748#0_1" arrivalPos="165.37" arrivalSpeed="16.10" duration="106.00" routeLength="329.48" waitingTime="61.00" waitingCount="1" stopTime="0.00" timeLoss="84.57" rerouteNo="0" devices="tripinfo_flow_route_46_duration_20250327_2030.0" vType="car" speedFactor="1.05" vaporized=""/>
    <tripinfo id="flow_route_44_duration_20250327_2030.4" depart="11.00" departLane="791826085_0" departPos="223.42" departSpeed="0.00" departDelay="1.00" arrival="107.00" arrivalLane="134193294#0_1" arrivalPos="131.14" arrivalSpeed="14.96" duration="96.00" routeLength="262.09" waitingTime="55.00" waitingCount="1" stopTime="0.00" timeLoss="78.36" rerouteNo="0" devices="tripinfo_flow_route_44_duration_20250327_2030.4" vType="car" speedFactor="0.93" vaporized=""/>
    <tripinfo id="flow_route_46_duration_20250327_2030.3" depart="9.00" departLane="791826085_0" departPos="98.41" departSpeed="0.00" departDelay="0.82" arrival="108.00" arrivalLane="1328664748#0_1" arrivalPos="7.21" arrivalSpeed="9.50" duration="99.00" routeLength="257.59" waitingTime="54.00" waitingCount="2" stopTime="0.00" timeLoss="82.46" rerouteNo="0" devices="tripinfo_flow_route_46_duration_20250327_2030.3" vType="car" speedFactor="0.99" vaporized=""/>
    <tripinfo id="flow_route_44_duration_20250327_2030.6" depart="18.00" departLane="791826085_0" departPos="160.64" departSpeed="0.00" departDelay="3.00" arrival="110.00" arrivalLane="134193294#0_1" arrivalPos="98.05" arrivalSpeed="15.09" duration="92.00" routeLength="291.78" waitingTime="49.00" waitingCount="1" stopTime="0.00" timeLoss="74.42" rerouteNo="0" devices="tripinfo_flow_route_44_duration_20250327_2030.6" vType="car" speedFactor="1.01" vaporized=""/>
    <tripinfo id="flow_route_46_duration_20250327_2030.6" depart="21.00" departLane="791826085_0" departPos="302.68" departSpeed="0.00" departDelay="4.64" arrival="112.00" arrivalLane="1328664748#0_1" arrivalPos="208.04" arrivalSpeed="14.80" duration="91.00" routeLength="254.15" waitingTime="58.00" waitingCount="1" stopTime="0.00" timeLoss="72.64" rerouteNo="0" devices="tripinfo_flow_route_46_duration_20250327_2030.6" vType="car" speedFactor="0.89" vaporized=""/>
    <tripinfo id="flow_route_45_duration_20250327_2030.2" depart="7.00" departLane="791826085_0" departPos="129.34" departSpeed="0.00" departDelay="0.69" arrival="113.00" arrivalLane="485211947#0_0" arrivalPos="164.47" arrivalSpeed="16.20" duration="106.00" routeLength="370.89" waitingTime="55.00" waitingCount="1" stopTime="0.00" timeLoss="82.26" rerouteNo="0" devices="tripinfo_flow_route_45_duration_20250327_2030.2" vType="car" speedFactor="1.05" vaporized=""/>
    <tripinfo id="flow_route_44_duration_20250327_2030.9" depart="28.00" departLane="791826085_0" departPos="269.23" departSpeed="0.00" departDelay="5.50" arrival="113.00" arrivalLane="134193294#0_1" arrivalPos="97.29" arrivalSpeed="16.13" duration="85.00" routeLength="182.43" waitingTime="53.00" waitingCount="2" stopTime="0.00" timeLoss="73.45" rerouteNo="0" devices="tripinfo_flow_route_44_duration_20250327_2030.9" vType="car" speedFactor="1.18" vaporized=""/>
    <tripinfo id="flow_route_46_duration_20250327_2030.9" depart="30.00" departLane="791826085_0" departPos="285.54" departSpeed="0.00" departDelay="5.46" arrival="115.00" arrivalLane="1328664748#0_1" arrivalPos="160.61" arrivalSpeed="16.37" duration="85.00" routeLength="223.86" waitingTime="53.00" waitingCount="2" stopTime="0.00" timeLoss="70.30" rerouteNo="0" devices="tripinfo_flow_route_46_duration_20250327_2030.9" vType="car" speedFactor="1.17" vaporized=""/>
    <tripinfo id="flow_route_46_duration_20250327_2030.4" depart="15.00" departLane="791826085_0" departPos="78.72" departSpeed="0.00" departDelay="4.09" arrival="120.00" arrivalLane="1328664748#0_1" arrivalPos="6.64" arrivalSpeed="9.70" duration="105.00" routeLength="276.70" waitingTime="49.00" waitingCount="3" stopTime="0.00" timeLoss="85.96" rerouteNo="0" devices="tripinfo_flow_route_46_duration_20250327_2030.4" vType="car" speedFactor="0.94" vaporized=""/>
    <tripinfo id="flow_route_46_duration_20250327_2030.7" depart="27.00" departLane="791826085_0" departPos="221.34" departSpeed="0.00" departDelay="7.91" arrival="121.00" arrivalLane="1328664748#0_1" arrivalPos="33.78" arrivalSpeed="11.18" duration="94.00" routeLength="161.23" waitingTime="52.00" waitingCount="3" stopTime="0.00" timeLoss="83.15" rerouteNo="0" devices="tripinfo_flow_route_46_duration_20250327_2030.7" vType="car" speedFactor="1.13" vaporized=""/>
    <tripinfo id="flow_route_44_duration_20250327_2030.12" depart="36.00" departLane="791826085_0" departPos="254.71" departSpeed="0.00" departDelay="6.00" arrival="121.00" arrivalLane="134193294#0_1" arrivalPos="4.09" arrivalSpeed="10.38" duration="85.00" routeLength="103.75" waitingTime="48.00" waitingCount="2" stopTime="0.00" timeLoss="78.34" rerouteNo="0" devices="tripinfo_flow_route_44_duration_20250327_2030.12" vType="car" speedFactor="1.10" vaporized=""/>
    <tripinfo id="flow_route_44_duration_20250327_2030.8" depart="22.00" departLane="791826085_0" departPos="110.56" departSpeed="0.00" departDelay="2.00" arrival="124.00" arrivalLane="134193294#0_0" arrivalPos="110.07" arrivalSpeed="15.38" duration="102.00" routeLength="353.87" waitingTime="50.00" waitingCount="2" stopTime="0.00" timeLoss="78.73" rerouteNo="0" devices="tripinfo_flow_route_44_duration_20250327_2030.8" vType="car" speedFactor="0.95" vaporized=""/>
    <tripinfo id="flow_route_46_duration_20250327_2030.20" depart="96.00" departLane="791826085_0" departPos="295.10" departSpeed="0.00" departDelay="41.46" arrival="126.00" arrivalLane="1328664748#0_1" arrivalPos="189.40" arrivalSpeed="15.20" duration="30.00" routeLength="243.09" waitingTime="2.00" waitingCount="2" stopTime="0.00" timeLoss="13.41" rerouteNo="0" devices="tripinfo_flow_route_46_duration_20250327_2030.20" vType="car" speedFactor="0.91" vaporized=""/>
    <tripinfo id="flow_route_46_duration_20250327_2030.10" depart="35.00" departLane="791826085_0" departPos="228.12" departSpeed="0.00" departDelay="7.73" arrival="130.00" arrivalLane="1328664748#0_1" arrivalPos="114.10" arrivalSpeed="15.77" duration="95.00" routeLength="234.77" waitingTime="46.00" waitingCount="2" stopTime="0.00" timeLoss="79.52" rerouteNo="0" devices="tripinfo_flow_route_46_duration_20250327_2030.10" vType="car" speedFactor="0.97" vaporized=""/>
    <tripinfo id="flow_route_38_duration_20250327_2030.2" depart="40.00" departLane="133126030#0_0" departPos="125.13" departSpeed="0.00" departDelay="0.00" arrival="138.00" arrivalLane="134193294#0_0" arrivalPos="82.34" arrivalSpeed="12.20" duration="98.00" routeLength="152.09" waitingTime="68.00" waitingCount="1" stopTime="0.00" timeLoss="85.96" rerouteNo="0" devices="tripinfo_flow_route_38_duration_20250327_2030.2" vType="car" speedFactor="0.85" vaporized=""/>
    <tripinfo id="flow_route_45_duration_20250327_2030.7" depart="28.00" departLane="791826085_0" departPos="190.79" departSpeed="0.00" departDelay="5.90" arrival="219.00" arrivalLane="485211947#0_0" arrivalPos="38.39" arrivalSpeed="8.99" duration="191.00" routeLength="183.36" waitingTime="136.00" waitingCount="3" stopTime="0.00" timeLoss="179.00" rerouteNo="0" devices="tripinfo_flow_route_45_duration_20250327_2030.7" vType="car" speedFactor="1.15" vaporized=""/>
    <tripinfo id="flow_route_45_duration_20250327_2030.8" depart="30.00" departLane="791826085_0" departPos="203.91" departSpeed="0.00" departDelay="4.74" arrival="219.00" arrivalLane="485211947#0_0" arrivalPos="53.74" arrivalSpeed="10.05" duration="189.00" routeLength="185.60" waitingTime="138.00" waitingCount="4" stopTime="0.00" timeLoss="176.32" rerouteNo="0" devices="tripinfo_flow_route_45_duration_20250327_2030.8" vType="car" speedFactor="0.99" vaporized=""/>
    <tripinfo id="flow_route_44_duration_20250327_2030.10" depart="30.00" departLane="791826085_0" departPos="34.15" departSpeed="0.00" departDelay="5.00" arrival="220.00" arrivalLane="134193294#0_1" arrivalPos="13.72" arrivalSpeed="8.81" duration="190.00" routeLength="333.94" waitingTime="121.00" waitingCount="5" stopTime="0.00" timeLoss="169.67" rerouteNo="0" devices="tripinfo_flow_route_44_duration_20250327_2030.10" vType="car" speedFactor="1.01" vaporized=""/>
    <tripinfo id="flow_route_44_duration_20250327_2030.11" depart="31.00" departLane="791826085_0" departPos="160.68" departSpeed="0.00" departDelay="3.50" arrival="221.00" arrivalLane="134193294#0_0" arrivalPos="66.86" arrivalSpeed="12.13" duration="190.00" routeLength="260.55" waitingTime="127.00" waitingCount="4" stopTime="0.00" timeLoss="173.69" rerouteNo="0" devices="tripinfo_flow_route_44_duration_20250327_2030.11" vType="car" speedFactor="1.02" vaporized=""/>
    <tripinfo id="flow_route_46_duration_20250327_2030.11" depart="41.00" departLane="791826085_0" departPos="275.74" departSpeed="0.00" departDelay="11.00" arrival="221.00" arrivalLane="1328664748#0_1" arrivalPos="67.36" arrivalSpeed="12.40" duration="180.00" routeLength="140.41" waitingTime="145.00" waitingCount="4" stopTime="0.00" timeLoss="169.31" rerouteNo="0" devices="tripinfo_flow_route_46_duration_20250327_2030.11" vType="car" speedFactor="0.90" vaporized=""/>
    <tripinfo id="flow_route_44_duration_20250327_2030.7" depart="21.00" departLane="791826085_0" departPos="21.84" departSpeed="0.00" departDelay="3.50" arrival="222.00" arrivalLane="134193294#0_1" arrivalPos="52.80" arrivalSpeed="11.71" duration="201.00" routeLength="385.33" waitingTime="129.00" waitingCount="5" stopTime="0.00" timeLoss="172.48" rerouteNo="0" devices="tripinfo_flow_route_44_duration_20250327_2030.7" vType="car" speedFactor="0.83" vaporized=""/>
    <tripinfo id="flow_route_46_duration_20250327_2030.8" depart="27.00" departLane="791826085_0" departPos="138.02" departSpeed="0.00" departDelay="5.18" arrival="223.00" arrivalLane="1328664748#0_1" arrivalPos="69.83" arrivalSpeed="12.20" duration="196.00" routeLength="280.60" waitingTime="125.00" waitingCount="3" stopTime="0.00" timeLoss="176.43" rerouteNo="0" devices="tripinfo_flow_route_46_duration_20250327_2030.8" vType="car" speedFactor="0.93" vaporized=""/>
    <tripinfo id="flow_route_44_duration_20250327_2030.15" depart="56.00" departLane="791826085_0" departPos="128.32" departSpeed="0.00" departDelay="18.50" arrival="225.00" arrivalLane="134193294#0_1" arrivalPos="21.32" arrivalSpeed="9.90" duration="169.00" routeLength="247.37" waitingTime="99.00" waitingCount="2" stopTime="0.00" timeLoss="153.73" rerouteNo="0" devices="tripinfo_flow_route_44_duration_20250327_2030.15" vType="car" speedFactor="1.00" vaporized=""/>
    <tripinfo id="flow_route_44_duration_20250327_2030.16" depart="59.00" departLane="791826085_0" departPos="50.01" departSpeed="0.00" departDelay="19.00" arrival="225.00" arrivalLane="134193294#0_1" arrivalPos="7.31" arrivalSpeed="9.07" duration="166.00" routeLength="311.67" waitingTime="94.00" waitingCount="2" stopTime="0.00" timeLoss="144.00" rerouteNo="0" devices="tripinfo_flow_route_44_duration_20250327_2030.16" vType="car" speedFactor="0.85" vaporized=""/>
    <tripinfo id="flow_route_45_duration_20250327_2030.6" depart="21.00" departLane="791826085_0" departPos="58.37" departSpeed="0.00" departDelay="2.06" arrival="226.00" arrivalLane="485211947#0_0" arrivalPos="31.20" arrivalSpeed="8.65" duration="205.00" routeLength="308.59" waitingTime="129.00" waitingCount="3" stopTime="0.00" timeLoss="182.16" rerouteNo="0" devices="tripinfo_flow_route_45_duration_20250327_2030.6" vType="car" speedFactor="0.87" vaporized=""/>
    <tripinfo id="flow_route_42_duration_20250327_2030.0" depart="0.00" departLane="1328664744#0_0" departPos="165.30" departSpeed="0.00" departDelay="0.00" arrival="228.00" arrivalLane="133126030#0_0" arrivalPos="8.43" arrivalSpeed="4.83" duration="228.00" routeLength="669.86" waitingTime="137.00" waitingCount="3" stopTime="0.00" timeLoss="185.29" rerouteNo="0" devices="tripinfo_flow_route_42_duration_20250327_2030.0" vType="car" speedFactor="1.01" vaporized=""/>
    <tripinfo id="flow_route_44_duration_20250327_2030.14" depart="43.00" departLane="791826085_0" departPos="123.75" departSpeed="0.00" departDelay="8.00" arrival="228.00" arrivalLane="134193294#0_2" arrivalPos="70.52" arrivalSpeed="13.58" duration="185.00" routeLength="301.13" waitingTime="109.00" waitingCount="3" stopTime="0.00" timeLoss="166.17" rerouteNo="0" devices="tripinfo_flow_route_44_duration_20250327_2030.14" vType="car" speedFactor="1.04" vaporized=""/>
    <tripinfo id="flow_route_44_duration_20250327_2030.18" depart="65.00" departLane="791826085_0" departPos="37.40" departSpeed="0.00" departDelay="20.00" arrival="228.00" arrivalLane="134193294#0_1" arrivalPos="17.65" arrivalSpeed="10.92" duration="163.00" routeLength="334.62" waitingTime="88.00" waitingCount="2" stopTime="0.00" timeLoss="142.56" rerouteNo="0" devices="tripinfo_flow_route_44_duration_20250327_2030.18" vType="car" speedFactor="1.00" vaporized=""/>
    <tripinfo id="flow_route_44_duration_20250327_2030.13" depart="42.00" departLane="791826085_0" departPos="216.32" departSpeed="0.00" departDelay="9.50" arrival="230.00" arrivalLane="134193294#0_0" arrivalPos="149.90" arrivalSpeed="15.51" duration="188.00" routeLength="287.94" waitingTime="132.00" waitingCount="3" stopTime="0.00" timeLoss="169.39" rerouteNo="0" devices="tripinfo_flow_route_44_duration_20250327_2030.13" vType="car" speedFactor="0.96" vaporized=""/>
    <tripinfo id="flow_route_46_duration_20250327_2030.12" depart="43.00" departLane="791826085_0" departPos="90.43" departSpeed="0.00" departDelay="10.28" arrival="230.00" arrivalLane="1328664748#0_1" arrivalPos="127.63" arrivalSpeed="15.96" duration="187.00" routeLength="385.99" waitingTime="109.00" waitingCount="4" stopTime="0.00" timeLoss="162.25" rerouteNo="0" devices="tripinfo_flow_route_46_duration_20250327_2030.12" vType="car" speedFactor="1.09" vaporized=""/>
    <tripinfo id="flow_route_44_duration_20250327_2030.17" depart="64.00" departLane="791826085_0" departPos="189.01" departSpeed="0.00" departDelay="21.50" arrival="230.00" arrivalLane="134193294#0_1" arrivalPos="101.05" arrivalSpeed="14.74" duration="166.00" routeLength="266.41" waitingTime="102.00" waitingCount="3" stopTime="0.00" timeLoss="149.15" rerouteNo="0" devices="tripinfo_flow_route_44_duration_20250327_2030.17" vType="car" speedFactor="1.10" vaporized=""/>
    <tripinfo id="flow_route_44_duration_20250327_2030.19" depart="80.00" departLane="791826085_0" departPos="27.59" departSpeed="0.00" departDelay="32.50" arrival="231.00" arrivalLane="134193294#0_1" arrivalPos="2.51" arrivalSpeed="11.58" duration="151.00" routeLength="329.29" waitingTime="76.00" waitingCount="1" stopTime="0.00" timeLoss="130.49" rerouteNo="0" devices="tripinfo_flow_route_44_duration_20250327_2030.19" vType="car" speedFactor="1.02" vaporized=""/>
    <tripinfo id="flow_route_44_duration_20250327_2030.20" depart="85.00" departLane="791826085_0" departPos="148.62" departSpeed="0.00" departDelay="35.00" arrival="231.00" arrivalLane="134193294#0_1" arrivalPos="28.73" arrivalSpeed="12.98" duration="146.00" routeLength="234.48" waitingTime="79.00" waitingCount="2" stopTime="0.00" timeLoss="131.40" rerouteNo="0" devices="tripinfo_flow_route_44_duration_20250327_2030.20" vType="car" speedFactor="1.08" vaporized=""/>
    <tripinfo id="flow_route_45_duration_20250327_2030.1" depart="4.00" departLane="791826085_0" departPos="15.07" departSpeed="0.00" departDelay="0.84" arrival="232.00" arrivalLane="485211947#0_0" arrivalPos="126.67" arrivalSpeed="13.90" duration="228.00" routeLength="447.36" waitingTime="130.00" waitingCount="3" stopTime="0.00" timeLoss="194.67" rerouteNo="0" devices="tripinfo_flow_route_45_duration_20250327_2030.1" vType="car" speedFactor="0.86" vaporized=""/>
    <tripinfo id="flow_route_45_duration_20250327_2030.4" depart="15.00" departLane="791826085_0" departPos="29.03" departSpeed="0.00" departDelay="2.37" arrival="232.00" arrivalLane="485211947#0_0" arrivalPos="76.22" arrivalSpeed="12.60" duration="217.00" routeLength="382.95" waitingTime="125.00" waitingCount="3" stopTime="0.00" timeLoss="192.48" rerouteNo="0" devices="tripinfo_flow_route_45_duration_20250327_2030.4" vType="car" speedFactor="1.16" vaporized=""/>
    <tripinfo id="flow_route_46_duration_20250327_2030.19" depart="92.00" departLane="791826085_0" departPos="128.64" departSpeed="0.00" departDelay="40.19" arrival="233.00" arrivalLane="1328664748#0_1" arrivalPos="0.19" arrivalSpeed="9.70" duration="141.00" routeLength="220.34" waitingTime="76.00" waitingCount="2" stopTime="0.00" timeLoss="126.57" rerouteNo="0" devices="tripinfo_flow_route_46_duration_20250327_2030.19" vType="car" speedFactor="0.99" vaporized=""/>
    <tripinfo id="flow_route_45_duration_20250327_2030.11" depart="49.00" departLane="791826085_0" departPos="157.42" departSpeed="0.00" departDelay="14.27" arrival="235.00" arrivalLane="485211947#0_0" arrivalPos="63.53" arrivalSpeed="11.67" duration="186.00" routeLength="241.87" waitingTime="125.00" waitingCount="3" stopTime="0.00" timeLoss="170.61" rerouteNo="0" devices="tripinfo_flow_route_45_duration_20250327_2030.11" vType="car" speedFactor="1.04" vaporized=""/>
    <tripinfo id="flow_route_44_duration_20250327_2030.22" depart="92.00" departLane="791826085_0" departPos="3.80" departSpeed="0.00" departDelay="37.00" arrival="235.00" arrivalLane="134193294#0_1" arrivalPos="19.61" arrivalSpeed="12.80" duration="143.00" routeLength="370.18" waitingTime="74.00" waitingCount="1" stopTime="0.00" timeLoss="118.44" rerouteNo="0" devices="tripinfo_flow_route_44_duration_20250327_2030.22" vType="car" speedFactor="0.91" vaporized=""/>
    <tripinfo id="flow_route_46_duration_20250327_2030.13" depart="53.00" departLane="791826085_0" departPos="3.80" departSpeed="0.00" departDelay="17.55" arrival="236.00" arrivalLane="1328664748#0_1" arrivalPos="147.25" arrivalSpeed="16.48" duration="183.00" routeLength="492.23" waitingTime="96.00" waitingCount="2" stopTime="0.00" timeLoss="152.43" rerouteNo="0" devices="tripinfo_flow_route_46_duration_20250327_2030.13" vType="car" speedFactor="1.09" vaporized=""/>
    <tripinfo id="flow_route_45_duration_20250327_2030.5" depart="20.00" departLane="791826085_0" departPos="9.08" departSpeed="0.00" departDelay="4.22" arrival="238.00" arrivalLane="485211947#0_0" arrivalPos="132.59" arrivalSpeed="15.33" duration="218.00" routeLength="459.27" waitingTime="126.00" waitingCount="3" stopTime="0.00" timeLoss="188.32" rerouteNo="0" devices="tripinfo_flow_route_45_duration_20250327_2030.5" vType="car" speedFactor="0.97" vaporized=""/>
    <tripinfo id="flow_route_46_duration_20250327_2030.15" depart="59.00" departLane="791826085_0" departPos="145.63" departSpeed="0.00" departDelay="18.10" arrival="238.00" arrivalLane="1328664748#0_1" arrivalPos="217.64" arrivalSpeed="16.59" duration="179.00" routeLength="420.81" waitingTime="97.00" waitingCount="3" stopTime="0.00" timeLoss="153.11" rerouteNo="0" devices="tripinfo_flow_route_46_duration_20250327_2030.15" vType="car" speedFactor="1.17" vaporized=""/>
    <tripinfo id="flow_route_45_duration_20250327_2030.9" depart="35.00" departLane="791826085_0" departPos="33.11" departSpeed="0.00" departDelay="6.59" arrival="240.00" arrivalLane="485211947#0_0" arrivalPos="67.66" arrivalSpeed="12.52" duration="205.00" routeLength="370.31" waitingTime="123.00" waitingCount="3" stopTime="0.00" timeLoss="181.12" rerouteNo="0" devices="tripinfo_flow_route_45_duration_20250327_2030.9" vType="car" speedFactor="1.18" vaporized=""/>
    <tripinfo id="flow_route_46_duration_20250327_2030.16" depart="64.00" departLane="791826085_0" departPos="42.23" departSpeed="0.00" departDelay="20.37" arrival="241.00" arrivalLane="1328664748#0_1" arrivalPos="131.87" arrivalSpeed="14.32" duration="177.00" routeLength="438.42" waitingTime="86.00" waitingCount="2" stopTime="0.00" timeLoss="149.47" rerouteNo="0" devices="tripinfo_flow_route_46_duration_20250327_2030.16" vType="car" speedFactor="1.00" vaporized=""/>
    <tripinfo id="flow_route_46_duration_20250327_2030.18" depart="85.00" departLane="791826085_0" departPos="2.39" departSpeed="0.00" departDelay="35.91" arrival="241.00" arrivalLane="1328664748#0_1" arrivalPos="76.94" arrivalSpeed="15.01" duration="156.00" routeLength="423.34" waitingTime="75.00" waitingCount="1" stopTime="0.00" timeLoss="129.24" rerouteNo="0" devices="tripinfo_flow_route_46_duration_20250327_2030.18" vType="car" speedFactor="1.12" vaporized=""/>
    <tripinfo id="flow_route_44_duration_20250327_2030.23" depart="99.00" departLane="791826085_0" departPos="113.08" departSpeed="0.00" departDelay="41.50" arrival="241.00" arrivalLane="134193294#0_1" arrivalPos="134.49" arrivalSpeed="16.43" duration="142.00" routeLength="375.79" waitingTime="75.00" waitingCount="1" stopTime="0.00" timeLoss="119.11" rerouteNo="0" devices="tripinfo_flow_route_44_duration_20250327_2030.23" vType="car" speedFactor="1.02" vaporized=""/>
    <tripinfo id="flow_route_45_duration_20250327_2030.10" depart="42.00" departLane="791826085_0" departPos="112.37" departSpeed="0.00" departDelay="10.43" arrival="242.00" arrivalLane="485211947#0_0" arrivalPos="131.69" arrivalSpeed="15.32" duration="200.00" routeLength="355.08" waitingTime="125.00" waitingCount="3" stopTime="0.00" timeLoss="177.44" rerouteNo="0" devices="tripinfo_flow_route_45_duration_20250327_2030.10" vType="car" speedFactor="1.03" vaporized=""/>
    <tripinfo id="flow_route_46_duration_20250327_2030.14" depart="59.00" departLane="791826085_0" departPos="67.67" departSpeed="0.00" departDelay="20.82" arrival="242.00" arrivalLane="1328664748#0_1" arrivalPos="196.24" arrivalSpeed="14.51" duration="183.00" routeLength="477.35" waitingTime="90.00" waitingCount="2" stopTime="0.00" timeLoss="149.00" rerouteNo="0" devices="tripinfo_flow_route_46_duration_20250327_2030.14" vType="car" speedFactor="0.88" vaporized=""/>
    <tripinfo id="flow_route_46_duration_20250327_2030.17" depart="78.00" departLane="791826085_0" departPos="185.43" departSpeed="0.00" departDelay="31.64" arrival="245.00" arrivalLane="1328664748#0_1" arrivalPos="210.20" arrivalSpeed="16.42" duration="167.00" routeLength="373.56" waitingTime="87.00" waitingCount="2" stopTime="0.00" timeLoss="143.00" rerouteNo="0" devices="tripinfo_flow_route_46_duration_20250327_2030.17" vType="car" speedFactor="1.14" vaporized=""/>