<?xml version="1.0" encoding="UTF-8"?>

<!-- generated on 2025-05-06 21:07:44 by Eclipse SUMO sumo Version 1.20.0
<configuration xmlns:xsi="http://www.w3.org/2001/XMLSchema-instance" xsi:noNamespaceSchemaLocation="http://sumo.dlr.de/xsd/sumoConfiguration.xsd">

    <input>
        <net-file value="osm.net.xml"/>
        <route-files value="xml/route_static_11644940310_0.rou.xml"/>
    </input>

    <output>
        <tripinfo-output value="xml/tripinfo_static_11644940310_0.xml"/>
    </output>

    <traci_server>
        <remote-port value="46443"/>
    </traci_server>

</configuration>
-->

<tripinfos xmlns:xsi="http://www.w3.org/2001/XMLSchema-instance" xsi:noNamespaceSchemaLocation="http://sumo.dlr.de/xsd/tripinfo_file.xsd">
    <tripinfo id="flow_route_27_duration_20250327_2000.1" depart="5.00" departLane="1254771874#0_0" departPos="223.82" departSpeed="0.00" departDelay="0.39" arrival="17.00" arrivalLane="138002006#0_1" arrivalPos="5.35" arrivalSpeed="7.68" duration="12.00" routeLength="53.42" waitingTime="0.00" waitingCount="0" stopTime="0.00" timeLoss="7.23" rerouteNo="0" devices="tripinfo_flow_route_27_duration_20250327_2000.1" vType="car" speedFactor="0.89" vaporized=""/>
    <tripinfo id="flow_route_27_duration_20250327_2000.0" depart="0.00" departLane="1254771874#0_0" departPos="190.47" departSpeed="0.00" departDelay="0.00" arrival="22.00" arrivalLane="138002006#0_1" arrivalPos="4.04" arrivalSpeed="8.20" duration="22.00" routeLength="85.46" waitingTime="0.00" waitingCount="0" stopTime="0.00" timeLoss="16.01" rerouteNo="0" devices="tripinfo_flow_route_27_duration_20250327_2000.0" vType="car" speedFactor="1.01" vaporized=""/>
    <tripinfo id="flow_route_26_duration_20250327_2000.1" depart="10.00" departLane="1254771874#0_0" departPos="240.04" departSpeed="0.00" departDelay="0.00" arrival="27.00" arrivalLane="-422986370#2_0" arrivalPos="91.98" arrivalSpeed="13.30" duration="17.00" routeLength="116.54" waitingTime="0.00" waitingCount="0" stopTime="0.00" timeLoss="8.82" rerouteNo="0" devices="tripinfo_flow_route_26_duration_20250327_2000.1" vType="car" speedFactor="1.09" vaporized=""/>
    <tripinfo id="flow_route_41_duration_20250327_2000.1" depart="7.00" departLane="1369578054_0" departPos="153.71" departSpeed="0.00" departDelay="0.33" arrival="33.00" arrivalLane="138002006#0_1" arrivalPos="60.68" arrivalSpeed="14.12" duration="26.00" routeLength="228.91" waitingTime="0.00" waitingCount="0" stopTime="0.00" timeLoss="9.24" rerouteNo="0" devices="tripinfo_flow_route_41_duration_20250327_2000.1" vType="car" speedFactor="0.86" vaporized=""/>
    <tripinfo id="flow_route_41_duration_20250327_2000.2" depart="14.00" departLane="1369578054_0" departPos="205.27" departSpeed="0.00" departDelay="0.67" arrival="33.00" arrivalLane="138002006#0_1" arrivalPos="14.12" arrivalSpeed="14.38" duration="19.00" routeLength="130.78" waitingTime="0.00" waitingCount="0" stopTime="0.00" timeLoss="9.20" rerouteNo="0" devices="tripinfo_flow_route_41_duration_20250327_2000.2" vType="car" speedFactor="0.88" vaporized=""/>
    <tripinfo id="flow_route_25_duration_20250327_2000.0" depart="0.00" departLane="1254771874#0_0" departPos="63.27" departSpeed="0.00" departDelay="0.00" arrival="34.00" arrivalLane="1341093415#0_0" arrivalPos="158.81" arrivalSpeed="16.47" duration="34.00" routeLength="373.33" waitingTime="0.00" waitingCount="0" stopTime="0.00" timeLoss="11.04" rerouteNo="0" devices="tripinfo_flow_route_25_duration_20250327_2000.0" vType="car" speedFactor="1.06" vaporized=""/>
    <tripinfo id="flow_route_50_duration_20250327_2000.0" depart="0.00" departLane="-138002006#3_0" departPos="41.39" departSpeed="0.00" departDelay="0.00" arrival="34.00" arrivalLane="-422986370#2_0" arrivalPos="13.06" arrivalSpeed="7.09" duration="34.00" routeLength="82.72" waitingTime="13.00" waitingCount="1" stopTime="0.00" timeLoss="28.00" rerouteNo="0" devices="tripinfo_flow_route_50_duration_20250327_2000.0" vType="car" speedFactor="0.83" vaporized=""/>
    <tripinfo id="flow_route_26_duration_20250327_2000.0" depart="0.00" departLane="1254771874#0_0" departPos="139.38" departSpeed="0.00" departDelay="0.00" arrival="39.00" arrivalLane="-422986370#2_0" arrivalPos="213.43" arrivalSpeed="15.52" duration="39.00" routeLength="338.64" waitingTime="0.00" waitingCount="0" stopTime="0.00" timeLoss="16.15" rerouteNo="0" devices="tripinfo_flow_route_26_duration_20250327_2000.0" vType="car" speedFactor="0.94" vaporized=""/>
    <tripinfo id="flow_route_41_duration_20250327_2000.0" depart="0.00" departLane="1369578054_0" departPos="201.66" departSpeed="0.00" departDelay="0.00" arrival="39.00" arrivalLane="138002006#0_0" arrivalPos="52.37" arrivalSpeed="11.07" duration="39.00" routeLength="172.64" waitingTime="8.00" waitingCount="1" stopTime="0.00" timeLoss="28.32" rerouteNo="0" devices="tripinfo_flow_route_41_duration_20250327_2000.0" vType="car" speedFactor="1.03" vaporized=""/>
    <tripinfo id="flow_route_41_duration_20250327_2000.3" depart="23.00" departLane="1369578054_0" departPos="178.65" departSpeed="0.00" departDelay="3.00" arrival="44.00" arrivalLane="138002006#0_0" arrivalPos="23.44" arrivalSpeed="15.77" duration="21.00" routeLength="166.72" waitingTime="0.00" waitingCount="0" stopTime="0.00" timeLoss="10.47" rerouteNo="0" devices="tripinfo_flow_route_41_duration_20250327_2000.3" vType="car" speedFactor="1.02" vaporized=""/>
    <tripinfo id="flow_route_40_duration_20250327_2000.0" depart="0.00" departLane="1369578054_0" departPos="1.81" departSpeed="0.00" departDelay="0.00" arrival="45.00" arrivalLane="1341093415#0_0" arrivalPos="87.60" arrivalSpeed="13.77" duration="45.00" routeLength="396.71" waitingTime="0.00" waitingCount="0" stopTime="0.00" timeLoss="19.56" rerouteNo="0" devices="tripinfo_flow_route_40_duration_20250327_2000.0" vType="car" speedFactor="1.08" vaporized=""/>
    <tripinfo id="flow_route_40_duration_20250327_2000.3" depart="21.00" departLane="1369578054_0" departPos="243.22" departSpeed="0.00" departDelay="1.00" arrival="47.00" arrivalLane="1341093415#0_0" arrivalPos="171.92" arrivalSpeed="16.47" duration="26.00" routeLength="239.62" waitingTime="0.00" waitingCount="0" stopTime="0.00" timeLoss="10.94" rerouteNo="0" devices="tripinfo_flow_route_40_duration_20250327_2000.3" vType="car" speedFactor="1.16" vaporized=""/>
    <tripinfo id="flow_route_40_duration_20250327_2000.1" depart="7.00" departLane="1369578054_0" departPos="13.84" departSpeed="0.00" departDelay="0.33" arrival="51.00" arrivalLane="1341093415#0_0" arrivalPos="57.39" arrivalSpeed="10.81" duration="44.00" routeLength="354.46" waitingTime="0.00" waitingCount="0" stopTime="0.00" timeLoss="20.35" rerouteNo="0" devices="tripinfo_flow_route_40_duration_20250327_2000.1" vType="car" speedFactor="0.94" vaporized=""/>
    <tripinfo id="flow_route_51_duration_20250327_2000.0" depart="2.00" departLane="-138002006#3_0" departPos="23.48" departSpeed="0.00" departDelay="2.00" arrival="53.00" arrivalLane="1341093415#0_3" arrivalPos="132.48" arrivalSpeed="15.48" duration="51.00" routeLength="212.67" waitingTime="14.00" waitingCount="2" stopTime="0.00" timeLoss="36.40" rerouteNo="0" devices="tripinfo_flow_route_51_duration_20250327_2000.0" vType="car" speedFactor="1.05" vaporized=""/>
    <tripinfo id="flow_route_51_duration_20250327_2000.1" depart="12.00" departLane="-138002006#3_0" departPos="21.02" departSpeed="0.00" departDelay="0.00" arrival="57.00" arrivalLane="1341093415#0_3" arrivalPos="70.69" arrivalSpeed="11.39" duration="45.00" routeLength="153.35" waitingTime="7.00" waitingCount="2" stopTime="0.00" timeLoss="34.81" rerouteNo="0" devices="tripinfo_flow_route_51_duration_20250327_2000.1" vType="car" speedFactor="1.12" vaporized=""/>
    <tripinfo id="flow_route_51_duration_20250327_2000.3" depart="36.00" departLane="-138002006#3_0" departPos="64.09" departSpeed="0.00" departDelay="0.00" arrival="58.00" arrivalLane="1341093415#0_3" arrivalPos="32.20" arrivalSpeed="8.75" duration="22.00" routeLength="71.79" waitingTime="1.00" waitingCount="1" stopTime="0.00" timeLoss="16.75" rerouteNo="0" devices="tripinfo_flow_route_51_duration_20250327_2000.3" vType="car" speedFactor="1.01" vaporized=""/>
    <tripinfo id="flow_route_40_duration_20250327_2000.2" depart="14.00" departLane="1369578054_0" departPos="8.94" departSpeed="0.00" departDelay="0.67" arrival="59.00" arrivalLane="1341093415#0_0" arrivalPos="136.26" arrivalSpeed="16.41" duration="45.00" routeLength="438.25" waitingTime="0.00" waitingCount="0" stopTime="0.00" timeLoss="15.52" rerouteNo="0" devices="tripinfo_flow_route_40_duration_20250327_2000.2" vType="car" speedFactor="0.93" vaporized=""/>
    <tripinfo id="flow_route_51_duration_20250327_2000.2" depart="24.00" departLane="-138002006#3_0" departPos="51.50" departSpeed="0.00" departDelay="0.00" arrival="67.00" arrivalLane="1341093415#0_3" arrivalPos="171.10" arrivalSpeed="16.19" duration="43.00" routeLength="223.28" waitingTime="3.00" waitingCount="2" stopTime="0.00" timeLoss="27.68" rerouteNo="0" devices="tripinfo_flow_route_51_duration_20250327_2000.2" vType="car" speedFactor="0.89" vaporized=""/>
    <tripinfo id="flow_route_51_duration_20250327_2000.4" depart="48.00" departLane="-138002006#3_0" departPos="40.46" departSpeed="0.00" departDelay="0.00" arrival="74.00" arrivalLane="1341093415#0_3" arrivalPos="164.86" arrivalSpeed="16.29" duration="26.00" routeLength="228.07" waitingTime="0.00" waitingCount="0" stopTime="0.00" timeLoss="11.18" rerouteNo="0" devices="tripinfo_flow_route_51_duration_20250327_2000.4" vType="car" speedFactor="1.09" vaporized=""/>
    <tripinfo id="flow_route_27_duration_20250327_2000.3" depart="15.00" departLane="1254771874#0_0" departPos="84.69" departSpeed="0.00" departDelay="1.16" arrival="75.00" arrivalLane="138002006#0_1" arrivalPos="26.79" arrivalSpeed="8.38" duration="60.00" routeLength="213.99" waitingTime="25.00" waitingCount="1" stopTime="0.00" timeLoss="46.30" rerouteNo="0" devices="tripinfo_flow_route_27_duration_20250327_2000.3" vType="car" speedFactor="0.99" vaporized=""/>
    <tripinfo id="flow_route_27_duration_20250327_2000.2" depart="10.00" departLane="1254771874#0_0" departPos="210.71" departSpeed="0.00" departDelay="0.77" arrival="76.00" arrivalLane="138002006#0_1" arrivalPos="56.23" arrivalSpeed="10.57" duration="66.00" routeLength="117.41" waitingTime="38.00" waitingCount="2" stopTime="0.00" timeLoss="57.97" rerouteNo="0" devices="tripinfo_flow_route_27_duration_20250327_2000.2" vType="car" speedFactor="1.03" vaporized=""/>
    <tripinfo id="flow_route_25_duration_20250327_2000.3" depart="36.00" departLane="1254771874#0_0" departPos="20.45" departSpeed="0.00" departDelay="0.00" arrival="76.00" arrivalLane="1341093415#0_2" arrivalPos="36.93" arrivalSpeed="9.74" duration="40.00" routeLength="294.26" waitingTime="0.00" waitingCount="0" stopTime="0.00" timeLoss="22.23" rerouteNo="0" devices="tripinfo_flow_route_25_duration_20250327_2000.3" vType="car" speedFactor="1.15" vaporized=""/>
    <tripinfo id="flow_route_27_duration_20250327_2000.4" depart="20.00" departLane="1254771874#0_0" departPos="57.04" departSpeed="0.00" departDelay="1.54" arrival="78.00" arrivalLane="138002006#0_1" arrivalPos="11.48" arrivalSpeed="8.80" duration="58.00" routeLength="226.34" waitingTime="18.00" waitingCount="1" stopTime="0.00" timeLoss="43.14" rerouteNo="0" devices="tripinfo_flow_route_27_duration_20250327_2000.4" vType="car" speedFactor="0.94" vaporized=""/>
    <tripinfo id="flow_route_27_duration_20250327_2000.6" depart="28.00" departLane="1254771874#0_0" departPos="71.28" departSpeed="0.00" departDelay="0.31" arrival="80.00" arrivalLane="138002006#0_1" arrivalPos="13.48" arrivalSpeed="8.83" duration="52.00" routeLength="214.09" waitingTime="16.00" waitingCount="1" stopTime="0.00" timeLoss="37.98" rerouteNo="0" devices="tripinfo_flow_route_27_duration_20250327_2000.6" vType="car" speedFactor="0.92" vaporized=""/>
    <tripinfo id="flow_route_26_duration_20250327_2000.4" depart="40.00" departLane="1254771874#0_0" departPos="157.24" departSpeed="0.00" departDelay="0.00" arrival="80.00" arrivalLane="-422986370#2_0" arrivalPos="63.61" arrivalSpeed="11.07" duration="40.00" routeLength="170.98" waitingTime="8.00" waitingCount="1" stopTime="0.00" timeLoss="28.61" rerouteNo="0" devices="tripinfo_flow_route_26_duration_20250327_2000.4" vType="car" speedFactor="0.99" vaporized=""/>
    <tripinfo id="flow_route_25_duration_20250327_2000.2" depart="24.00" departLane="1254771874#0_0" departPos="78.68" departSpeed="0.00" departDelay="0.00" arrival="81.00" arrivalLane="1341093415#0_2" arrivalPos="123.27" arrivalSpeed="14.59" duration="57.00" routeLength="322.38" waitingTime="14.00" waitingCount="1" stopTime="0.00" timeLoss="37.30" rerouteNo="0" devices="tripinfo_flow_route_25_duration_20250327_2000.2" vType="car" speedFactor="1.01" vaporized=""/>
    <tripinfo id="flow_route_27_duration_20250327_2000.7" depart="33.00" departLane="1254771874#0_0" departPos="45.75" departSpeed="0.00" departDelay="0.70" arrival="81.00" arrivalLane="138002006#0_1" arrivalPos="5.95" arrivalSpeed="9.11" duration="48.00" routeLength="232.08" waitingTime="10.00" waitingCount="1" stopTime="0.00" timeLoss="33.24" rerouteNo="0" devices="tripinfo_flow_route_27_duration_20250327_2000.7" vType="car" speedFactor="1.13" vaporized=""/>
    <tripinfo id="flow_route_26_duration_20250327_2000.2" depart="22.00" departLane="1254771874#0_0" departPos="170.79" departSpeed="0.00" departDelay="2.00" arrival="83.00" arrivalLane="-422986370#2_0" arrivalPos="123.22" arrivalSpeed="13.74" duration="61.00" routeLength="217.03" waitingTime="23.00" waitingCount="1" stopTime="0.00" timeLoss="46.49" rerouteNo="0" devices="tripinfo_flow_route_26_duration_20250327_2000.2" vType="car" speedFactor="0.94" vaporized=""/>
    <tripinfo id="flow_route_27_duration_20250327_2000.5" depart="24.00" departLane="1254771874#0_0" departPos="125.91" departSpeed="0.00" departDelay="0.93" arrival="83.00" arrivalLane="138002006#0_1" arrivalPos="83.00" arrivalSpeed="13.68" duration="59.00" routeLength="228.98" waitingTime="21.00" waitingCount="1" stopTime="0.00" timeLoss="43.47" rerouteNo="0" devices="tripinfo_flow_route_27_duration_20250327_2000.5" vType="car" speedFactor="0.97" vaporized=""/>
    <tripinfo id="flow_route_25_duration_20250327_2000.4" depart="49.00" departLane="1254771874#0_0" departPos="223.37" departSpeed="0.00" departDelay="1.00" arrival="83.00" arrivalLane="1341093415#0_1" arrivalPos="111.44" arrivalSpeed="14.41" duration="34.00" routeLength="165.85" waitingTime="5.00" waitingCount="1" stopTime="0.00" timeLoss="23.90" rerouteNo="0" devices="tripinfo_flow_route_25_duration_20250327_2000.4" vType="car" speedFactor="0.96" vaporized=""/>
    <tripinfo id="flow_route_25_duration_20250327_2000.1" depart="13.00" departLane="1254771874#0_0" departPos="8.29" departSpeed="0.00" departDelay="1.00" arrival="84.00" arrivalLane="1341093415#0_1" arrivalPos="158.21" arrivalSpeed="16.12" duration="71.00" routeLength="427.70" waitingTime="20.00" waitingCount="1" stopTime="0.00" timeLoss="44.92" rerouteNo="0" devices="tripinfo_flow_route_25_duration_20250327_2000.1" vType="car" speedFactor="1.05" vaporized=""/>
    <tripinfo id="flow_route_26_duration_20250327_2000.3" depart="30.00" departLane="1254771874#0_0" departPos="237.24" departSpeed="0.00" departDelay="0.00" arrival="84.00" arrivalLane="-422986370#2_0" arrivalPos="163.78" arrivalSpeed="15.48" duration="54.00" routeLength="191.14" waitingTime="25.00" waitingCount="1" stopTime="0.00" timeLoss="40.24" rerouteNo="0" devices="tripinfo_flow_route_26_duration_20250327_2000.3" vType="car" speedFactor="0.95" vaporized=""/>
    <tripinfo id="flow_route_27_duration_20250327_2000.9" depart="42.00" departLane="1254771874#0_0" departPos="106.64" departSpeed="0.00" departDelay="0.47" arrival="87.00" arrivalLane="138002006#0_1" arrivalPos="51.93" arrivalSpeed="12.76" duration="45.00" routeLength="217.18" waitingTime="8.00" waitingCount="1" stopTime="0.00" timeLoss="31.35" rerouteNo="0" devices="tripinfo_flow_route_27_duration_20250327_2000.9" vType="car" speedFactor="1.18" vaporized=""/>
    <tripinfo id="flow_route_27_duration_20250327_2000.10" depart="48.00" departLane="1254771874#0_0" departPos="125.94" departSpeed="0.00" departDelay="1.85" arrival="88.00" arrivalLane="138002006#0_1" arrivalPos="32.42" arrivalSpeed="11.95" duration="40.00" routeLength="178.37" waitingTime="5.00" waitingCount="1" stopTime="0.00" timeLoss="27.93" rerouteNo="0" devices="tripinfo_flow_route_27_duration_20250327_2000.10" vType="car" speedFactor="1.10" vaporized=""/>
    <tripinfo id="flow_route_26_duration_20250327_2000.5" depart="51.00" departLane="1254771874#0_0" departPos="105.08" departSpeed="0.00" departDelay="1.00" arrival="89.00" arrivalLane="-422986370#2_0" arrivalPos="171.84" arrivalSpeed="16.52" duration="38.00" routeLength="331.36" waitingTime="0.00" waitingCount="0" stopTime="0.00" timeLoss="17.44" rerouteNo="0" devices="tripinfo_flow_route_26_duration_20250327_2000.5" vType="car" speedFactor="1.04" vaporized=""/>
    <tripinfo id="flow_route_27_duration_20250327_2000.8" depart="37.00" departLane="1254771874#0_0" departPos="74.14" departSpeed="0.00" departDelay="0.08" arrival="90.00" arrivalLane="138002006#0_1" arrivalPos="31.23" arrivalSpeed="12.83" duration="53.00" routeLength="228.98" waitingTime="3.00" waitingCount="2" stopTime="0.00" timeLoss="37.79" rerouteNo="0" devices="tripinfo_flow_route_27_duration_20250327_2000.8" vType="car" speedFactor="1.17" vaporized=""/>
    <tripinfo id="flow_route_41_duration_20250327_2000.6" depart="41.00" departLane="1369578054_0" departPos="247.36" departSpeed="0.00" departDelay="1.00" arrival="101.00" arrivalLane="138002006#0_0" arrivalPos="37.57" arrivalSpeed="9.74" duration="60.00" routeLength="112.14" waitingTime="34.00" waitingCount="1" stopTime="0.00" timeLoss="52.65" rerouteNo="0" devices="tripinfo_flow_route_41_duration_20250327_2000.6" vType="car" speedFactor="0.97" vaporized=""/>
    <tripinfo id="flow_route_41_duration_20250327_2000.7" depart="48.00" departLane="1369578054_0" departPos="127.38" departSpeed="0.00" departDelay="1.34" arrival="101.00" arrivalLane="138002006#0_1" arrivalPos="2.12" arrivalSpeed="7.87" duration="53.00" routeLength="196.67" waitingTime="20.00" waitingCount="1" stopTime="0.00" timeLoss="40.93" rerouteNo="0" devices="tripinfo_flow_route_41_duration_20250327_2000.7" vType="car" speedFactor="1.03" vaporized=""/>
    <tripinfo id="flow_route_41_duration_20250327_2000.5" depart="36.00" departLane="1369578054_0" departPos="14.04" departSpeed="0.00" departDelay="2.67" arrival="102.00" arrivalLane="138002006#0_1" arrivalPos="27.86" arrivalSpeed="9.75" duration="66.00" routeLength="335.76" waitingTime="23.00" waitingCount="1" stopTime="0.00" timeLoss="45.36" rerouteNo="0" devices="tripinfo_flow_route_41_duration_20250327_2000.5" vType="car" speedFactor="1.18" vaporized=""/>
    <tripinfo id="flow_route_41_duration_20250327_2000.8" depart="58.00" departLane="1369578054_0" departPos="42.30" departSpeed="0.00" departDelay="4.67" arrival="104.00" arrivalLane="138002006#0_1" arrivalPos="9.01" arrivalSpeed="9.23" duration="46.00" routeLength="288.65" waitingTime="4.00" waitingCount="1" stopTime="0.00" timeLoss="28.25" rerouteNo="0" devices="tripinfo_flow_route_41_duration_20250327_2000.8" vType="car" speedFactor="1.00" vaporized=""/>
    <tripinfo id="flow_route_41_duration_20250327_2000.4" depart="28.00" departLane="1369578054_0" departPos="8.34" departSpeed="0.00" departDelay="1.34" arrival="105.00" arrivalLane="138002006#0_0" arrivalPos="84.77" arrivalSpeed="12.51" duration="77.00" routeLength="398.36" waitingTime="27.00" waitingCount="1" stopTime="0.00" timeLoss="49.42" rerouteNo="0" devices="tripinfo_flow_route_41_duration_20250327_2000.4" vType="car" speedFactor="0.87" vaporized=""/>
    <tripinfo id="flow_route_40_duration_20250327_2000.4" depart="27.00" departLane="1369578054_0" departPos="54.94" departSpeed="0.00" departDelay="0.34" arrival="106.00" arrivalLane="1341093415#0_0" arrivalPos="30.02" arrivalSpeed="8.92" duration="79.00" routeLength="285.99" waitingTime="24.00" waitingCount="1" stopTime="0.00" timeLoss="57.36" rerouteNo="0" devices="tripinfo_flow_route_40_duration_20250327_2000.4" vType="car" speedFactor="0.83" vaporized=""/>
    <tripinfo id="flow_route_40_duration_20250327_2000.6" depart="41.00" departLane="1369578054_0" departPos="153.66" departSpeed="0.00" departDelay="1.00" arrival="109.00" arrivalLane="1341093415#0_0" arrivalPos="120.97" arrivalSpeed="14.08" duration="68.00" routeLength="278.23" waitingTime="27.00" waitingCount="1" stopTime="0.00" timeLoss="49.84" rerouteNo="0" devices="tripinfo_flow_route_40_duration_20250327_2000.6" vType="car" speedFactor="1.02" vaporized=""/>
    <tripinfo id="flow_route_40_duration_20250327_2000.5" depart="34.00" departLane="1369578054_0" departPos="101.58" departSpeed="0.00" departDelay="0.67" arrival="114.00" arrivalLane="1341093415#0_0" arrivalPos="176.86" arrivalSpeed="16.37" duration="80.00" routeLength="386.20" waitingTime="26.00" waitingCount="1" stopTime="0.00" timeLoss="54.68" rerouteNo="0" devices="tripinfo_flow_route_40_duration_20250327_2000.5" vType="car" speedFactor="0.93" vaporized=""/>
    <tripinfo id="flow_route_40_duration_20250327_2000.8" depart="56.00" departLane="1369578054_0" departPos="84.26" departSpeed="0.00" departDelay="2.67" arrival="116.00" arrivalLane="1341093415#0_0" arrivalPos="124.68" arrivalSpeed="15.48" duration="60.00" routeLength="351.34" waitingTime="13.00" waitingCount="1" stopTime="0.00" timeLoss="37.63" rerouteNo="0" devices="tripinfo_flow_route_40_duration_20250327_2000.8" vType="car" speedFactor="1.09" vaporized=""/>
    <tripinfo id="flow_route_40_duration_20250327_2000.7" depart="47.00" departLane="1369578054_0" departPos="31.38" departSpeed="0.00" departDelay="0.34" arrival="122.00" arrivalLane="1341093415#0_0" arrivalPos="174.11" arrivalSpeed="16.38" duration="75.00" routeLength="453.65" waitingTime="12.00" waitingCount="1" stopTime="0.00" timeLoss="44.77" rerouteNo="0" devices="tripinfo_flow_route_40_duration_20250327_2000.7" vType="car" speedFactor="0.90" vaporized=""/>
    <tripinfo id="flow_route_27_duration_20250327_2000.11" depart="51.00" departLane="1254771874#0_0" departPos="87.64" departSpeed="0.00" departDelay="0.24" arrival="136.00" arrivalLane="138002006#0_1" arrivalPos="26.30" arrivalSpeed="7.92" duration="85.00" routeLength="210.55" waitingTime="39.00" waitingCount="2" stopTime="0.00" timeLoss="71.49" rerouteNo="0" devices="tripinfo_flow_route_27_duration_20250327_2000.11" vType="car" speedFactor="1.04" vaporized=""/>
    <tripinfo id="flow_route_27_duration_20250327_2000.12" depart="56.00" departLane="1254771874#0_0" departPos="31.77" departSpeed="0.00" departDelay="0.62" arrival="143.00" arrivalLane="138002006#0_1" arrivalPos="69.33" arrivalSpeed="12.47" duration="87.00" routeLength="309.45" waitingTime="36.00" waitingCount="1" stopTime="0.00" timeLoss="66.06" rerouteNo="0" devices="tripinfo_flow_route_27_duration_20250327_2000.12" vType="car" speedFactor="0.90" vaporized=""/>
</tripinfos>
