<?xml version="1.0" encoding="UTF-8"?>

<!-- generated on 2025-05-06 21:08:26 by Eclipse SUMO sumo Version 1.20.0
<configuration xmlns:xsi="http://www.w3.org/2001/XMLSchema-instance" xsi:noNamespaceSchemaLocation="http://sumo.dlr.de/xsd/sumoConfiguration.xsd">

    <input>
        <net-file value="osm.net.xml"/>
        <route-files value="xml/route_static_cluster7571105647_7571105653_cluster_1141265322_11869698130_256036890_4227138136_#4more_4.rou.xml"/>
    </input>

    <output>
        <tripinfo-output value="xml/tripinfo_static_cluster7571105647_7571105653_cluster_1141265322_11869698130_256036890_4227138136_#4more_4.xml"/>
    </output>

    <traci_server>
        <remote-port value="51049"/>
    </traci_server>

</configuration>
-->

<tripinfos xmlns:xsi="http://www.w3.org/2001/XMLSchema-instance" xsi:noNamespaceSchemaLocation="http://sumo.dlr.de/xsd/tripinfo_file.xsd">
    <tripinfo id="flow_route_143_duration_20250327_2010.0" depart="0.00" departLane="1253222187#0_0" departPos="157.10" departSpeed="0.00" departDelay="0.00" arrival="28.00" arrivalLane="1310781056_0" arrivalPos="55.73" arrivalSpeed="16.37" duration="28.00" routeLength="267.13" waitingTime="0.00" waitingCount="0" stopTime="0.00" timeLoss="11.88" rerouteNo="0" devices="tripinfo_flow_route_143_duration_20250327_2010.0" vType="car" speedFactor="1.08" vaporized=""/>
    <tripinfo id="flow_route_143_duration_20250327_2010.1" depart="6.00" departLane="1253222187#0_0" departPos="173.80" departSpeed="0.00" departDelay="0.00" arrival="33.00" arrivalLane="1310781056_0" arrivalPos="34.82" arrivalSpeed="16.14" duration="27.00" routeLength="229.52" waitingTime="0.00" waitingCount="0" stopTime="0.00" timeLoss="12.17" rerouteNo="0" devices="tripinfo_flow_route_143_duration_20250327_2010.1" vType="car" speedFactor="0.86" vaporized=""/>
    <tripinfo id="flow_route_140_duration_20250327_2010.5" depart="38.00" departLane="809719540#0_0" departPos="262.75" departSpeed="0.00" departDelay="0.50" arrival="50.00" arrivalLane="-809772643#1_0" arrivalPos="8.81" arrivalSpeed="8.86" duration="12.00" routeLength="53.51" waitingTime="0.00" waitingCount="0" stopTime="0.00" timeLoss="8.58" rerouteNo="0" devices="tripinfo_flow_route_140_duration_20250327_2010.5" vType="car" speedFactor="1.09" vaporized=""/>
    <tripinfo id="flow_route_142_duration_20250327_2010.0" depart="0.00" departLane="1253222187#0_0" departPos="114.97" departSpeed="0.00" departDelay="0.00" arrival="53.00" arrivalLane="683079388#0_0" arrivalPos="1.17" arrivalSpeed="16.51" duration="53.00" routeLength="684.52" waitingTime="0.00" waitingCount="0" stopTime="0.00" timeLoss="11.69" rerouteNo="0" devices="tripinfo_flow_route_142_duration_20250327_2010.0" vType="car" speedFactor="1.01" vaporized=""/>
    <tripinfo id="flow_route_140_duration_20250327_2010.2" depart="15.00" departLane="809719540#0_0" departPos="160.15" departSpeed="0.00" departDelay="0.00" arrival="53.00" arrivalLane="-809772643#1_0" arrivalPos="138.14" arrivalSpeed="15.12" duration="38.00" routeLength="285.45" waitingTime="0.00" waitingCount="0" stopTime="0.00" timeLoss="19.03" rerouteNo="0" devices="tripinfo_flow_route_140_duration_20250327_2010.2" vType="car" speedFactor="0.94" vaporized=""/>
    <tripinfo id="flow_route_140_duration_20250327_2010.0" depart="0.00" departLane="809719540#0_0" departPos="199.64" departSpeed="0.00" departDelay="0.00" arrival="54.00" arrivalLane="-809772643#1_0" arrivalPos="184.22" arrivalSpeed="16.23" duration="54.00" routeLength="292.04" waitingTime="16.00" waitingCount="1" stopTime="0.00" timeLoss="35.69" rerouteNo="0" devices="tripinfo_flow_route_140_duration_20250327_2010.0" vType="car" speedFactor="1.06" vaporized=""/>
    <tripinfo id="flow_route_140_duration_20250327_2010.1" depart="8.00" departLane="809719540#0_0" departPos="8.71" departSpeed="0.00" departDelay="0.50" arrival="54.00" arrivalLane="-809772643#1_1" arrivalPos="112.54" arrivalSpeed="16.60" duration="46.00" routeLength="414.11" waitingTime="0.00" waitingCount="0" stopTime="0.00" timeLoss="20.28" rerouteNo="0" devices="tripinfo_flow_route_140_duration_20250327_2010.1" vType="car" speedFactor="1.03" vaporized=""/>
    <tripinfo id="flow_route_140_duration_20250327_2010.4" depart="30.00" departLane="809719540#0_0" departPos="190.91" departSpeed="0.00" departDelay="0.00" arrival="63.00" arrivalLane="-809772643#1_1" arrivalPos="181.03" arrivalSpeed="16.18" duration="33.00" routeLength="300.40" waitingTime="0.00" waitingCount="0" stopTime="0.00" timeLoss="14.33" rerouteNo="0" devices="tripinfo_flow_route_140_duration_20250327_2010.4" vType="car" speedFactor="1.17" vaporized=""/>
    <tripinfo id="flow_route_146_duration_20250327_2010.1" depart="10.00" departLane="683079387#1_0" departPos="0.30" departSpeed="0.00" departDelay="6.84" arrival="67.00" arrivalLane="-809772643#1_1" arrivalPos="54.69" arrivalSpeed="15.08" duration="57.00" routeLength="667.36" waitingTime="0.00" waitingCount="0" stopTime="0.00" timeLoss="16.19" rerouteNo="0" devices="tripinfo_flow_route_146_duration_20250327_2010.1" vType="car" speedFactor="1.05" vaporized=""/>
    <tripinfo id="flow_route_142_duration_20250327_2010.4" depart="19.00" departLane="1253222187#0_0" departPos="195.68" departSpeed="0.00" departDelay="1.86" arrival="68.00" arrivalLane="683079388#0_0" arrivalPos="4.35" arrivalSpeed="16.14" duration="49.00" routeLength="606.98" waitingTime="0.00" waitingCount="0" stopTime="0.00" timeLoss="11.68" rerouteNo="0" devices="tripinfo_flow_route_142_duration_20250327_2010.4" vType="car" speedFactor="1.01" vaporized=""/>
    <tripinfo id="flow_route_147_duration_20250327_2010.0" depart="4.00" departLane="683079387#1_0" departPos="0.62" departSpeed="0.00" departDelay="4.00" arrival="76.00" arrivalLane="1310781056_0" arrivalPos="4.95" arrivalSpeed="14.12" duration="72.00" routeLength="684.16" waitingTime="1.00" waitingCount="1" stopTime="0.00" timeLoss="22.38" rerouteNo="0" devices="tripinfo_flow_route_147_duration_20250327_2010.0" vType="car" speedFactor="0.83" vaporized=""/>
    <tripinfo id="flow_route_146_duration_20250327_2010.2" depart="17.00" departLane="683079387#1_0" departPos="3.14" departSpeed="0.00" departDelay="10.69" arrival="76.00" arrivalLane="-809772643#1_1" arrivalPos="183.53" arrivalSpeed="16.27" duration="59.00" routeLength="793.35" waitingTime="0.00" waitingCount="0" stopTime="0.00" timeLoss="11.13" rerouteNo="0" devices="tripinfo_flow_route_146_duration_20250327_2010.2" vType="car" speedFactor="1.09" vaporized=""/>
    <tripinfo id="flow_route_146_duration_20250327_2010.0" depart="0.00" departLane="683079387#1_0" departPos="0.06" departSpeed="0.00" departDelay="0.00" arrival="78.00" arrivalLane="-809772643#1_0" arrivalPos="121.98" arrivalSpeed="16.34" duration="78.00" routeLength="734.89" waitingTime="10.00" waitingCount="1" stopTime="0.00" timeLoss="33.19" rerouteNo="0" devices="tripinfo_flow_route_146_duration_20250327_2010.0" vType="car" speedFactor="1.03" vaporized=""/>
    <tripinfo id="flow_route_146_duration_20250327_2010.4" depart="28.00" departLane="683079387#1_0" departPos="3.73" departSpeed="0.00" departDelay="15.37" arrival="80.00" arrivalLane="-809772643#1_0" arrivalPos="34.73" arrivalSpeed="15.38" duration="52.00" routeLength="643.97" waitingTime="0.00" waitingCount="0" stopTime="0.00" timeLoss="10.61" rerouteNo="0" devices="tripinfo_flow_route_146_duration_20250327_2010.4" vType="car" speedFactor="0.94" vaporized=""/>
    <tripinfo id="flow_route_141_duration_20250327_2010.1" depart="6.00" departLane="809719540#0_0" departPos="252.23" departSpeed="0.00" departDelay="0.55" arrival="83.00" arrivalLane="683079387#1_1" arrivalPos="5.24" arrivalSpeed="6.42" duration="77.00" routeLength="655.59" waitingTime="15.00" waitingCount="1" stopTime="0.00" timeLoss="32.20" rerouteNo="0" devices="tripinfo_flow_route_141_duration_20250327_2010.1" vType="car" speedFactor="0.94" vaporized=""/>
    <tripinfo id="flow_route_146_duration_20250327_2010.3" depart="22.00" departLane="683079387#1_0" departPos="0.88" departSpeed="0.00" departDelay="12.53" arrival="84.00" arrivalLane="-809772643#1_0" arrivalPos="197.78" arrivalSpeed="16.37" duration="62.00" routeLength="809.88" waitingTime="0.00" waitingCount="0" stopTime="0.00" timeLoss="12.85" rerouteNo="0" devices="tripinfo_flow_route_146_duration_20250327_2010.3" vType="car" speedFactor="1.12" vaporized=""/>
    <tripinfo id="flow_route_141_duration_20250327_2010.3" depart="19.00" departLane="809719540#0_0" departPos="146.86" departSpeed="0.00" departDelay="2.64" arrival="86.00" arrivalLane="683079387#1_1" arrivalPos="9.80" arrivalSpeed="7.11" duration="67.00" routeLength="765.52" waitingTime="0.00" waitingCount="0" stopTime="0.00" timeLoss="17.54" rerouteNo="0" devices="tripinfo_flow_route_141_duration_20250327_2010.3" vType="car" speedFactor="1.02" vaporized=""/>
    <tripinfo id="flow_route_141_duration_20250327_2010.0" depart="0.00" departLane="809719540#0_0" departPos="66.48" departSpeed="0.00" departDelay="0.00" arrival="88.00" arrivalLane="683079387#1_1" arrivalPos="7.27" arrivalSpeed="6.21" duration="88.00" routeLength="836.36" waitingTime="5.00" waitingCount="1" stopTime="0.00" timeLoss="31.78" rerouteNo="0" devices="tripinfo_flow_route_141_duration_20250327_2010.0" vType="car" speedFactor="0.94" vaporized=""/>
    <tripinfo id="flow_route_141_duration_20250327_2010.2" depart="11.00" departLane="809719540#0_0" departPos="33.68" departSpeed="0.00" departDelay="0.09" arrival="90.00" arrivalLane="683079387#1_1" arrivalPos="3.38" arrivalSpeed="5.86" duration="79.00" routeLength="865.27" waitingTime="0.00" waitingCount="0" stopTime="0.00" timeLoss="23.16" rerouteNo="0" devices="tripinfo_flow_route_141_duration_20250327_2010.2" vType="car" speedFactor="0.99" vaporized=""/>
    <tripinfo id="flow_route_146_duration_20250327_2010.5" depart="33.00" departLane="683079387#1_0" departPos="1.04" departSpeed="0.00" departDelay="17.22" arrival="90.00" arrivalLane="-809772643#1_0" arrivalPos="143.00" arrivalSpeed="16.26" duration="57.00" routeLength="754.93" waitingTime="0.00" waitingCount="0" stopTime="0.00" timeLoss="10.75" rerouteNo="0" devices="tripinfo_flow_route_146_duration_20250327_2010.5" vType="car" speedFactor="1.16" vaporized=""/>
    <tripinfo id="flow_route_140_duration_20250327_2010.3" depart="23.00" departLane="809719540#0_0" departPos="94.51" departSpeed="0.00" departDelay="0.50" arrival="98.00" arrivalLane="-809772643#1_0" arrivalPos="9.69" arrivalSpeed="8.97" duration="75.00" routeLength="222.63" waitingTime="29.00" waitingCount="2" stopTime="0.00" timeLoss="59.92" rerouteNo="0" devices="tripinfo_flow_route_140_duration_20250327_2010.3" vType="car" speedFactor="0.92" vaporized=""/>
    <tripinfo id="flow_route_141_duration_20250327_2010.4" depart="22.00" departLane="809719540#0_0" departPos="55.65" departSpeed="0.00" departDelay="0.18" arrival="99.00" arrivalLane="683079387#1_1" arrivalPos="3.20" arrivalSpeed="5.36" duration="77.00" routeLength="843.12" waitingTime="0.00" waitingCount="0" stopTime="0.00" timeLoss="12.33" rerouteNo="0" devices="tripinfo_flow_route_141_duration_20250327_2010.4" vType="car" speedFactor="0.83" vaporized=""/>
    <tripinfo id="flow_route_141_duration_20250327_2010.6" depart="33.00" departLane="809719540#0_0" departPos="177.76" departSpeed="0.00" departDelay="0.28" arrival="102.00" arrivalLane="683079387#1_1" arrivalPos="7.14" arrivalSpeed="6.86" duration="69.00" routeLength="724.94" waitingTime="0.00" waitingCount="0" stopTime="0.00" timeLoss="22.60" rerouteNo="0" devices="tripinfo_flow_route_141_duration_20250327_2010.6" vType="car" speedFactor="1.10" vaporized=""/>
    <tripinfo id="flow_route_142_duration_20250327_2010.2" depart="9.00" departLane="1253222187#0_0" departPos="33.55" departSpeed="0.00" departDelay="0.43" arrival="105.00" arrivalLane="683079388#0_2" arrivalPos="7.79" arrivalSpeed="16.26" duration="96.00" routeLength="772.56" waitingTime="18.00" waitingCount="2" stopTime="0.00" timeLoss="49.24" rerouteNo="0" devices="tripinfo_flow_route_142_duration_20250327_2010.2" vType="car" speedFactor="1.05" vaporized=""/>
    <tripinfo id="flow_route_143_duration_20250327_2010.4" depart="24.00" departLane="1253222187#0_0" departPos="143.09" departSpeed="0.00" departDelay="0.00" arrival="105.00" arrivalLane="1310781056_0" arrivalPos="32.89" arrivalSpeed="15.41" duration="81.00" routeLength="258.30" waitingTime="40.00" waitingCount="3" stopTime="0.00" timeLoss="65.32" rerouteNo="0" devices="tripinfo_flow_route_143_duration_20250327_2010.4" vType="car" speedFactor="1.13" vaporized=""/>
    <tripinfo id="flow_route_141_duration_20250327_2010.8" depart="44.00" departLane="809719540#0_0" departPos="263.48" departSpeed="0.00" departDelay="0.37" arrival="105.00" arrivalLane="683079387#1_1" arrivalPos="9.65" arrivalSpeed="6.58" duration="61.00" routeLength="648.74" waitingTime="0.00" waitingCount="0" stopTime="0.00" timeLoss="12.23" rerouteNo="0" devices="tripinfo_flow_route_141_duration_20250327_2010.8" vType="car" speedFactor="0.85" vaporized=""/>
    <tripinfo id="flow_route_142_duration_20250327_2010.1" depart="5.00" departLane="1253222187#0_0" departPos="9.74" departSpeed="0.00" departDelay="0.72" arrival="106.00" arrivalLane="683079388#0_0" arrivalPos="8.31" arrivalSpeed="14.56" duration="101.00" routeLength="796.88" waitingTime="22.00" waitingCount="1" stopTime="0.00" timeLoss="46.34" rerouteNo="0" devices="tripinfo_flow_route_142_duration_20250327_2010.1" vType="car" speedFactor="0.89" vaporized=""/>
    <tripinfo id="flow_route_142_duration_20250327_2010.6" depart="26.00" departLane="1253222187#0_0" departPos="174.06" departSpeed="0.00" departDelay="0.29" arrival="108.00" arrivalLane="683079388#0_2" arrivalPos="15.88" arrivalSpeed="15.20" duration="82.00" routeLength="640.14" waitingTime="19.00" waitingCount="1" stopTime="0.00" timeLoss="40.01" rerouteNo="0" devices="tripinfo_flow_route_142_duration_20250327_2010.6" vType="car" speedFactor="0.93" vaporized=""/>
    <tripinfo id="flow_route_142_duration_20250327_2010.3" depart="14.00" departLane="1253222187#0_0" departPos="18.77" departSpeed="0.00" departDelay="1.15" arrival="109.00" arrivalLane="683079388#0_0" arrivalPos="5.76" arrivalSpeed="14.37" duration="95.00" routeLength="785.30" waitingTime="20.00" waitingCount="1" stopTime="0.00" timeLoss="40.88" rerouteNo="0" devices="tripinfo_flow_route_142_duration_20250327_2010.3" vType="car" speedFactor="0.88" vaporized=""/>
    <tripinfo id="flow_route_140_duration_20250327_2010.7" depart="53.00" departLane="809719540#0_0" departPos="55.74" departSpeed="0.00" departDelay="0.50" arrival="109.00" arrivalLane="-809772643#1_1" arrivalPos="95.71" arrivalSpeed="14.86" duration="56.00" routeLength="350.25" waitingTime="9.00" waitingCount="1" stopTime="0.00" timeLoss="34.22" rerouteNo="0" devices="tripinfo_flow_route_140_duration_20250327_2010.7" vType="car" speedFactor="1.02" vaporized=""/>
    <tripinfo id="flow_route_142_duration_20250327_2010.5" depart="22.00" departLane="1253222187#0_0" departPos="38.09" departSpeed="0.00" departDelay="0.58" arrival="111.00" arrivalLane="683079388#0_2" arrivalPos="8.75" arrivalSpeed="14.29" duration="89.00" routeLength="768.97" waitingTime="14.00" waitingCount="1" stopTime="0.00" timeLoss="35.66" rerouteNo="0" devices="tripinfo_flow_route_142_duration_20250327_2010.5" vType="car" speedFactor="0.87" vaporized=""/>
    <tripinfo id="flow_route_142_duration_20250327_2010.8" depart="35.00" departLane="1253222187#0_0" departPos="150.39" departSpeed="0.00" departDelay="0.72" arrival="111.00" arrivalLane="683079388#0_0" arrivalPos="7.26" arrivalSpeed="14.64" duration="76.00" routeLength="655.18" waitingTime="10.00" waitingCount="1" stopTime="0.00" timeLoss="31.53" rerouteNo="0" devices="tripinfo_flow_route_142_duration_20250327_2010.8" vType="car" speedFactor="0.90" vaporized=""/>
    <tripinfo id="flow_route_142_duration_20250327_2010.9" depart="39.00" departLane="1253222187#0_0" departPos="90.84" departSpeed="0.00" departDelay="0.44" arrival="112.00" arrivalLane="683079388#0_0" arrivalPos="3.96" arrivalSpeed="15.79" duration="73.00" routeLength="711.43" waitingTime="2.00" waitingCount="1" stopTime="0.00" timeLoss="29.63" rerouteNo="0" devices="tripinfo_flow_route_142_duration_20250327_2010.9" vType="car" speedFactor="1.09" vaporized=""/>
    <tripinfo id="flow_route_142_duration_20250327_2010.7" depart="30.00" departLane="1253222187#0_0" departPos="96.10" departSpeed="0.00" departDelay="0.01" arrival="113.00" arrivalLane="683079388#0_2" arrivalPos="16.14" arrivalSpeed="15.24" duration="83.00" routeLength="718.36" waitingTime="12.00" waitingCount="1" stopTime="0.00" timeLoss="39.28" rerouteNo="0" devices="tripinfo_flow_route_142_duration_20250327_2010.7" vType="car" speedFactor="0.99" vaporized=""/>
    <tripinfo id="flow_route_140_duration_20250327_2010.6" depart="45.00" departLane="809719540#0_0" departPos="44.99" departSpeed="0.00" departDelay="0.00" arrival="113.00" arrivalLane="-809772643#1_0" arrivalPos="183.44" arrivalSpeed="14.10" duration="68.00" routeLength="445.90" waitingTime="16.00" waitingCount="1" stopTime="0.00" timeLoss="36.68" rerouteNo="0" devices="tripinfo_flow_route_140_duration_20250327_2010.6" vType="car" speedFactor="0.85" vaporized=""/>
    <tripinfo id="flow_route_142_duration_20250327_2010.13" depart="56.00" departLane="1253222187#0_0" departPos="166.46" departSpeed="0.00" departDelay="0.30" arrival="114.00" arrivalLane="683079388#0_0" arrivalPos="14.96" arrivalSpeed="16.43" duration="58.00" routeLength="646.81" waitingTime="0.00" waitingCount="0" stopTime="0.00" timeLoss="18.73" rerouteNo="0" devices="tripinfo_flow_route_142_duration_20250327_2010.13" vType="car" speedFactor="1.02" vaporized=""/>
    <tripinfo id="flow_route_142_duration_20250327_2010.10" depart="44.00" departLane="1253222187#0_0" departPos="3.08" departSpeed="0.00" departDelay="1.15" arrival="116.00" arrivalLane="683079388#0_2" arrivalPos="22.12" arrivalSpeed="14.36" duration="72.00" routeLength="817.34" waitingTime="0.00" waitingCount="0" stopTime="0.00" timeLoss="15.16" rerouteNo="0" devices="tripinfo_flow_route_142_duration_20250327_2010.10" vType="car" speedFactor="0.88" vaporized=""/>
    <tripinfo id="flow_route_142_duration_20250327_2010.11" depart="48.00" departLane="1253222187#0_0" departPos="2.46" departSpeed="0.00" departDelay="0.87" arrival="116.00" arrivalLane="683079388#0_2" arrivalPos="8.75" arrivalSpeed="14.22" duration="68.00" routeLength="804.60" waitingTime="0.00" waitingCount="0" stopTime="0.00" timeLoss="19.32" rerouteNo="0" devices="tripinfo_flow_route_142_duration_20250327_2010.11" vType="car" speedFactor="1.02" vaporized=""/>
    <tripinfo id="flow_route_142_duration_20250327_2010.12" depart="53.00" departLane="1253222187#0_0" departPos="70.17" departSpeed="0.00" departDelay="1.58" arrival="116.00" arrivalLane="683079388#0_0" arrivalPos="12.59" arrivalSpeed="16.52" duration="63.00" routeLength="740.72" waitingTime="0.00" waitingCount="0" stopTime="0.00" timeLoss="17.49" rerouteNo="0" devices="tripinfo_flow_route_142_duration_20250327_2010.12" vType="car" speedFactor="1.14" vaporized=""/>
    <tripinfo id="flow_route_146_duration_20250327_2010.6" depart="39.00" departLane="683079387#1_0" departPos="9.23" departSpeed="0.00" departDelay="20.06" arrival="126.00" arrivalLane="-809772643#1_0" arrivalPos="5.76" arrivalSpeed="9.51" duration="87.00" routeLength="609.49" waitingTime="25.00" waitingCount="1" stopTime="0.00" timeLoss="45.66" rerouteNo="0" devices="tripinfo_flow_route_146_duration_20250327_2010.6" vType="car" speedFactor="0.89" vaporized=""/>
    <tripinfo id="flow_route_146_duration_20250327_2010.7" depart="41.00" departLane="683079387#1_0" departPos="2.83" departSpeed="0.00" departDelay="18.90" arrival="127.00" arrivalLane="-809772643#1_1" arrivalPos="16.54" arrivalSpeed="10.48" duration="86.00" routeLength="626.68" waitingTime="23.00" waitingCount="1" stopTime="0.00" timeLoss="46.25" rerouteNo="0" devices="tripinfo_flow_route_146_duration_20250327_2010.7" vType="car" speedFactor="0.95" vaporized=""/>
    <tripinfo id="flow_route_146_duration_20250327_2010.9" depart="50.00" departLane="683079387#1_0" departPos="1.17" departSpeed="0.00" departDelay="21.59" arrival="133.00" arrivalLane="-809772643#1_1" arrivalPos="62.59" arrivalSpeed="13.66" duration="83.00" routeLength="674.40" waitingTime="18.00" waitingCount="1" stopTime="0.00" timeLoss="42.24" rerouteNo="0" devices="tripinfo_flow_route_146_duration_20250327_2010.9" vType="car" speedFactor="1.01" vaporized=""/>
    <tripinfo id="flow_route_146_duration_20250327_2010.8" depart="46.00" departLane="683079387#1_0" departPos="3.53" departSpeed="0.00" departDelay="20.74" arrival="134.00" arrivalLane="-809772643#1_0" arrivalPos="80.58" arrivalSpeed="14.48" duration="88.00" routeLength="690.02" waitingTime="22.00" waitingCount="1" stopTime="0.00" timeLoss="46.07" rerouteNo="0" devices="tripinfo_flow_route_146_duration_20250327_2010.8" vType="car" speedFactor="1.18" vaporized=""/>
    <tripinfo id="flow_route_146_duration_20250327_2010.10" depart="60.00" departLane="683079387#1_0" departPos="1.99" departSpeed="0.00" departDelay="28.43" arrival="135.00" arrivalLane="-809772643#1_1" arrivalPos="61.27" arrivalSpeed="14.27" duration="75.00" routeLength="672.24" waitingTime="9.00" waitingCount="1" stopTime="0.00" timeLoss="34.05" rerouteNo="0" devices="tripinfo_flow_route_146_duration_20250327_2010.10" vType="car" speedFactor="1.18" vaporized=""/>
    <tripinfo id="flow_route_147_duration_20250327_2010.1" depart="55.00" departLane="683079387#1_0" departPos="3.74" departSpeed="0.00" departDelay="25.00" arrival="138.00" arrivalLane="1310781056_0" arrivalPos="55.87" arrivalSpeed="16.53" duration="83.00" routeLength="731.96" waitingTime="13.00" waitingCount="1" stopTime="0.00" timeLoss="36.92" rerouteNo="0" devices="tripinfo_flow_route_147_duration_20250327_2010.1" vType="car" speedFactor="0.97" vaporized=""/>
    <tripinfo id="flow_route_146_duration_20250327_2010.12" depart="71.00" departLane="683079387#1_0" departPos="4.12" departSpeed="0.00" departDelay="33.12" arrival="138.00" arrivalLane="-809772643#1_1" arrivalPos="80.77" arrivalSpeed="15.39" duration="67.00" routeLength="689.63" waitingTime="0.00" waitingCount="0" stopTime="0.00" timeLoss="24.89" rerouteNo="0" devices="tripinfo_flow_route_146_duration_20250327_2010.12" vType="car" speedFactor="1.04" vaporized=""/>
    <tripinfo id="flow_route_146_duration_20250327_2010.11" depart="65.00" departLane="683079387#1_0" departPos="1.95" departSpeed="0.00" departDelay="30.27" arrival="141.00" arrivalLane="-809772643#1_0" arrivalPos="147.26" arrivalSpeed="16.31" duration="76.00" routeLength="758.28" waitingTime="5.00" waitingCount="1" stopTime="0.00" timeLoss="30.04" rerouteNo="0" devices="tripinfo_flow_route_146_duration_20250327_2010.11" vType="car" speedFactor="1.03" vaporized=""/>
    <tripinfo id="flow_route_141_duration_20250327_2010.7" depart="39.00" departLane="809719540#0_0" departPos="178.16" departSpeed="0.00" departDelay="0.82" arrival="141.00" arrivalLane="683079387#1_1" arrivalPos="8.63" arrivalSpeed="7.00" duration="102.00" routeLength="726.03" waitingTime="29.00" waitingCount="1" stopTime="0.00" timeLoss="55.42" rerouteNo="0" devices="tripinfo_flow_route_141_duration_20250327_2010.7" vType="car" speedFactor="1.04" vaporized=""/>
    <tripinfo id="flow_route_146_duration_20250327_2010.14" depart="84.00" departLane="683079387#1_0" departPos="6.17" departSpeed="0.00" departDelay="39.80" arrival="141.00" arrivalLane="-809772643#1_1" arrivalPos="99.80" arrivalSpeed="16.11" duration="57.00" routeLength="706.60" waitingTime="0.00" waitingCount="0" stopTime="0.00" timeLoss="13.71" rerouteNo="0" devices="tripinfo_flow_route_146_duration_20250327_2010.14" vType="car" speedFactor="1.17" vaporized=""/>
    <tripinfo id="flow_route_141_duration_20250327_2010.5" depart="28.00" departLane="809719540#0_0" departPos="6.40" departSpeed="0.00" departDelay="0.73" arrival="142.00" arrivalLane="683079387#1_1" arrivalPos="4.26" arrivalSpeed="6.57" duration="114.00" routeLength="900.43" waitingTime="25.00" waitingCount="1" stopTime="0.00" timeLoss="57.98" rerouteNo="0" devices="tripinfo_flow_route_141_duration_20250327_2010.5" vType="car" speedFactor="1.15" vaporized=""/>
    <tripinfo id="flow_route_146_duration_20250327_2010.13" depart="77.00" departLane="683079387#1_0" departPos="1.22" departSpeed="0.00" departDelay="35.96" arrival="142.00" arrivalLane="-809772643#1_0" arrivalPos="122.54" arrivalSpeed="14.91" duration="65.00" routeLength="734.29" waitingTime="0.00" waitingCount="0" stopTime="0.00" timeLoss="15.37" rerouteNo="0" devices="tripinfo_flow_route_146_duration_20250327_2010.13" vType="car" speedFactor="0.90" vaporized=""/>
    <tripinfo id="flow_route_146_duration_20250327_2010.15" depart="87.00" departLane="683079387#1_0" departPos="1.12" departSpeed="0.00" departDelay="39.65" arrival="144.00" arrivalLane="-809772643#1_0" arrivalPos="136.18" arrivalSpeed="16.49" duration="57.00" routeLength="748.03" waitingTime="0.00" waitingCount="0" stopTime="0.00" timeLoss="11.63" rerouteNo="0" devices="tripinfo_flow_route_146_duration_20250327_2010.15" vType="car" speedFactor="1.00" vaporized=""/>
    <tripinfo id="flow_route_141_duration_20250327_2010.9" depart="50.00" departLane="809719540#0_0" departPos="220.08" departSpeed="0.00" departDelay="0.91" arrival="145.00" arrivalLane="683079387#1_1" arrivalPos="4.21" arrivalSpeed="6.48" duration="95.00" routeLength="679.69" waitingTime="26.00" waitingCount="1" stopTime="0.00" timeLoss="51.12" rerouteNo="0" devices="tripinfo_flow_route_141_duration_20250327_2010.9" vType="car" speedFactor="1.00" vaporized=""/>
    <tripinfo id="flow_route_141_duration_20250327_2010.10" depart="55.00" departLane="809719540#0_0" departPos="42.34" departSpeed="0.00" departDelay="0.46" arrival="147.00" arrivalLane="683079387#1_1" arrivalPos="4.54" arrivalSpeed="7.13" duration="92.00" routeLength="857.76" waitingTime="8.00" waitingCount="1" stopTime="0.00" timeLoss="38.19" rerouteNo="0" devices="tripinfo_flow_route_141_duration_20250327_2010.10" vType="car" speedFactor="1.12" vaporized=""/>
    <tripinfo id="flow_route_146_duration_20250327_2010.17" depart="95.00" departLane="683079387#1_0" departPos="2.36" departSpeed="0.00" departDelay="41.33" arrival="149.00" arrivalLane="-809772643#1_1" arrivalPos="92.32" arrivalSpeed="16.47" duration="54.00" routeLength="702.94" waitingTime="0.00" waitingCount="0" stopTime="0.00" timeLoss="11.45" rerouteNo="0" devices="tripinfo_flow_route_146_duration_20250327_2010.17" vType="car" speedFactor="1.08" vaporized=""/>
    <tripinfo id="flow_route_146_duration_20250327_2010.16" depart="93.00" departLane="683079387#1_0" departPos="9.24" departSpeed="0.00" departDelay="42.49" arrival="150.00" arrivalLane="-809772643#1_0" arrivalPos="81.35" arrivalSpeed="14.83" duration="57.00" routeLength="685.09" waitingTime="0.00" waitingCount="0" stopTime="0.00" timeLoss="10.94" rerouteNo="0" devices="tripinfo_flow_route_146_duration_20250327_2010.16" vType="car" speedFactor="0.90" vaporized=""/>
    <tripinfo id="flow_route_143_duration_20250327_2010.2" depart="12.00" departLane="1253222187#0_0" departPos="55.68" departSpeed="0.00" departDelay="0.00" arrival="166.00" arrivalLane="1310781056_0" arrivalPos="46.65" arrivalSpeed="16.48" duration="154.00" routeLength="359.47" waitingTime="85.00" waitingCount="5" stopTime="0.00" timeLoss="130.71" rerouteNo="0" devices="tripinfo_flow_route_143_duration_20250327_2010.2" vType="car" speedFactor="0.93" vaporized=""/>
    <tripinfo id="flow_route_146_duration_20250327_2010.18" depart="101.00" departLane="683079387#1_0" departPos="8.46" departSpeed="0.00" departDelay="44.17" arrival="185.00" arrivalLane="-809772643#1_0" arrivalPos="23.71" arrivalSpeed="10.57" duration="84.00" routeLength="628.22" waitingTime="22.00" waitingCount="1" stopTime="0.00" timeLoss="45.75" rerouteNo="0" devices="tripinfo_flow_route_146_duration_20250327_2010.18" vType="car" speedFactor="0.99" vaporized=""/>
    <tripinfo id="flow_route_143_duration_20250327_2010.6" depart="36.00" departLane="1253222187#0_0" departPos="78.35" departSpeed="0.00" departDelay="0.00" arrival="205.00" arrivalLane="1310781056_0" arrivalPos="16.01" arrivalSpeed="16.37" duration="169.00" routeLength="306.16" waitingTime="100.00" waitingCount="6" stopTime="0.00" timeLoss="149.55" rerouteNo="0" devices="tripinfo_flow_route_143_duration_20250327_2010.6" vType="car" speedFactor="0.96" vaporized=""/>
    <tripinfo id="flow_route_143_duration_20250327_2010.3" depart="19.00" departLane="1253222187#0_0" departPos="14.12" departSpeed="0.00" departDelay="1.00" arrival="207.00" arrivalLane="1310781056_0" arrivalPos="108.29" arrivalSpeed="16.59" duration="188.00" routeLength="462.67" waitingTime="111.00" waitingCount="6" stopTime="0.00" timeLoss="159.40" rerouteNo="0" devices="tripinfo_flow_route_143_duration_20250327_2010.3" vType="car" speedFactor="0.97" vaporized=""/>
    <tripinfo id="flow_route_143_duration_20250327_2010.9" depart="54.00" departLane="1253222187#0_0" departPos="152.47" departSpeed="0.00" departDelay="0.00" arrival="207.00" arrivalLane="1310781056_0" arrivalPos="17.39" arrivalSpeed="16.17" duration="153.00" routeLength="233.42" waitingTime="90.00" waitingCount="5" stopTime="0.00" timeLoss="138.06" rerouteNo="0" devices="tripinfo_flow_route_143_duration_20250327_2010.9" vType="car" speedFactor="0.97" vaporized=""/>
    <tripinfo id="flow_route_143_duration_20250327_2010.8" depart="48.00" departLane="1253222187#0_0" departPos="102.55" departSpeed="0.00" departDelay="0.00" arrival="208.00" arrivalLane="1310781056_0" arrivalPos="0.10" arrivalSpeed="16.17" duration="160.00" routeLength="266.04" waitingTime="90.00" waitingCount="5" stopTime="0.00" timeLoss="143.78" rerouteNo="0" devices="tripinfo_flow_route_143_duration_20250327_2010.8" vType="car" speedFactor="1.10" vaporized=""/>