<?xml version="1.0" encoding="UTF-8"?>

<!-- generated on 2025-05-06 21:08:35 by Eclipse SUMO sumo Version 1.20.0
<configuration xmlns:xsi="http://www.w3.org/2001/XMLSchema-instance" xsi:noNamespaceSchemaLocation="http://sumo.dlr.de/xsd/sumoConfiguration.xsd">

    <input>
        <net-file value="osm.net.xml"/>
        <route-files value="xml/route_static_cluster10852700972_12154751993_5.rou.xml"/>
    </input>

    <output>
        <tripinfo-output value="xml/tripinfo_static_cluster10852700972_12154751993_5.xml"/>
    </output>

    <traci_server>
        <remote-port value="52689"/>
    </traci_server>

</configuration>
-->

<tripinfos xmlns:xsi="http://www.w3.org/2001/XMLSchema-instance" xsi:noNamespaceSchemaLocation="http://sumo.dlr.de/xsd/tripinfo_file.xsd">
    <tripinfo id="flow_route_60_duration_20250327_2050.1" depart="7.00" departLane="186407684#0_0" departPos="39.84" departSpeed="0.00" departDelay="1.00" arrival="20.00" arrivalLane="791826085_0" arrivalPos="1.97" arrivalSpeed="10.19" duration="13.00" routeLength="71.05" waitingTime="0.00" waitingCount="0" stopTime="0.00" timeLoss="7.87" rerouteNo="0" devices="tripinfo_flow_route_60_duration_20250327_2050.1" vType="car" speedFactor="0.83" vaporized=""/>
    <tripinfo id="flow_route_61_duration_20250327_2050.0" depart="0.00" departLane="186407684#0_0" departPos="65.67" departSpeed="0.00" departDelay="0.00" arrival="23.00" arrivalLane="1341093416#0_1" arrivalPos="161.76" arrivalSpeed="16.51" duration="23.00" routeLength="210.27" waitingTime="0.00" waitingCount="0" stopTime="0.00" timeLoss="9.89" rerouteNo="0" devices="tripinfo_flow_route_61_duration_20250327_2050.0" vType="car" speedFactor="1.03" vaporized=""/>
    <tripinfo id="flow_route_60_duration_20250327_2050.0" depart="0.00" departLane="186407684#0_0" departPos="48.06" departSpeed="0.00" departDelay="0.00" arrival="25.00" arrivalLane="791826085_0" arrivalPos="160.28" arrivalSpeed="16.39" duration="25.00" routeLength="221.15" waitingTime="0.00" waitingCount="0" stopTime="0.00" timeLoss="11.16" rerouteNo="0" devices="tripinfo_flow_route_60_duration_20250327_2050.0" vType="car" speedFactor="1.08" vaporized=""/>
    <tripinfo id="flow_route_60_duration_20250327_2050.2" depart="12.00" departLane="186407684#0_0" departPos="28.37" departSpeed="0.00" departDelay="0.00" arrival="28.00" arrivalLane="791826085_1" arrivalPos="19.65" arrivalSpeed="12.60" duration="16.00" routeLength="100.21" waitingTime="0.00" waitingCount="0" stopTime="0.00" timeLoss="8.95" rerouteNo="0" devices="tripinfo_flow_route_60_duration_20250327_2050.2" vType="car" speedFactor="0.94" vaporized=""/>
    <tripinfo id="flow_route_56_duration_20250327_2050.0" depart="0.00" departLane="1341093415#0_0" departPos="44.11" departSpeed="0.00" departDelay="0.00" arrival="39.00" arrivalLane="409155823_0" arrivalPos="4.00" arrivalSpeed="6.98" duration="39.00" routeLength="164.73" waitingTime="10.00" waitingCount="1" stopTime="0.00" timeLoss="28.03" rerouteNo="0" devices="tripinfo_flow_route_56_duration_20250327_2050.0" vType="car" speedFactor="1.01" vaporized=""/>
    <tripinfo id="flow_route_60_duration_20250327_2050.3" depart="18.00" departLane="186407684#0_0" departPos="82.76" departSpeed="0.00" departDelay="0.00" arrival="43.00" arrivalLane="791826085_0" arrivalPos="206.60" arrivalSpeed="16.44" duration="25.00" routeLength="232.77" waitingTime="0.00" waitingCount="0" stopTime="0.00" timeLoss="10.79" rerouteNo="0" devices="tripinfo_flow_route_60_duration_20250327_2050.3" vType="car" speedFactor="1.03" vaporized=""/>
    <tripinfo id="flow_route_56_duration_20250327_2050.1" depart="12.00" departLane="1341093415#0_0" departPos="156.06" departSpeed="0.00" departDelay="0.00" arrival="46.00" arrivalLane="409155823_0" arrivalPos="23.29" arrivalSpeed="8.97" duration="34.00" routeLength="72.06" waitingTime="14.00" waitingCount="1" stopTime="0.00" timeLoss="27.82" rerouteNo="0" devices="tripinfo_flow_route_56_duration_20250327_2050.1" vType="car" speedFactor="0.89" vaporized=""/>
    <tripinfo id="flow_route_54_duration_20250327_2050.1" depart="15.00" departLane="1341093415#0_0" departPos="54.73" departSpeed="0.00" departDelay="0.00" arrival="49.00" arrivalLane="1341093416#0_2" arrivalPos="140.65" arrivalSpeed="16.36" duration="34.00" routeLength="292.74" waitingTime="0.00" waitingCount="0" stopTime="0.00" timeLoss="15.43" rerouteNo="0" devices="tripinfo_flow_route_54_duration_20250327_2050.1" vType="car" speedFactor="1.09" vaporized=""/>
    <tripinfo id="flow_route_56_duration_20250327_2050.2" depart="24.00" departLane="1341093415#0_0" departPos="42.19" departSpeed="0.00" departDelay="0.00" arrival="49.00" arrivalLane="409155823_0" arrivalPos="34.91" arrivalSpeed="14.02" duration="25.00" routeLength="197.56" waitingTime="0.00" waitingCount="0" stopTime="0.00" timeLoss="12.00" rerouteNo="0" devices="tripinfo_flow_route_56_duration_20250327_2050.2" vType="car" speedFactor="1.12" vaporized=""/>
    <tripinfo id="flow_route_55_duration_20250327_2050.1" depart="7.00" departLane="1341093415#0_0" departPos="100.93" departSpeed="0.00" departDelay="0.33" arrival="53.00" arrivalLane="791826085_0" arrivalPos="152.03" arrivalSpeed="14.68" duration="46.00" routeLength="240.81" waitingTime="8.00" waitingCount="1" stopTime="0.00" timeLoss="30.89" rerouteNo="0" devices="tripinfo_flow_route_55_duration_20250327_2050.1" vType="car" speedFactor="1.05" vaporized=""/>
    <tripinfo id="flow_route_55_duration_20250327_2050.4" depart="27.00" departLane="1341093415#0_0" departPos="136.26" departSpeed="0.00" departDelay="0.34" arrival="53.00" arrivalLane="791826085_0" arrivalPos="98.41" arrivalSpeed="13.43" duration="26.00" routeLength="151.86" waitingTime="0.00" waitingCount="0" stopTime="0.00" timeLoss="15.26" rerouteNo="0" devices="tripinfo_flow_route_55_duration_20250327_2050.4" vType="car" speedFactor="0.93" vaporized=""/>
    <tripinfo id="flow_route_55_duration_20250327_2050.0" depart="0.00" departLane="1341093415#0_0" departPos="132.48" departSpeed="0.00" departDelay="0.00" arrival="56.00" arrivalLane="791826085_0" arrivalPos="232.37" arrivalSpeed="15.56" duration="56.00" routeLength="289.60" waitingTime="18.00" waitingCount="1" stopTime="0.00" timeLoss="36.41" rerouteNo="0" devices="tripinfo_flow_route_55_duration_20250327_2050.0" vType="car" speedFactor="0.94" vaporized=""/>
    <tripinfo id="flow_route_54_duration_20250327_2050.2" depart="31.00" departLane="1341093415#0_0" departPos="23.06" departSpeed="0.00" departDelay="1.00" arrival="57.00" arrivalLane="1341093416#0_1" arrivalPos="43.63" arrivalSpeed="16.57" duration="26.00" routeLength="227.39" waitingTime="0.00" waitingCount="0" stopTime="0.00" timeLoss="11.47" rerouteNo="0" devices="tripinfo_flow_route_54_duration_20250327_2050.2" vType="car" speedFactor="0.88" vaporized=""/>
    <tripinfo id="flow_route_54_duration_20250327_2050.0" depart="0.00" departLane="1341093415#0_0" departPos="7.77" departSpeed="0.00" departDelay="0.00" arrival="58.00" arrivalLane="1341093416#0_0" arrivalPos="244.31" arrivalSpeed="16.32" duration="58.00" routeLength="443.35" waitingTime="7.00" waitingCount="1" stopTime="0.00" timeLoss="30.97" rerouteNo="0" devices="tripinfo_flow_route_54_duration_20250327_2050.0" vType="car" speedFactor="1.06" vaporized=""/>
    <tripinfo id="flow_route_55_duration_20250327_2050.3" depart="20.00" departLane="1341093415#0_0" departPos="158.21" departSpeed="0.00" departDelay="0.00" arrival="62.00" arrivalLane="791826085_0" arrivalPos="268.83" arrivalSpeed="16.38" duration="42.00" routeLength="300.33" waitingTime="7.00" waitingCount="1" stopTime="0.00" timeLoss="22.89" rerouteNo="0" devices="tripinfo_flow_route_55_duration_20250327_2050.3" vType="car" speedFactor="1.05" vaporized=""/>
    <tripinfo id="flow_route_56_duration_20250327_2050.3" depart="37.00" departLane="1341093415#0_0" departPos="15.87" departSpeed="0.00" departDelay="1.00" arrival="62.00" arrivalLane="409155823_0" arrivalPos="14.78" arrivalSpeed="12.06" duration="25.00" routeLength="203.76" waitingTime="0.00" waitingCount="0" stopTime="0.00" timeLoss="11.39" rerouteNo="0" devices="tripinfo_flow_route_56_duration_20250327_2050.3" vType="car" speedFactor="1.02" vaporized=""/>
    <tripinfo id="flow_route_55_duration_20250327_2050.2" depart="14.00" departLane="1341093415#0_0" departPos="8.23" departSpeed="0.00" departDelay="0.67" arrival="64.00" arrivalLane="791826085_0" arrivalPos="222.94" arrivalSpeed="13.80" duration="50.00" routeLength="404.42" waitingTime="0.00" waitingCount="0" stopTime="0.00" timeLoss="21.89" rerouteNo="0" devices="tripinfo_flow_route_55_duration_20250327_2050.2" vType="car" speedFactor="0.86" vaporized=""/>
    <tripinfo id="flow_route_55_duration_20250327_2050.5" depart="34.00" departLane="1341093415#0_0" departPos="39.77" departSpeed="0.00" departDelay="0.67" arrival="66.00" arrivalLane="791826085_0" arrivalPos="86.12" arrivalSpeed="14.27" duration="32.00" routeLength="236.06" waitingTime="0.00" waitingCount="0" stopTime="0.00" timeLoss="16.31" rerouteNo="0" devices="tripinfo_flow_route_55_duration_20250327_2050.5" vType="car" speedFactor="1.16" vaporized=""/>
    <tripinfo id="flow_route_55_duration_20250327_2050.6" depart="40.00" departLane="1341093415#0_0" departPos="106.27" departSpeed="0.00" departDelay="0.00" arrival="73.00" arrivalLane="791826085_0" arrivalPos="233.37" arrivalSpeed="15.81" duration="33.00" routeLength="316.80" waitingTime="0.00" waitingCount="0" stopTime="0.00" timeLoss="12.48" rerouteNo="0" devices="tripinfo_flow_route_55_duration_20250327_2050.6" vType="car" speedFactor="0.97" vaporized=""/>
    <tripinfo id="flow_route_61_duration_20250327_2050.1" depart="32.00" departLane="186407684#0_0" departPos="85.01" departSpeed="0.00" departDelay="2.00" arrival="74.00" arrivalLane="1341093416#0_1" arrivalPos="8.18" arrivalSpeed="7.52" duration="42.00" routeLength="37.35" waitingTime="29.00" waitingCount="1" stopTime="0.00" timeLoss="38.80" rerouteNo="0" devices="tripinfo_flow_route_61_duration_20250327_2050.1" vType="car" speedFactor="0.94" vaporized=""/>
    <tripinfo id="flow_route_60_duration_20250327_2050.9" depart="55.00" departLane="186407684#0_0" departPos="29.88" departSpeed="0.00" departDelay="1.00" arrival="83.00" arrivalLane="791826085_0" arrivalPos="21.84" arrivalSpeed="9.35" duration="28.00" routeLength="100.89" waitingTime="2.00" waitingCount="1" stopTime="0.00" timeLoss="21.31" rerouteNo="0" devices="tripinfo_flow_route_60_duration_20250327_2050.9" vType="car" speedFactor="0.93" vaporized=""/>
    <tripinfo id="flow_route_60_duration_20250327_2050.8" depart="48.00" departLane="186407684#0_0" departPos="48.19" departSpeed="0.00" departDelay="0.00" arrival="84.00" arrivalLane="791826085_0" arrivalPos="49.52" arrivalSpeed="11.54" duration="36.00" routeLength="110.26" waitingTime="9.00" waitingCount="1" stopTime="0.00" timeLoss="28.46" rerouteNo="0" devices="tripinfo_flow_route_60_duration_20250327_2050.8" vType="car" speedFactor="0.95" vaporized=""/>
    <tripinfo id="flow_route_60_duration_20250327_2050.4" depart="24.00" departLane="186407684#0_0" departPos="2.86" departSpeed="0.00" departDelay="0.00" arrival="88.00" arrivalLane="791826085_0" arrivalPos="177.52" arrivalSpeed="16.46" duration="64.00" routeLength="283.59" waitingTime="25.00" waitingCount="1" stopTime="0.00" timeLoss="46.74" rerouteNo="0" devices="tripinfo_flow_route_60_duration_20250327_2050.4" vType="car" speedFactor="0.99" vaporized=""/>
    <tripinfo id="flow_route_60_duration_20250327_2050.6" depart="37.00" departLane="186407684#0_0" departPos="58.88" departSpeed="0.00" departDelay="1.00" arrival="91.00" arrivalLane="791826085_0" arrivalPos="186.42" arrivalSpeed="16.23" duration="54.00" routeLength="236.47" waitingTime="21.00" waitingCount="1" stopTime="0.00" timeLoss="39.60" rerouteNo="0" devices="tripinfo_flow_route_60_duration_20250327_2050.6" vType="car" speedFactor="1.01" vaporized=""/>
    <tripinfo id="flow_route_60_duration_20250327_2050.7" depart="44.00" departLane="186407684#0_0" departPos="27.13" departSpeed="0.00" departDelay="2.00" arrival="96.00" arrivalLane="791826085_1" arrivalPos="225.55" arrivalSpeed="14.55" duration="52.00" routeLength="307.36" waitingTime="9.00" waitingCount="1" stopTime="0.00" timeLoss="30.47" rerouteNo="0" devices="tripinfo_flow_route_60_duration_20250327_2050.7" vType="car" speedFactor="0.89" vaporized=""/>
    <tripinfo id="flow_route_60_duration_20250327_2050.5" depart="31.00" departLane="186407684#0_0" departPos="11.05" departSpeed="0.00" departDelay="1.00" arrival="99.00" arrivalLane="791826085_1" arrivalPos="311.97" arrivalSpeed="15.69" duration="68.00" routeLength="409.85" waitingTime="20.00" waitingCount="1" stopTime="0.00" timeLoss="41.61" rerouteNo="0" devices="tripinfo_flow_route_60_duration_20250327_2050.5" vType="car" speedFactor="0.94" vaporized=""/>
    <tripinfo id="flow_route_56_duration_20250327_2050.4" depart="48.00" departLane="1341093415#0_0" departPos="49.70" departSpeed="0.00" departDelay="0.00" arrival="111.00" arrivalLane="409155823_0" arrivalPos="56.48" arrivalSpeed="11.00" duration="63.00" routeLength="211.62" waitingTime="27.00" waitingCount="1" stopTime="0.00" timeLoss="48.53" rerouteNo="0" devices="tripinfo_flow_route_56_duration_20250327_2050.4" vType="car" speedFactor="0.92" vaporized=""/>
    <tripinfo id="flow_route_54_duration_20250327_2050.3" depart="46.00" departLane="1341093415#0_0" departPos="30.02" departSpeed="0.00" departDelay="1.00" arrival="118.00" arrivalLane="1341093416#0_0" arrivalPos="135.06" arrivalSpeed="14.99" duration="72.00" routeLength="311.86" waitingTime="27.00" waitingCount="1" stopTime="0.00" timeLoss="52.96" rerouteNo="0" devices="tripinfo_flow_route_54_duration_20250327_2050.3" vType="car" speedFactor="0.83" vaporized=""/>
    <tripinfo id="flow_route_55_duration_20250327_2050.7" depart="48.00" departLane="1341093415#0_0" departPos="4.96" departSpeed="0.00" departDelay="1.34" arrival="131.00" arrivalLane="791826085_0" arrivalPos="311.42" arrivalSpeed="14.18" duration="83.00" routeLength="496.17" waitingTime="25.00" waitingCount="1" stopTime="0.00" timeLoss="48.86" rerouteNo="0" devices="tripinfo_flow_route_55_duration_20250327_2050.7" vType="car" speedFactor="0.87" vaporized=""/>
    <tripinfo id="flow_route_55_duration_20250327_2050.8" depart="56.00" departLane="1341093415#0_0" departPos="15.33" departSpeed="0.00" departDelay="2.67" arrival="131.00" arrivalLane="791826085_1" arrivalPos="302.68" arrivalSpeed="16.36" duration="75.00" routeLength="477.06" waitingTime="20.00" waitingCount="1" stopTime="0.00" timeLoss="44.98" rerouteNo="0" devices="tripinfo_flow_route_55_duration_20250327_2050.8" vType="car" speedFactor="1.13" vaporized=""/>
</tripinfos>
