<?xml version="1.0" encoding="UTF-8"?>

<!-- generated on 2025-05-06 21:09:17 by Eclipse SUMO sumo Version 1.20.0
<configuration xmlns:xsi="http://www.w3.org/2001/XMLSchema-instance" xsi:noNamespaceSchemaLocation="http://sumo.dlr.de/xsd/sumoConfiguration.xsd">

    <input>
        <net-file value="osm.net.xml"/>
        <route-files value="xml/route_static_cluster7571105647_7571105653_cluster_1141265322_11869698130_256036890_4227138136_#4more_9.rou.xml"/>
    </input>

    <output>
        <tripinfo-output value="xml/tripinfo_static_cluster7571105647_7571105653_cluster_1141265322_11869698130_256036890_4227138136_#4more_9.xml"/>
    </output>

    <traci_server>
        <remote-port value="57335"/>
    </traci_server>

</configuration>
-->

<tripinfos xmlns:xsi="http://www.w3.org/2001/XMLSchema-instance" xsi:noNamespaceSchemaLocation="http://sumo.dlr.de/xsd/tripinfo_file.xsd">
    <tripinfo id="flow_route_143_duration_20250327_2120.0" depart="0.00" departLane="1253222187#0_0" departPos="157.10" departSpeed="0.00" departDelay="0.00" arrival="28.00" arrivalLane="1310781056_0" arrivalPos="55.73" arrivalSpeed="16.37" duration="28.00" routeLength="267.13" waitingTime="0.00" waitingCount="0" stopTime="0.00" timeLoss="11.65" rerouteNo="0" devices="tripinfo_flow_route_143_duration_20250327_2120.0" vType="car" speedFactor="1.08" vaporized=""/>
    <tripinfo id="flow_route_143_duration_20250327_2120.1" depart="7.00" departLane="1253222187#0_0" departPos="108.15" departSpeed="0.00" departDelay="0.33" arrival="44.00" arrivalLane="1310781056_0" arrivalPos="77.52" arrivalSpeed="16.48" duration="37.00" routeLength="337.87" waitingTime="0.00" waitingCount="0" stopTime="0.00" timeLoss="15.01" rerouteNo="0" devices="tripinfo_flow_route_143_duration_20250327_2120.1" vType="car" speedFactor="0.89" vaporized=""/>
    <tripinfo id="flow_route_140_duration_20250327_2120.1" depart="12.00" departLane="809719540#0_0" departPos="42.74" departSpeed="0.00" departDelay="0.00" arrival="47.00" arrivalLane="-809772643#1_1" arrivalPos="62.39" arrivalSpeed="13.47" duration="35.00" routeLength="327.11" waitingTime="0.00" waitingCount="0" stopTime="0.00" timeLoss="14.98" rerouteNo="0" devices="tripinfo_flow_route_140_duration_20250327_2120.1" vType="car" speedFactor="1.03" vaporized=""/>
    <tripinfo id="flow_route_142_duration_20250327_2120.0" depart="0.00" departLane="1253222187#0_0" departPos="114.97" departSpeed="0.00" departDelay="0.00" arrival="53.00" arrivalLane="683079388#0_0" arrivalPos="1.17" arrivalSpeed="16.33" duration="53.00" routeLength="684.52" waitingTime="0.00" waitingCount="0" stopTime="0.00" timeLoss="11.03" rerouteNo="0" devices="tripinfo_flow_route_142_duration_20250327_2120.0" vType="car" speedFactor="1.01" vaporized=""/>
    <tripinfo id="flow_route_140_duration_20250327_2120.0" depart="0.00" departLane="809719540#0_0" departPos="199.64" departSpeed="0.00" departDelay="0.00" arrival="54.00" arrivalLane="-809772643#1_0" arrivalPos="184.22" arrivalSpeed="16.42" duration="54.00" routeLength="292.04" waitingTime="16.00" waitingCount="1" stopTime="0.00" timeLoss="35.76" rerouteNo="0" devices="tripinfo_flow_route_140_duration_20250327_2120.0" vType="car" speedFactor="1.06" vaporized=""/>
    <tripinfo id="flow_route_140_duration_20250327_2120.2" depart="24.00" departLane="809719540#0_0" departPos="82.67" departSpeed="0.00" departDelay="0.00" arrival="61.00" arrivalLane="-809772643#1_0" arrivalPos="193.33" arrivalSpeed="15.12" duration="37.00" routeLength="418.11" waitingTime="0.00" waitingCount="0" stopTime="0.00" timeLoss="10.16" rerouteNo="0" devices="tripinfo_flow_route_140_duration_20250327_2120.2" vType="car" speedFactor="0.94" vaporized=""/>
    <tripinfo id="flow_route_146_duration_20250327_2120.2" depart="15.00" departLane="683079387#1_0" departPos="1.32" departSpeed="0.00" departDelay="4.09" arrival="68.00" arrivalLane="-809772643#1_1" arrivalPos="48.94" arrivalSpeed="15.60" duration="53.00" routeLength="660.59" waitingTime="0.00" waitingCount="0" stopTime="0.00" timeLoss="12.45" rerouteNo="0" devices="tripinfo_flow_route_146_duration_20250327_2120.2" vType="car" speedFactor="1.09" vaporized=""/>
    <tripinfo id="flow_route_142_duration_20250327_2120.1" depart="10.00" departLane="1253222187#0_0" departPos="114.76" departSpeed="0.00" departDelay="0.00" arrival="70.00" arrivalLane="683079388#0_0" arrivalPos="22.92" arrivalSpeed="14.07" duration="60.00" routeLength="706.47" waitingTime="0.00" waitingCount="0" stopTime="0.00" timeLoss="10.04" rerouteNo="0" devices="tripinfo_flow_route_142_duration_20250327_2120.1" vType="car" speedFactor="0.86" vaporized=""/>
    <tripinfo id="flow_route_140_duration_20250327_2120.4" depart="48.00" departLane="809719540#0_0" departPos="260.94" departSpeed="0.00" departDelay="0.00" arrival="72.00" arrivalLane="-809772643#1_0" arrivalPos="180.67" arrivalSpeed="16.53" duration="24.00" routeLength="227.18" waitingTime="0.00" waitingCount="0" stopTime="0.00" timeLoss="10.25" rerouteNo="0" devices="tripinfo_flow_route_140_duration_20250327_2120.4" vType="car" speedFactor="0.99" vaporized=""/>
    <tripinfo id="flow_route_146_duration_20250327_2120.3" depart="19.00" departLane="683079387#1_0" departPos="1.71" departSpeed="0.00" departDelay="2.64" arrival="73.00" arrivalLane="-809772643#1_0" arrivalPos="25.92" arrivalSpeed="12.79" duration="54.00" routeLength="637.18" waitingTime="1.00" waitingCount="1" stopTime="0.00" timeLoss="14.91" rerouteNo="0" devices="tripinfo_flow_route_146_duration_20250327_2120.3" vType="car" speedFactor="1.12" vaporized=""/>
    <tripinfo id="flow_route_146_duration_20250327_2120.1" depart="10.00" departLane="683079387#1_0" departPos="4.05" departSpeed="0.00" departDelay="4.55" arrival="74.00" arrivalLane="-809772643#1_1" arrivalPos="181.04" arrivalSpeed="16.35" duration="64.00" routeLength="789.96" waitingTime="0.00" waitingCount="0" stopTime="0.00" timeLoss="16.12" rerouteNo="0" devices="tripinfo_flow_route_146_duration_20250327_2120.1" vType="car" speedFactor="1.05" vaporized=""/>
    <tripinfo id="flow_route_147_duration_20250327_2120.0" depart="5.00" departLane="683079387#1_0" departPos="0.62" departSpeed="0.00" departDelay="5.00" arrival="76.00" arrivalLane="1310781056_0" arrivalPos="4.95" arrivalSpeed="13.92" duration="71.00" routeLength="684.16" waitingTime="1.00" waitingCount="1" stopTime="0.00" timeLoss="21.25" rerouteNo="0" devices="tripinfo_flow_route_147_duration_20250327_2120.0" vType="car" speedFactor="0.83" vaporized=""/>
    <tripinfo id="flow_route_146_duration_20250327_2120.0" depart="0.00" departLane="683079387#1_0" departPos="0.06" departSpeed="0.00" departDelay="0.00" arrival="78.00" arrivalLane="-809772643#1_0" arrivalPos="121.98" arrivalSpeed="16.32" duration="78.00" routeLength="734.89" waitingTime="10.00" waitingCount="1" stopTime="0.00" timeLoss="32.86" rerouteNo="0" devices="tripinfo_flow_route_146_duration_20250327_2120.0" vType="car" speedFactor="1.03" vaporized=""/>
    <tripinfo id="flow_route_141_duration_20250327_2120.0" depart="0.00" departLane="809719540#0_0" departPos="66.48" departSpeed="0.00" departDelay="0.00" arrival="84.00" arrivalLane="683079387#1_1" arrivalPos="7.27" arrivalSpeed="6.50" duration="84.00" routeLength="836.36" waitingTime="4.00" waitingCount="1" stopTime="0.00" timeLoss="27.33" rerouteNo="0" devices="tripinfo_flow_route_141_duration_20250327_2120.0" vType="car" speedFactor="0.94" vaporized=""/>
    <tripinfo id="flow_route_146_duration_20250327_2120.4" depart="25.00" departLane="683079387#1_0" departPos="5.03" departSpeed="0.00" departDelay="3.18" arrival="84.00" arrivalLane="-809772643#1_0" arrivalPos="147.95" arrivalSpeed="15.26" duration="59.00" routeLength="755.89" waitingTime="0.00" waitingCount="0" stopTime="0.00" timeLoss="10.27" rerouteNo="0" devices="tripinfo_flow_route_146_duration_20250327_2120.4" vType="car" speedFactor="0.94" vaporized=""/>
    <tripinfo id="flow_route_146_duration_20250327_2120.5" depart="28.00" departLane="683079387#1_0" departPos="0.28" departSpeed="0.00" departDelay="0.73" arrival="85.00" arrivalLane="-809772643#1_0" arrivalPos="132.67" arrivalSpeed="16.43" duration="57.00" routeLength="745.35" waitingTime="0.00" waitingCount="0" stopTime="0.00" timeLoss="11.14" rerouteNo="0" devices="tripinfo_flow_route_146_duration_20250327_2120.5" vType="car" speedFactor="1.01" vaporized=""/>
    <tripinfo id="flow_route_141_duration_20250327_2120.1" depart="9.00" departLane="809719540#0_0" departPos="221.41" departSpeed="0.00" departDelay="0.43" arrival="86.00" arrivalLane="683079387#1_1" arrivalPos="6.47" arrivalSpeed="6.60" duration="77.00" routeLength="687.64" waitingTime="8.00" waitingCount="1" stopTime="0.00" timeLoss="30.25" rerouteNo="0" devices="tripinfo_flow_route_141_duration_20250327_2120.1" vType="car" speedFactor="0.94" vaporized=""/>
    <tripinfo id="flow_route_141_duration_20250327_2120.2" depart="19.00" departLane="809719540#0_0" departPos="153.53" departSpeed="0.00" departDelay="1.86" arrival="89.00" arrivalLane="683079387#1_1" arrivalPos="9.85" arrivalSpeed="6.56" duration="70.00" routeLength="758.89" waitingTime="0.00" waitingCount="0" stopTime="0.00" timeLoss="20.74" rerouteNo="0" devices="tripinfo_flow_route_141_duration_20250327_2120.2" vType="car" speedFactor="0.99" vaporized=""/>
    <tripinfo id="flow_route_141_duration_20250327_2120.3" depart="26.00" departLane="809719540#0_0" departPos="45.23" departSpeed="0.00" departDelay="0.29" arrival="93.00" arrivalLane="683079387#1_1" arrivalPos="5.92" arrivalSpeed="7.29" duration="67.00" routeLength="856.25" waitingTime="0.00" waitingCount="0" stopTime="0.00" timeLoss="13.82" rerouteNo="0" devices="tripinfo_flow_route_141_duration_20250327_2120.3" vType="car" speedFactor="1.16" vaporized=""/>
    <tripinfo id="flow_route_141_duration_20250327_2120.4" depart="35.00" departLane="809719540#0_0" departPos="193.90" departSpeed="0.00" departDelay="0.72" arrival="96.00" arrivalLane="683079387#1_1" arrivalPos="0.48" arrivalSpeed="5.11" duration="61.00" routeLength="709.16" waitingTime="0.00" waitingCount="0" stopTime="0.00" timeLoss="11.46" rerouteNo="0" devices="tripinfo_flow_route_141_duration_20250327_2120.4" vType="car" speedFactor="0.92" vaporized=""/>
    <tripinfo id="flow_route_147_duration_20250327_2120.1" depart="33.00" departLane="683079387#1_0" departPos="3.46" departSpeed="0.00" departDelay="3.00" arrival="97.00" arrivalLane="1310781056_0" arrivalPos="62.00" arrivalSpeed="16.22" duration="64.00" routeLength="738.37" waitingTime="0.00" waitingCount="0" stopTime="0.00" timeLoss="13.10" rerouteNo="0" devices="tripinfo_flow_route_147_duration_20250327_2120.1" vType="car" speedFactor="0.89" vaporized=""/>
    <tripinfo id="flow_route_140_duration_20250327_2120.3" depart="36.00" departLane="809719540#0_0" departPos="57.04" departSpeed="0.00" departDelay="0.00" arrival="103.00" arrivalLane="-809772643#1_0" arrivalPos="72.75" arrivalSpeed="12.78" duration="67.00" routeLength="323.16" waitingTime="24.00" waitingCount="1" stopTime="0.00" timeLoss="46.48" rerouteNo="0" devices="tripinfo_flow_route_140_duration_20250327_2120.3" vType="car" speedFactor="0.95" vaporized=""/>
    <tripinfo id="flow_route_142_duration_20250327_2120.3" depart="30.00" departLane="1253222187#0_0" departPos="195.68" departSpeed="0.00" departDelay="0.00" arrival="104.00" arrivalLane="683079388#0_0" arrivalPos="7.20" arrivalSpeed="15.88" duration="74.00" routeLength="609.83" waitingTime="19.00" waitingCount="1" stopTime="0.00" timeLoss="35.59" rerouteNo="0" devices="tripinfo_flow_route_142_duration_20250327_2120.3" vType="car" speedFactor="0.97" vaporized=""/>
    <tripinfo id="flow_route_142_duration_20250327_2120.2" depart="20.00" departLane="1253222187#0_0" departPos="18.77" departSpeed="0.00" departDelay="0.00" arrival="105.00" arrivalLane="683079388#0_0" arrivalPos="6.23" arrivalSpeed="15.35" duration="85.00" routeLength="785.77" waitingTime="12.00" waitingCount="1" stopTime="0.00" timeLoss="33.59" rerouteNo="0" devices="tripinfo_flow_route_142_duration_20250327_2120.2" vType="car" speedFactor="0.93" vaporized=""/>
    <tripinfo id="flow_route_142_duration_20250327_2120.4" depart="40.00" departLane="1253222187#0_0" departPos="87.96" departSpeed="0.00" departDelay="0.00" arrival="107.00" arrivalLane="683079388#0_0" arrivalPos="13.24" arrivalSpeed="15.03" duration="67.00" routeLength="723.59" waitingTime="0.00" waitingCount="0" stopTime="0.00" timeLoss="20.29" rerouteNo="0" devices="tripinfo_flow_route_142_duration_20250327_2120.4" vType="car" speedFactor="0.93" vaporized=""/>
    <tripinfo id="flow_route_142_duration_20250327_2120.5" depart="50.00" departLane="1253222187#0_0" departPos="72.29" departSpeed="0.00" departDelay="0.00" arrival="107.00" arrivalLane="683079388#0_2" arrivalPos="7.65" arrivalSpeed="16.25" duration="57.00" routeLength="733.67" waitingTime="0.00" waitingCount="0" stopTime="0.00" timeLoss="12.52" rerouteNo="0" devices="tripinfo_flow_route_142_duration_20250327_2120.5" vType="car" speedFactor="1.02" vaporized=""/>
    <tripinfo id="flow_route_143_duration_20250327_2120.3" depart="20.00" departLane="1253222187#0_0" departPos="140.87" departSpeed="0.00" departDelay="0.00" arrival="109.00" arrivalLane="1310781056_0" arrivalPos="92.05" arrivalSpeed="16.11" duration="89.00" routeLength="319.68" waitingTime="45.00" waitingCount="2" stopTime="0.00" timeLoss="68.68" rerouteNo="0" devices="tripinfo_flow_route_143_duration_20250327_2120.3" vType="car" speedFactor="0.88" vaporized=""/>
    <tripinfo id="flow_route_146_duration_20250327_2120.6" depart="38.00" departLane="683079387#1_0" departPos="4.32" departSpeed="0.00" departDelay="5.28" arrival="132.00" arrivalLane="-809772643#1_0" arrivalPos="64.89" arrivalSpeed="13.58" duration="94.00" routeLength="673.54" waitingTime="24.00" waitingCount="1" stopTime="0.00" timeLoss="44.24" rerouteNo="0" devices="tripinfo_flow_route_146_duration_20250327_2120.6" vType="car" speedFactor="0.83" vaporized=""/>
    <tripinfo id="flow_route_146_duration_20250327_2120.10" depart="56.00" departLane="683079387#1_0" departPos="1.44" departSpeed="0.00" departDelay="1.46" arrival="132.00" arrivalLane="-809772643#1_0" arrivalPos="25.70" arrivalSpeed="11.41" duration="76.00" routeLength="637.23" waitingTime="12.00" waitingCount="1" stopTime="0.00" timeLoss="33.27" rerouteNo="0" devices="tripinfo_flow_route_146_duration_20250327_2120.10" vType="car" speedFactor="0.90" vaporized=""/>
    <tripinfo id="flow_route_146_duration_20250327_2120.9" depart="51.00" departLane="683079387#1_0" departPos="1.04" departSpeed="0.00" departDelay="1.91" arrival="134.00" arrivalLane="-809772643#1_1" arrivalPos="84.99" arrivalSpeed="14.41" duration="83.00" routeLength="696.93" waitingTime="16.00" waitingCount="1" stopTime="0.00" timeLoss="39.99" rerouteNo="0" devices="tripinfo_flow_route_146_duration_20250327_2120.9" vType="car" speedFactor="0.97" vaporized=""/>
    <tripinfo id="flow_route_146_duration_20250327_2120.7" depart="42.00" departLane="683079387#1_0" departPos="0.24" departSpeed="0.00" departDelay="3.82" arrival="136.00" arrivalLane="-809772643#1_0" arrivalPos="127.18" arrivalSpeed="16.52" duration="94.00" routeLength="739.91" waitingTime="24.00" waitingCount="1" stopTime="0.00" timeLoss="48.49" rerouteNo="0" devices="tripinfo_flow_route_146_duration_20250327_2120.7" vType="car" speedFactor="1.13" vaporized=""/>
    <tripinfo id="flow_route_141_duration_20250327_2120.6" depart="53.00" departLane="809719540#0_0" departPos="209.78" departSpeed="0.00" departDelay="1.57" arrival="139.00" arrivalLane="683079387#1_1" arrivalPos="4.76" arrivalSpeed="7.10" duration="86.00" routeLength="697.56" waitingTime="19.00" waitingCount="1" stopTime="0.00" timeLoss="42.58" rerouteNo="0" devices="tripinfo_flow_route_141_duration_20250327_2120.6" vType="car" speedFactor="1.18" vaporized=""/>
    <tripinfo id="flow_route_141_duration_20250327_2120.5" depart="43.00" departLane="809719540#0_0" departPos="28.13" departSpeed="0.00" departDelay="0.15" arrival="141.00" arrivalLane="683079387#1_1" arrivalPos="3.09" arrivalSpeed="6.67" duration="98.00" routeLength="870.52" waitingTime="16.00" waitingCount="1" stopTime="0.00" timeLoss="43.38" rerouteNo="0" devices="tripinfo_flow_route_141_duration_20250327_2120.5" vType="car" speedFactor="1.15" vaporized=""/>
    <tripinfo id="flow_route_146_duration_20250327_2120.8" depart="48.00" departLane="683079387#1_0" departPos="5.86" departSpeed="0.00" departDelay="4.37" arrival="141.00" arrivalLane="-809772643#1_0" arrivalPos="181.03" arrivalSpeed="16.21" duration="93.00" routeLength="788.14" waitingTime="21.00" waitingCount="1" stopTime="0.00" timeLoss="44.86" rerouteNo="0" devices="tripinfo_flow_route_146_duration_20250327_2120.8" vType="car" speedFactor="1.01" vaporized=""/>
    <tripinfo id="flow_route_143_duration_20250327_2120.2" depart="14.00" departLane="1253222187#0_0" departPos="69.85" departSpeed="0.00" departDelay="0.67" arrival="147.00" arrivalLane="1310781056_0" arrivalPos="3.38" arrivalSpeed="15.45" duration="133.00" routeLength="302.03" waitingTime="79.00" waitingCount="4" stopTime="0.00" timeLoss="114.19" rerouteNo="0" devices="tripinfo_flow_route_143_duration_20250327_2120.2" vType="car" speedFactor="1.05" vaporized=""/>
    <tripinfo id="flow_route_143_duration_20250327_2120.4" depart="28.00" departLane="1253222187#0_0" departPos="32.01" departSpeed="0.00" departDelay="1.34" arrival="155.00" arrivalLane="1310781056_0" arrivalPos="108.29" arrivalSpeed="16.29" duration="127.00" routeLength="444.77" waitingTime="62.00" waitingCount="4" stopTime="0.00" timeLoss="99.78" rerouteNo="0" devices="tripinfo_flow_route_143_duration_20250327_2120.4" vType="car" speedFactor="1.02" vaporized=""/>
    <tripinfo id="flow_route_143_duration_20250327_2120.5" depart="34.00" departLane="1253222187#0_0" departPos="38.09" departSpeed="0.00" departDelay="0.67" arrival="155.00" arrivalLane="1310781056_0" arrivalPos="64.31" arrivalSpeed="16.26" duration="121.00" routeLength="394.72" waitingTime="56.00" waitingCount="4" stopTime="0.00" timeLoss="95.53" rerouteNo="0" devices="tripinfo_flow_route_143_duration_20250327_2120.5" vType="car" speedFactor="0.87" vaporized=""/>
    <tripinfo id="flow_route_143_duration_20250327_2120.8" depart="54.00" departLane="1253222187#0_0" departPos="150.16" departSpeed="0.00" departDelay="0.67" arrival="155.00" arrivalLane="1310781056_0" arrivalPos="31.89" arrivalSpeed="16.48" duration="101.00" routeLength="250.22" waitingTime="52.00" waitingCount="3" stopTime="0.00" timeLoss="85.29" rerouteNo="0" devices="tripinfo_flow_route_143_duration_20250327_2120.8" vType="car" speedFactor="1.10" vaporized=""/>
    <tripinfo id="flow_route_143_duration_20250327_2120.6" depart="40.00" departLane="1253222187#0_0" departPos="76.99" departSpeed="0.00" departDelay="0.00" arrival="160.00" arrivalLane="1310781056_0" arrivalPos="93.62" arrivalSpeed="16.31" duration="120.00" routeLength="385.12" waitingTime="52.00" waitingCount="4" stopTime="0.00" timeLoss="96.43" rerouteNo="0" devices="tripinfo_flow_route_143_duration_20250327_2120.6" vType="car" speedFactor="1.18" vaporized=""/>
    <tripinfo id="flow_route_143_duration_20250327_2120.7" depart="47.00" departLane="1253222187#0_0" departPos="96.10" departSpeed="0.00" departDelay="0.34" arrival="193.00" arrivalLane="1310781056_0" arrivalPos="48.21" arrivalSpeed="16.24" duration="146.00" routeLength="320.61" waitingTime="77.00" waitingCount="4" stopTime="0.00" timeLoss="126.24" rerouteNo="0" devices="tripinfo_flow_route_143_duration_20250327_2120.7" vType="car" speedFactor="1.17" vaporized=""/>
</tripinfos>
