<?xml version="1.0" encoding="UTF-8"?>

<!-- generated on 2025-05-06 21:08:36 by Eclipse SUMO sumo Version 1.20.0
<configuration xmlns:xsi="http://www.w3.org/2001/XMLSchema-instance" xsi:noNamespaceSchemaLocation="http://sumo.dlr.de/xsd/sumoConfiguration.xsd">

    <input>
        <net-file value="osm.net.xml"/>
        <route-files value="xml/route_static_11644940310_5.rou.xml"/>
    </input>

    <output>
        <tripinfo-output value="xml/tripinfo_static_11644940310_5.xml"/>
    </output>

    <traci_server>
        <remote-port value="40971"/>
    </traci_server>

</configuration>
-->

<tripinfos xmlns:xsi="http://www.w3.org/2001/XMLSchema-instance" xsi:noNamespaceSchemaLocation="http://sumo.dlr.de/xsd/tripinfo_file.xsd">
    <tripinfo id="flow_route_27_duration_20250327_1950.1" depart="3.00" departLane="1254771874#0_0" departPos="223.82" departSpeed="0.00" departDelay="0.00" arrival="20.00" arrivalLane="138002006#0_1" arrivalPos="5.35" arrivalSpeed="7.81" duration="17.00" routeLength="53.42" waitingTime="1.00" waitingCount="1" stopTime="0.00" timeLoss="12.74" rerouteNo="0" devices="tripinfo_flow_route_27_duration_20250327_1950.1" vType="car" speedFactor="0.89" vaporized=""/>
    <tripinfo id="flow_route_27_duration_20250327_1950.2" depart="6.00" departLane="1254771874#0_0" departPos="240.04" departSpeed="0.00" departDelay="0.00" arrival="20.00" arrivalLane="138002006#0_1" arrivalPos="45.54" arrivalSpeed="11.01" duration="14.00" routeLength="77.39" waitingTime="0.00" waitingCount="0" stopTime="0.00" timeLoss="7.20" rerouteNo="0" devices="tripinfo_flow_route_27_duration_20250327_1950.2" vType="car" speedFactor="0.86" vaporized=""/>
    <tripinfo id="flow_route_27_duration_20250327_1950.0" depart="0.00" departLane="1254771874#0_0" departPos="190.47" departSpeed="0.00" departDelay="0.00" arrival="23.00" arrivalLane="138002006#0_1" arrivalPos="4.04" arrivalSpeed="8.32" duration="23.00" routeLength="85.46" waitingTime="0.00" waitingCount="0" stopTime="0.00" timeLoss="16.71" rerouteNo="0" devices="tripinfo_flow_route_27_duration_20250327_1950.0" vType="car" speedFactor="1.01" vaporized=""/>
    <tripinfo id="flow_route_25_duration_20250327_1950.0" depart="0.00" departLane="1254771874#0_0" departPos="63.27" departSpeed="0.00" departDelay="0.00" arrival="34.00" arrivalLane="1341093415#0_0" arrivalPos="158.81" arrivalSpeed="16.39" duration="34.00" routeLength="373.33" waitingTime="0.00" waitingCount="0" stopTime="0.00" timeLoss="10.80" rerouteNo="0" devices="tripinfo_flow_route_25_duration_20250327_1950.0" vType="car" speedFactor="1.06" vaporized=""/>
    <tripinfo id="flow_route_50_duration_20250327_1950.0" depart="0.00" departLane="-138002006#3_0" departPos="41.39" departSpeed="0.00" departDelay="0.00" arrival="35.00" arrivalLane="-422986370#2_0" arrivalPos="13.06" arrivalSpeed="6.78" duration="35.00" routeLength="82.72" waitingTime="13.00" waitingCount="1" stopTime="0.00" timeLoss="28.91" rerouteNo="0" devices="tripinfo_flow_route_50_duration_20250327_1950.0" vType="car" speedFactor="0.83" vaporized=""/>
    <tripinfo id="flow_route_26_duration_20250327_1950.0" depart="0.00" departLane="1254771874#0_0" departPos="139.38" departSpeed="0.00" departDelay="0.00" arrival="38.00" arrivalLane="-422986370#2_0" arrivalPos="213.43" arrivalSpeed="15.39" duration="38.00" routeLength="338.64" waitingTime="0.00" waitingCount="0" stopTime="0.00" timeLoss="15.15" rerouteNo="0" devices="tripinfo_flow_route_26_duration_20250327_1950.0" vType="car" speedFactor="0.94" vaporized=""/>
    <tripinfo id="flow_route_41_duration_20250327_1950.0" depart="0.00" departLane="1369578054_0" departPos="201.66" departSpeed="0.00" departDelay="0.00" arrival="39.00" arrivalLane="138002006#0_0" arrivalPos="52.37" arrivalSpeed="11.13" duration="39.00" routeLength="172.64" waitingTime="7.00" waitingCount="1" stopTime="0.00" timeLoss="28.21" rerouteNo="0" devices="tripinfo_flow_route_41_duration_20250327_1950.0" vType="car" speedFactor="1.03" vaporized=""/>
    <tripinfo id="flow_route_41_duration_20250327_1950.1" depart="6.00" departLane="1369578054_0" departPos="189.81" departSpeed="0.00" departDelay="2.47" arrival="39.00" arrivalLane="138002006#0_0" arrivalPos="28.58" arrivalSpeed="9.77" duration="33.00" routeLength="160.70" waitingTime="3.00" waitingCount="1" stopTime="0.00" timeLoss="22.34" rerouteNo="0" devices="tripinfo_flow_route_41_duration_20250327_1950.1" vType="car" speedFactor="0.94" vaporized=""/>
    <tripinfo id="flow_route_40_duration_20250327_1950.1" depart="6.00" departLane="1369578054_0" departPos="247.00" departSpeed="0.00" departDelay="0.00" arrival="39.00" arrivalLane="1341093415#0_0" arrivalPos="54.73" arrivalSpeed="9.60" duration="33.00" routeLength="118.66" waitingTime="7.00" waitingCount="1" stopTime="0.00" timeLoss="25.00" rerouteNo="0" devices="tripinfo_flow_route_40_duration_20250327_1950.1" vType="car" speedFactor="1.09" vaporized=""/>
    <tripinfo id="flow_route_41_duration_20250327_1950.3" depart="11.00" departLane="1369578054_0" departPos="90.42" departSpeed="0.00" departDelay="0.41" arrival="40.00" arrivalLane="138002006#0_1" arrivalPos="2.88" arrivalSpeed="9.89" duration="29.00" routeLength="234.39" waitingTime="0.00" waitingCount="0" stopTime="0.00" timeLoss="14.32" rerouteNo="0" devices="tripinfo_flow_route_41_duration_20250327_1950.3" vType="car" speedFactor="1.12" vaporized=""/>
    <tripinfo id="flow_route_41_duration_20250327_1950.7" depart="26.00" departLane="1369578054_0" departPos="278.10" departSpeed="0.00" departDelay="1.30" arrival="41.00" arrivalLane="138002006#0_0" arrivalPos="24.75" arrivalSpeed="9.31" duration="15.00" routeLength="68.58" waitingTime="0.00" waitingCount="0" stopTime="0.00" timeLoss="10.39" rerouteNo="0" devices="tripinfo_flow_route_41_duration_20250327_1950.7" vType="car" speedFactor="1.13" vaporized=""/>
    <tripinfo id="flow_route_41_duration_20250327_1950.2" depart="8.00" departLane="1369578054_0" departPos="118.83" departSpeed="0.00" departDelay="0.94" arrival="43.00" arrivalLane="138002006#0_1" arrivalPos="78.79" arrivalSpeed="12.90" duration="35.00" routeLength="281.89" waitingTime="0.00" waitingCount="0" stopTime="0.00" timeLoss="17.49" rerouteNo="0" devices="tripinfo_flow_route_41_duration_20250327_1950.2" vType="car" speedFactor="1.03" vaporized=""/>
    <tripinfo id="flow_route_40_duration_20250327_1950.3" depart="18.00" departLane="1369578054_0" departPos="200.20" departSpeed="0.00" departDelay="0.00" arrival="43.00" arrivalLane="1341093415#0_0" arrivalPos="43.03" arrivalSpeed="11.19" duration="25.00" routeLength="153.75" waitingTime="0.00" waitingCount="0" stopTime="0.00" timeLoss="14.36" rerouteNo="0" devices="tripinfo_flow_route_40_duration_20250327_1950.3" vType="car" speedFactor="1.01" vaporized=""/>
    <tripinfo id="flow_route_41_duration_20250327_1950.5" depart="18.00" departLane="1369578054_0" departPos="214.41" departSpeed="0.00" departDelay="0.36" arrival="44.00" arrivalLane="138002006#0_1" arrivalPos="72.05" arrivalSpeed="12.99" duration="26.00" routeLength="179.57" waitingTime="0.00" waitingCount="0" stopTime="0.00" timeLoss="14.50" rerouteNo="0" devices="tripinfo_flow_route_41_duration_20250327_1950.5" vType="car" speedFactor="0.97" vaporized=""/>
    <tripinfo id="flow_route_41_duration_20250327_1950.4" depart="15.00" departLane="1369578054_0" departPos="50.33" departSpeed="0.00" departDelay="0.88" arrival="48.00" arrivalLane="138002006#0_1" arrivalPos="85.62" arrivalSpeed="16.29" duration="33.00" routeLength="357.23" waitingTime="0.00" waitingCount="0" stopTime="0.00" timeLoss="11.03" rerouteNo="0" devices="tripinfo_flow_route_41_duration_20250327_1950.4" vType="car" speedFactor="1.16" vaporized=""/>
    <tripinfo id="flow_route_41_duration_20250327_1950.6" depart="23.00" departLane="1369578054_0" departPos="173.81" departSpeed="0.00" departDelay="1.83" arrival="54.00" arrivalLane="138002006#0_1" arrivalPos="85.21" arrivalSpeed="13.29" duration="31.00" routeLength="233.33" waitingTime="0.00" waitingCount="0" stopTime="0.00" timeLoss="13.34" rerouteNo="0" devices="tripinfo_flow_route_41_duration_20250327_1950.6" vType="car" speedFactor="0.83" vaporized=""/>
    <tripinfo id="flow_route_40_duration_20250327_1950.6" depart="37.00" departLane="1369578054_0" departPos="292.70" departSpeed="0.00" departDelay="1.00" arrival="54.00" arrivalLane="1341093415#0_0" arrivalPos="91.41" arrivalSpeed="13.28" duration="17.00" routeLength="109.63" waitingTime="0.00" waitingCount="0" stopTime="0.00" timeLoss="9.06" rerouteNo="0" devices="tripinfo_flow_route_40_duration_20250327_1950.6" vType="car" speedFactor="1.10" vaporized=""/>
    <tripinfo id="flow_route_40_duration_20250327_1950.0" depart="0.00" departLane="1369578054_0" departPos="1.81" departSpeed="0.00" departDelay="0.00" arrival="55.00" arrivalLane="1341093415#0_0" arrivalPos="87.60" arrivalSpeed="12.74" duration="55.00" routeLength="396.71" waitingTime="0.00" waitingCount="0" stopTime="0.00" timeLoss="29.97" rerouteNo="0" devices="tripinfo_flow_route_40_duration_20250327_1950.0" vType="car" speedFactor="1.08" vaporized=""/>
    <tripinfo id="flow_route_40_duration_20250327_1950.2" depart="13.00" departLane="1369578054_0" departPos="38.77" departSpeed="0.00" departDelay="1.00" arrival="63.00" arrivalLane="1341093415#0_0" arrivalPos="170.50" arrivalSpeed="16.47" duration="50.00" routeLength="442.66" waitingTime="0.00" waitingCount="0" stopTime="0.00" timeLoss="19.81" rerouteNo="0" devices="tripinfo_flow_route_40_duration_20250327_1950.2" vType="car" speedFactor="0.88" vaporized=""/>
    <tripinfo id="flow_route_51_duration_20250327_1950.0" depart="2.00" departLane="-138002006#3_0" departPos="23.48" departSpeed="0.00" departDelay="2.00" arrival="66.00" arrivalLane="1341093415#0_3" arrivalPos="132.48" arrivalSpeed="14.93" duration="64.00" routeLength="212.67" waitingTime="28.00" waitingCount="2" stopTime="0.00" timeLoss="50.49" rerouteNo="0" devices="tripinfo_flow_route_51_duration_20250327_1950.0" vType="car" speedFactor="1.05" vaporized=""/>
    <tripinfo id="flow_route_27_duration_20250327_1950.4" depart="12.00" departLane="1254771874#0_0" departPos="175.12" departSpeed="0.00" departDelay="0.00" arrival="71.00" arrivalLane="138002006#0_1" arrivalPos="14.12" arrivalSpeed="7.13" duration="59.00" routeLength="110.90" waitingTime="33.00" waitingCount="1" stopTime="0.00" timeLoss="51.19" rerouteNo="0" devices="tripinfo_flow_route_27_duration_20250327_1950.4" vType="car" speedFactor="0.93" vaporized=""/>
    <tripinfo id="flow_route_25_duration_20250327_1950.2" depart="24.00" departLane="1254771874#0_0" departPos="164.02" departSpeed="0.00" departDelay="0.00" arrival="75.00" arrivalLane="1341093415#0_0" arrivalPos="30.02" arrivalSpeed="9.46" duration="51.00" routeLength="143.78" waitingTime="21.00" waitingCount="1" stopTime="0.00" timeLoss="41.87" rerouteNo="0" devices="tripinfo_flow_route_25_duration_20250327_1950.2" vType="car" speedFactor="0.87" vaporized=""/>
    <tripinfo id="flow_route_26_duration_20250327_1950.1" depart="15.00" departLane="1254771874#0_0" departPos="67.50" departSpeed="0.00" departDelay="0.00" arrival="77.00" arrivalLane="-422986370#2_0" arrivalPos="37.56" arrivalSpeed="8.97" duration="62.00" routeLength="234.66" waitingTime="21.00" waitingCount="1" stopTime="0.00" timeLoss="46.41" rerouteNo="0" devices="tripinfo_flow_route_26_duration_20250327_1950.1" vType="car" speedFactor="0.94" vaporized=""/>
    <tripinfo id="flow_route_27_duration_20250327_1950.6" depart="19.00" departLane="1254771874#0_0" departPos="152.41" departSpeed="0.00" departDelay="1.00" arrival="77.00" arrivalLane="138002006#0_1" arrivalPos="50.74" arrivalSpeed="10.82" duration="58.00" routeLength="170.22" waitingTime="28.00" waitingCount="1" stopTime="0.00" timeLoss="46.85" rerouteNo="0" devices="tripinfo_flow_route_27_duration_20250327_1950.6" vType="car" speedFactor="1.02" vaporized=""/>
    <tripinfo id="flow_route_27_duration_20250327_1950.3" depart="9.00" departLane="1254771874#0_0" departPos="60.51" departSpeed="0.00" departDelay="0.00" arrival="79.00" arrivalLane="138002006#0_1" arrivalPos="48.32" arrivalSpeed="11.47" duration="70.00" routeLength="259.70" waitingTime="28.00" waitingCount="1" stopTime="0.00" timeLoss="53.25" rerouteNo="0" devices="tripinfo_flow_route_27_duration_20250327_1950.3" vType="car" speedFactor="1.05" vaporized=""/>
    <tripinfo id="flow_route_27_duration_20250327_1950.13" depart="39.00" departLane="1254771874#0_0" departPos="223.81" departSpeed="0.00" departDelay="0.00" arrival="82.00" arrivalLane="138002006#0_1" arrivalPos="26.87" arrivalSpeed="9.18" duration="43.00" routeLength="74.96" waitingTime="22.00" waitingCount="2" stopTime="0.00" timeLoss="37.49" rerouteNo="0" devices="tripinfo_flow_route_27_duration_20250327_1950.13" vType="car" speedFactor="1.03" vaporized=""/>
    <tripinfo id="flow_route_25_duration_20250327_1950.1" depart="12.00" departLane="1254771874#0_0" departPos="7.62" departSpeed="0.00" departDelay="0.00" arrival="83.00" arrivalLane="1341093415#0_0" arrivalPos="136.26" arrivalSpeed="15.57" duration="71.00" routeLength="406.42" waitingTime="21.00" waitingCount="1" stopTime="0.00" timeLoss="45.61" rerouteNo="0" devices="tripinfo_flow_route_25_duration_20250327_1950.1" vType="car" speedFactor="0.99" vaporized=""/>
    <tripinfo id="flow_route_25_duration_20250327_1950.3" depart="36.00" departLane="1254771874#0_0" departPos="149.54" departSpeed="0.00" departDelay="0.00" arrival="83.00" arrivalLane="1341093415#0_1" arrivalPos="109.64" arrivalSpeed="14.66" duration="47.00" routeLength="237.88" waitingTime="10.00" waitingCount="1" stopTime="0.00" timeLoss="32.53" rerouteNo="0" devices="tripinfo_flow_route_25_duration_20250327_1950.3" vType="car" speedFactor="0.97" vaporized=""/>
    <tripinfo id="flow_route_27_duration_20250327_1950.5" depart="15.00" departLane="1254771874#0_0" departPos="57.04" departSpeed="0.00" departDelay="0.00" arrival="85.00" arrivalLane="138002006#0_1" arrivalPos="36.52" arrivalSpeed="10.36" duration="70.00" routeLength="251.37" waitingTime="27.00" waitingCount="2" stopTime="0.00" timeLoss="53.41" rerouteNo="0" devices="tripinfo_flow_route_27_duration_20250327_1950.5" vType="car" speedFactor="0.94" vaporized=""/>
    <tripinfo id="flow_route_26_duration_20250327_1950.2" depart="31.00" departLane="1254771874#0_0" departPos="11.97" departSpeed="0.00" departDelay="1.00" arrival="85.00" arrivalLane="-422986370#2_0" arrivalPos="101.55" arrivalSpeed="13.64" duration="54.00" routeLength="354.18" waitingTime="2.00" waitingCount="1" stopTime="0.00" timeLoss="31.57" rerouteNo="0" devices="tripinfo_flow_route_26_duration_20250327_1950.2" vType="car" speedFactor="1.15" vaporized=""/>
    <tripinfo id="flow_route_25_duration_20250327_1950.4" depart="48.00" departLane="1254771874#0_0" departPos="182.33" departSpeed="0.00" departDelay="0.00" arrival="87.00" arrivalLane="1341093415#0_0" arrivalPos="139.21" arrivalSpeed="15.99" duration="39.00" routeLength="234.66" waitingTime="2.00" waitingCount="1" stopTime="0.00" timeLoss="24.69" rerouteNo="0" devices="tripinfo_flow_route_25_duration_20250327_1950.4" vType="car" speedFactor="0.88" vaporized=""/>
    <tripinfo id="flow_route_27_duration_20250327_1950.11" depart="33.00" departLane="1254771874#0_0" departPos="173.48" departSpeed="0.00" departDelay="0.00" arrival="91.00" arrivalLane="138002006#0_1" arrivalPos="25.75" arrivalSpeed="9.69" duration="58.00" routeLength="124.15" waitingTime="21.00" waitingCount="2" stopTime="0.00" timeLoss="49.29" rerouteNo="0" devices="tripinfo_flow_route_27_duration_20250327_1950.11" vType="car" speedFactor="1.02" vaporized=""/>
    <tripinfo id="flow_route_26_duration_20250327_1950.3" depart="47.00" departLane="1254771874#0_0" departPos="25.95" departSpeed="0.00" departDelay="2.00" arrival="93.00" arrivalLane="-422986370#2_0" arrivalPos="171.84" arrivalSpeed="16.27" duration="46.00" routeLength="410.49" waitingTime="0.00" waitingCount="0" stopTime="0.00" timeLoss="20.15" rerouteNo="0" devices="tripinfo_flow_route_26_duration_20250327_1950.3" vType="car" speedFactor="1.09" vaporized=""/>
    <tripinfo id="flow_route_27_duration_20250327_1950.18" depart="54.00" departLane="1254771874#0_0" departPos="231.19" departSpeed="0.00" departDelay="0.00" arrival="93.00" arrivalLane="138002006#0_1" arrivalPos="75.05" arrivalSpeed="12.42" duration="39.00" routeLength="115.75" waitingTime="14.00" waitingCount="3" stopTime="0.00" timeLoss="31.04" rerouteNo="0" devices="tripinfo_flow_route_27_duration_20250327_1950.18" vType="car" speedFactor="1.00" vaporized=""/>
    <tripinfo id="flow_route_41_duration_20250327_1950.12" depart="43.00" departLane="1369578054_0" departPos="261.83" departSpeed="0.00" departDelay="0.65" arrival="101.00" arrivalLane="138002006#0_1" arrivalPos="40.46" arrivalSpeed="10.06" duration="58.00" routeLength="100.55" waitingTime="35.00" waitingCount="1" stopTime="0.00" timeLoss="51.66" rerouteNo="0" devices="tripinfo_flow_route_41_duration_20250327_1950.12" vType="car" speedFactor="1.04" vaporized=""/>
    <tripinfo id="flow_route_41_duration_20250327_1950.11" depart="39.00" departLane="1369578054_0" departPos="187.34" departSpeed="0.00" departDelay="0.18" arrival="102.00" arrivalLane="138002006#0_1" arrivalPos="9.30" arrivalSpeed="8.35" duration="63.00" routeLength="143.88" waitingTime="30.00" waitingCount="1" stopTime="0.00" timeLoss="53.50" rerouteNo="0" devices="tripinfo_flow_route_41_duration_20250327_1950.11" vType="car" speedFactor="0.96" vaporized=""/>
    <tripinfo id="flow_route_41_duration_20250327_1950.15" depart="53.00" departLane="1369578054_0" departPos="293.11" departSpeed="0.00" departDelay="0.07" arrival="103.00" arrivalLane="138002006#0_0" arrivalPos="59.95" arrivalSpeed="11.15" duration="50.00" routeLength="88.77" waitingTime="30.00" waitingCount="1" stopTime="0.00" timeLoss="44.32" rerouteNo="0" devices="tripinfo_flow_route_41_duration_20250327_1950.15" vType="car" speedFactor="1.10" vaporized=""/>
    <tripinfo id="flow_route_41_duration_20250327_1950.8" depart="29.00" departLane="1369578054_0" departPos="94.05" departSpeed="0.00" departDelay="0.77" arrival="107.00" arrivalLane="138002006#0_1" arrivalPos="88.08" arrivalSpeed="13.54" duration="78.00" routeLength="315.97" waitingTime="32.00" waitingCount="1" stopTime="0.00" timeLoss="58.54" rerouteNo="0" devices="tripinfo_flow_route_41_duration_20250327_1950.8" vType="car" speedFactor="1.18" vaporized=""/>
    <tripinfo id="flow_route_41_duration_20250327_1950.9" depart="34.00" departLane="1369578054_0" departPos="126.81" departSpeed="0.00" departDelay="2.24" arrival="108.00" arrivalLane="138002006#0_1" arrivalPos="64.08" arrivalSpeed="13.12" duration="74.00" routeLength="259.20" waitingTime="30.00" waitingCount="1" stopTime="0.00" timeLoss="58.23" rerouteNo="0" devices="tripinfo_flow_route_41_duration_20250327_1950.9" vType="car" speedFactor="0.99" vaporized=""/>
    <tripinfo id="flow_route_40_duration_20250327_1950.4" depart="24.00" departLane="1369578054_0" departPos="8.34" departSpeed="0.00" departDelay="0.00" arrival="109.00" arrivalLane="1341093415#0_0" arrivalPos="32.68" arrivalSpeed="10.00" duration="85.00" routeLength="335.26" waitingTime="26.00" waitingCount="1" stopTime="0.00" timeLoss="62.49" rerouteNo="0" devices="tripinfo_flow_route_40_duration_20250327_1950.4" vType="car" speedFactor="0.95" vaporized=""/>
    <tripinfo id="flow_route_40_duration_20250327_1950.7" depart="42.00" departLane="1369578054_0" departPos="212.97" departSpeed="0.00" departDelay="0.00" arrival="109.00" arrivalLane="1341093415#0_0" arrivalPos="87.82" arrivalSpeed="12.90" duration="67.00" routeLength="185.77" waitingTime="29.00" waitingCount="1" stopTime="0.00" timeLoss="54.45" rerouteNo="0" devices="tripinfo_flow_route_40_duration_20250327_1950.7" vType="car" speedFactor="1.04" vaporized=""/>
    <tripinfo id="flow_route_40_duration_20250327_1950.8" depart="48.00" departLane="1369578054_0" departPos="264.28" departSpeed="0.00" departDelay="0.00" arrival="110.00" arrivalLane="1341093415#0_0" arrivalPos="126.95" arrivalSpeed="14.06" duration="62.00" routeLength="173.58" waitingTime="29.00" waitingCount="1" stopTime="0.00" timeLoss="49.99" rerouteNo="0" devices="tripinfo_flow_route_40_duration_20250327_1950.8" vType="car" speedFactor="0.85" vaporized=""/>
    <tripinfo id="flow_route_41_duration_20250327_1950.14" depart="50.00" departLane="1369578054_0" departPos="143.83" departSpeed="0.00" departDelay="0.59" arrival="110.00" arrivalLane="138002006#0_1" arrivalPos="32.99" arrivalSpeed="12.58" duration="60.00" routeLength="211.08" waitingTime="23.00" waitingCount="1" stopTime="0.00" timeLoss="46.58" rerouteNo="0" devices="tripinfo_flow_route_41_duration_20250327_1950.14" vType="car" speedFactor="1.17" vaporized=""/>
    <tripinfo id="flow_route_40_duration_20250327_1950.5" depart="30.00" departLane="1369578054_0" departPos="54.13" departSpeed="0.00" departDelay="0.00" arrival="111.00" arrivalLane="1341093415#0_0" arrivalPos="101.09" arrivalSpeed="14.02" duration="81.00" routeLength="357.87" waitingTime="29.00" waitingCount="1" stopTime="0.00" timeLoss="58.60" rerouteNo="0" devices="tripinfo_flow_route_40_duration_20250327_1950.5" vType="car" speedFactor="1.17" vaporized=""/>
    <tripinfo id="flow_route_41_duration_20250327_1950.10" depart="37.00" departLane="1369578054_0" departPos="7.15" departSpeed="0.00" departDelay="1.71" arrival="111.00" arrivalLane="138002006#0_1" arrivalPos="73.28" arrivalSpeed="13.22" duration="74.00" routeLength="388.07" waitingTime="25.00" waitingCount="1" stopTime="0.00" timeLoss="47.72" rerouteNo="0" devices="tripinfo_flow_route_41_duration_20250327_1950.10" vType="car" speedFactor="0.90" vaporized=""/>
    <tripinfo id="flow_route_41_duration_20250327_1950.13" depart="48.00" departLane="1369578054_0" departPos="37.24" departSpeed="0.00" departDelay="2.12" arrival="112.00" arrivalLane="138002006#0_1" arrivalPos="36.49" arrivalSpeed="12.65" duration="64.00" routeLength="321.18" waitingTime="20.00" waitingCount="1" stopTime="0.00" timeLoss="41.91" rerouteNo="0" devices="tripinfo_flow_route_41_duration_20250327_1950.13" vType="car" speedFactor="0.90" vaporized=""/>
    <tripinfo id="flow_route_41_duration_20250327_1950.16" depart="59.00" departLane="1369578054_0" departPos="204.01" departSpeed="0.00" departDelay="2.54" arrival="112.00" arrivalLane="138002006#0_0" arrivalPos="38.25" arrivalSpeed="12.26" duration="53.00" routeLength="156.17" waitingTime="21.00" waitingCount="1" stopTime="0.00" timeLoss="43.11" rerouteNo="0" devices="tripinfo_flow_route_41_duration_20250327_1950.16" vType="car" speedFactor="1.14" vaporized=""/>
    <tripinfo id="flow_route_40_duration_20250327_1950.9" depart="54.00" departLane="1369578054_0" departPos="103.24" departSpeed="0.00" departDelay="0.00" arrival="113.00" arrivalLane="1341093415#0_0" arrivalPos="27.37" arrivalSpeed="9.89" duration="59.00" routeLength="235.05" waitingTime="19.00" waitingCount="1" stopTime="0.00" timeLoss="43.74" rerouteNo="0" devices="tripinfo_flow_route_40_duration_20250327_1950.9" vType="car" speedFactor="1.00" vaporized=""/>
    <tripinfo id="flow_route_27_duration_20250327_1950.9" depart="27.00" departLane="1254771874#0_0" departPos="45.75" departSpeed="0.00" departDelay="0.00" arrival="138.00" arrivalLane="138002006#0_1" arrivalPos="5.95" arrivalSpeed="7.59" duration="111.00" routeLength="232.08" waitingTime="51.00" waitingCount="2" stopTime="0.00" timeLoss="95.69" rerouteNo="0" devices="tripinfo_flow_route_27_duration_20250327_1950.9" vType="car" speedFactor="0.93" vaporized=""/>
    <tripinfo id="flow_route_27_duration_20250327_1950.7" depart="22.00" departLane="1254771874#0_0" departPos="78.68" departSpeed="0.00" departDelay="1.00" arrival="139.00" arrivalLane="138002006#0_1" arrivalPos="61.39" arrivalSpeed="10.40" duration="117.00" routeLength="254.61" waitingTime="57.00" waitingCount="3" stopTime="0.00" timeLoss="100.29" rerouteNo="0" devices="tripinfo_flow_route_27_duration_20250327_1950.7" vType="car" speedFactor="0.89" vaporized=""/>
    <tripinfo id="flow_route_27_duration_20250327_1950.12" depart="36.00" departLane="1254771874#0_0" departPos="106.64" departSpeed="0.00" departDelay="0.00" arrival="143.00" arrivalLane="138002006#0_1" arrivalPos="34.60" arrivalSpeed="10.33" duration="107.00" routeLength="199.85" waitingTime="50.00" waitingCount="2" stopTime="0.00" timeLoss="94.22" rerouteNo="0" devices="tripinfo_flow_route_27_duration_20250327_1950.12" vType="car" speedFactor="1.18" vaporized=""/>
    <tripinfo id="flow_route_27_duration_20250327_1950.8" depart="24.00" departLane="1254771874#0_0" departPos="38.81" departSpeed="0.00" departDelay="0.00" arrival="144.00" arrivalLane="138002006#0_1" arrivalPos="84.77" arrivalSpeed="12.32" duration="120.00" routeLength="317.85" waitingTime="54.00" waitingCount="2" stopTime="0.00" timeLoss="98.81" rerouteNo="0" devices="tripinfo_flow_route_27_duration_20250327_1950.8" vType="car" speedFactor="0.92" vaporized=""/>
    <tripinfo id="flow_route_27_duration_20250327_1950.14" depart="42.00" departLane="1254771874#0_0" departPos="108.66" departSpeed="0.00" departDelay="0.00" arrival="149.00" arrivalLane="138002006#0_1" arrivalPos="82.10" arrivalSpeed="13.53" duration="107.00" routeLength="245.33" waitingTime="47.00" waitingCount="2" stopTime="0.00" timeLoss="91.35" rerouteNo="0" devices="tripinfo_flow_route_27_duration_20250327_1950.14" vType="car" speedFactor="1.09" vaporized=""/>
    <tripinfo id="flow_route_27_duration_20250327_1950.10" depart="31.00" departLane="1254771874#0_0" departPos="20.45" departSpeed="0.00" departDelay="1.00" arrival="150.00" arrivalLane="138002006#0_1" arrivalPos="7.64" arrivalSpeed="9.16" duration="119.00" routeLength="259.08" waitingTime="41.00" waitingCount="4" stopTime="0.00" timeLoss="102.06" rerouteNo="0" devices="tripinfo_flow_route_27_duration_20250327_1950.10" vType="car" speedFactor="1.01" vaporized=""/>
    <tripinfo id="flow_route_27_duration_20250327_1950.17" depart="51.00" departLane="1254771874#0_0" departPos="99.86" departSpeed="0.00" departDelay="0.00" arrival="151.00" arrivalLane="138002006#0_1" arrivalPos="3.78" arrivalSpeed="9.13" duration="100.00" routeLength="175.81" waitingTime="39.00" waitingCount="2" stopTime="0.00" timeLoss="88.28" rerouteNo="0" devices="tripinfo_flow_route_27_duration_20250327_1950.17" vType="car" speedFactor="1.02" vaporized=""/>
    <tripinfo id="flow_route_27_duration_20250327_1950.15" depart="47.00" departLane="1254771874#0_0" departPos="119.20" departSpeed="0.00" departDelay="2.00" arrival="152.00" arrivalLane="138002006#0_1" arrivalPos="86.24" arrivalSpeed="14.15" duration="105.00" routeLength="238.93" waitingTime="44.00" waitingCount="2" stopTime="0.00" timeLoss="89.61" rerouteNo="0" devices="tripinfo_flow_route_27_duration_20250327_1950.15" vType="car" speedFactor="1.00" vaporized=""/>
    <tripinfo id="flow_route_27_duration_20250327_1950.19" depart="57.00" departLane="1254771874#0_0" departPos="150.58" departSpeed="0.00" departDelay="0.00" arrival="153.00" arrivalLane="138002006#0_1" arrivalPos="58.88" arrivalSpeed="12.46" duration="96.00" routeLength="180.19" waitingTime="42.00" waitingCount="2" stopTime="0.00" timeLoss="83.08" rerouteNo="0" devices="tripinfo_flow_route_27_duration_20250327_1950.19" vType="car" speedFactor="0.90" vaporized=""/>
    <tripinfo id="flow_route_27_duration_20250327_1950.16" depart="48.00" departLane="1254771874#0_0" departPos="36.08" departSpeed="0.00" departDelay="0.00" arrival="199.00" arrivalLane="138002006#0_1" arrivalPos="24.96" arrivalSpeed="8.08" duration="151.00" routeLength="260.77" waitingTime="75.00" waitingCount="3" stopTime="0.00" timeLoss="133.64" rerouteNo="0" devices="tripinfo_flow_route_27_duration_20250327_1950.16" vType="car" speedFactor="0.85" vaporized=""/>
</tripinfos>
