<?xml version="1.0" encoding="UTF-8"?>

<!-- generated on 2025-05-06 21:08:12 by Eclipse SUMO sumo Version 1.20.0
<configuration xmlns:xsi="http://www.w3.org/2001/XMLSchema-instance" xsi:noNamespaceSchemaLocation="http://sumo.dlr.de/xsd/sumoConfiguration.xsd">

    <input>
        <net-file value="osm.net.xml"/>
        <route-files value="xml/route_rl_632031937_3.rou.xml"/>
    </input>

    <output>
        <tripinfo-output value="xml/tripinfo_rl_632031937_3.xml"/>
    </output>

    <traci_server>
        <remote-port value="52255"/>
    </traci_server>

</configuration>
-->

<tripinfos xmlns:xsi="http://www.w3.org/2001/XMLSchema-instance" xsi:noNamespaceSchemaLocation="http://sumo.dlr.de/xsd/tripinfo_file.xsd">
    <tripinfo id="flow_route_66_duration_20250327_1930.0" depart="0.00" departLane="-138002002#2_0" departPos="85.87" departSpeed="0.00" departDelay="0.00" arrival="19.00" arrivalLane="-138002006#3_1" arrivalPos="3.87" arrivalSpeed="12.70" duration="19.00" routeLength="121.39" waitingTime="0.00" waitingCount="0" stopTime="0.00" timeLoss="10.12" rerouteNo="0" devices="tripinfo_flow_route_66_duration_20250327_1930.0" vType="car" speedFactor="0.83" vaporized=""/>
    <tripinfo id="flow_route_53_duration_20250327_1930.1" depart="4.00" departLane="138002006#0_0" departPos="28.58" departSpeed="0.00" departDelay="0.84" arrival="22.00" arrivalLane="1369578052#0_1" arrivalPos="48.76" arrivalSpeed="13.35" duration="18.00" routeLength="128.10" waitingTime="0.00" waitingCount="0" stopTime="0.00" timeLoss="9.25" rerouteNo="0" devices="tripinfo_flow_route_53_duration_20250327_1930.1" vType="car" speedFactor="0.89" vaporized=""/>
    <tripinfo id="flow_route_53_duration_20250327_1930.0" depart="0.00" departLane="138002006#0_0" departPos="48.40" departSpeed="0.00" departDelay="0.00" arrival="23.00" arrivalLane="1369578052#0_0" arrivalPos="131.33" arrivalSpeed="15.64" duration="23.00" routeLength="190.85" waitingTime="0.00" waitingCount="0" stopTime="0.00" timeLoss="10.09" rerouteNo="0" devices="tripinfo_flow_route_53_duration_20250327_1930.0" vType="car" speedFactor="0.94" vaporized=""/>
    <tripinfo id="flow_route_53_duration_20250327_1930.2" depart="8.00" departLane="138002006#0_0" departPos="48.32" departSpeed="0.00" departDelay="1.69" arrival="25.00" arrivalLane="1369578052#0_0" arrivalPos="56.60" arrivalSpeed="13.50" duration="17.00" routeLength="116.20" waitingTime="0.00" waitingCount="0" stopTime="0.00" timeLoss="9.51" rerouteNo="0" devices="tripinfo_flow_route_53_duration_20250327_1930.2" vType="car" speedFactor="1.09" vaporized=""/>
    <tripinfo id="flow_route_52_duration_20250327_1930.0" depart="0.00" departLane="138002006#0_0" departPos="21.97" departSpeed="0.00" departDelay="0.00" arrival="30.00" arrivalLane="380351865#0_1" arrivalPos="15.21" arrivalSpeed="11.55" duration="30.00" routeLength="234.80" waitingTime="0.00" waitingCount="0" stopTime="0.00" timeLoss="10.25" rerouteNo="0" devices="tripinfo_flow_route_52_duration_20250327_1930.0" vType="car" speedFactor="1.06" vaporized=""/>
    <tripinfo id="flow_route_67_duration_20250327_1930.0" depart="1.00" departLane="-138002002#2_0" departPos="104.31" departSpeed="0.00" departDelay="1.00" arrival="32.00" arrivalLane="380351865#0_0" arrivalPos="12.69" arrivalSpeed="11.37" duration="31.00" routeLength="241.42" waitingTime="0.00" waitingCount="0" stopTime="0.00" timeLoss="11.25" rerouteNo="0" devices="tripinfo_flow_route_67_duration_20250327_1930.0" vType="car" speedFactor="1.05" vaporized=""/>
    <tripinfo id="flow_route_66_duration_20250327_1930.1" depart="8.00" departLane="-138002002#2_0" departPos="5.97" departSpeed="0.00" departDelay="0.50" arrival="35.00" arrivalLane="-138002006#3_1" arrivalPos="78.80" arrivalSpeed="16.45" duration="27.00" routeLength="276.22" waitingTime="0.00" waitingCount="0" stopTime="0.00" timeLoss="10.34" rerouteNo="0" devices="tripinfo_flow_route_66_duration_20250327_1930.1" vType="car" speedFactor="1.05" vaporized=""/>
    <tripinfo id="flow_route_66_duration_20250327_1930.2" depart="15.00" departLane="-138002002#2_0" departPos="123.08" departSpeed="0.00" departDelay="0.00" arrival="36.00" arrivalLane="-138002006#3_0" arrivalPos="72.06" arrivalSpeed="15.06" duration="21.00" routeLength="152.38" waitingTime="0.00" waitingCount="0" stopTime="0.00" timeLoss="11.40" rerouteNo="0" devices="tripinfo_flow_route_66_duration_20250327_1930.2" vType="car" speedFactor="1.16" vaporized=""/>
    <tripinfo id="flow_route_53_duration_20250327_1930.4" depart="17.00" departLane="138002006#0_0" departPos="43.73" departSpeed="0.00" departDelay="4.37" arrival="38.00" arrivalLane="1369578052#0_0" arrivalPos="75.82" arrivalSpeed="15.07" duration="21.00" routeLength="140.02" waitingTime="0.00" waitingCount="0" stopTime="0.00" timeLoss="11.54" rerouteNo="0" devices="tripinfo_flow_route_53_duration_20250327_1930.4" vType="car" speedFactor="0.94" vaporized=""/>
    <tripinfo id="flow_route_53_duration_20250327_1930.3" depart="12.00" departLane="138002006#0_0" departPos="11.48" departSpeed="0.00" departDelay="2.53" arrival="39.00" arrivalLane="1369578052#0_1" arrivalPos="140.92" arrivalSpeed="16.43" duration="27.00" routeLength="237.36" waitingTime="0.00" waitingCount="0" stopTime="0.00" timeLoss="11.78" rerouteNo="0" devices="tripinfo_flow_route_53_duration_20250327_1930.3" vType="car" speedFactor="0.99" vaporized=""/>
    <tripinfo id="flow_route_53_duration_20250327_1930.5" depart="17.00" departLane="138002006#0_0" departPos="51.49" departSpeed="0.00" departDelay="1.22" arrival="39.00" arrivalLane="1369578052#0_0" arrivalPos="131.90" arrivalSpeed="16.13" duration="22.00" routeLength="188.33" waitingTime="0.00" waitingCount="0" stopTime="0.00" timeLoss="10.34" rerouteNo="0" devices="tripinfo_flow_route_53_duration_20250327_1930.5" vType="car" speedFactor="1.02" vaporized=""/>
    <tripinfo id="flow_route_67_duration_20250327_1930.4" depart="17.00" departLane="-138002002#2_0" departPos="175.90" departSpeed="0.00" departDelay="1.00" arrival="39.00" arrivalLane="380351865#0_0" arrivalPos="11.81" arrivalSpeed="10.79" duration="22.00" routeLength="168.95" waitingTime="0.00" waitingCount="0" stopTime="0.00" timeLoss="5.58" rerouteNo="0" devices="tripinfo_flow_route_67_duration_20250327_1930.4" vType="car" speedFactor="0.97" vaporized=""/>
    <tripinfo id="flow_route_53_duration_20250327_1930.6" depart="20.00" departLane="138002006#0_0" departPos="5.95" departSpeed="0.00" departDelay="1.06" arrival="44.00" arrivalLane="1369578052#0_1" arrivalPos="118.27" arrivalSpeed="14.51" duration="24.00" routeLength="220.25" waitingTime="0.00" waitingCount="0" stopTime="0.00" timeLoss="8.35" rerouteNo="0" devices="tripinfo_flow_route_53_duration_20250327_1930.6" vType="car" speedFactor="0.89" vaporized=""/>
    <tripinfo id="flow_route_53_duration_20250327_1930.7" depart="25.00" departLane="138002006#0_0" departPos="34.60" departSpeed="0.00" departDelay="2.90" arrival="47.00" arrivalLane="1369578052#0_1" arrivalPos="104.54" arrivalSpeed="15.12" duration="22.00" routeLength="177.86" waitingTime="0.00" waitingCount="0" stopTime="0.00" timeLoss="10.33" rerouteNo="0" devices="tripinfo_flow_route_53_duration_20250327_1930.7" vType="car" speedFactor="0.92" vaporized=""/>
    <tripinfo id="flow_route_67_duration_20250327_1930.3" depart="14.00" departLane="-138002002#2_0" departPos="105.30" departSpeed="0.00" departDelay="2.00" arrival="48.00" arrivalLane="380351865#0_0" arrivalPos="5.66" arrivalSpeed="9.29" duration="34.00" routeLength="233.41" waitingTime="0.00" waitingCount="0" stopTime="0.00" timeLoss="11.78" rerouteNo="0" devices="tripinfo_flow_route_67_duration_20250327_1930.3" vType="car" speedFactor="0.88" vaporized=""/>
    <tripinfo id="flow_route_67_duration_20250327_1930.2" depart="8.00" departLane="-138002002#2_0" departPos="55.59" departSpeed="0.00" departDelay="0.00" arrival="50.00" arrivalLane="380351865#0_0" arrivalPos="6.77" arrivalSpeed="11.10" duration="42.00" routeLength="284.23" waitingTime="0.00" waitingCount="0" stopTime="0.00" timeLoss="20.74" rerouteNo="0" devices="tripinfo_flow_route_67_duration_20250327_1930.2" vType="car" speedFactor="1.12" vaporized=""/>
    <tripinfo id="flow_route_53_duration_20250327_1930.11" depart="35.00" departLane="138002006#0_0" departPos="63.32" departSpeed="0.00" departDelay="0.27" arrival="51.00" arrivalLane="1369578052#0_0" arrivalPos="51.83" arrivalSpeed="12.33" duration="16.00" routeLength="96.44" waitingTime="0.00" waitingCount="0" stopTime="0.00" timeLoss="8.84" rerouteNo="0" devices="tripinfo_flow_route_53_duration_20250327_1930.11" vType="car" speedFactor="0.90" vaporized=""/>
    <tripinfo id="flow_route_53_duration_20250327_1930.8" depart="28.00" departLane="138002006#0_0" departPos="26.87" departSpeed="0.00" departDelay="2.74" arrival="53.00" arrivalLane="1369578052#0_1" arrivalPos="152.17" arrivalSpeed="16.49" duration="25.00" routeLength="233.22" waitingTime="0.00" waitingCount="0" stopTime="0.00" timeLoss="10.87" rerouteNo="0" devices="tripinfo_flow_route_53_duration_20250327_1930.8" vType="car" speedFactor="1.18" vaporized=""/>
    <tripinfo id="flow_route_53_duration_20250327_1930.9" depart="30.00" departLane="138002006#0_0" departPos="63.09" departSpeed="0.00" departDelay="1.59" arrival="53.00" arrivalLane="1369578052#0_0" arrivalPos="161.39" arrivalSpeed="16.31" duration="23.00" routeLength="206.21" waitingTime="0.00" waitingCount="0" stopTime="0.00" timeLoss="10.09" rerouteNo="0" devices="tripinfo_flow_route_53_duration_20250327_1930.9" vType="car" speedFactor="1.17" vaporized=""/>
    <tripinfo id="flow_route_53_duration_20250327_1930.12" depart="38.00" departLane="138002006#0_0" departPos="59.95" departSpeed="0.00" departDelay="0.12" arrival="58.00" arrivalLane="1369578052#0_0" arrivalPos="88.48" arrivalSpeed="13.70" duration="20.00" routeLength="136.45" waitingTime="0.00" waitingCount="0" stopTime="0.00" timeLoss="11.26" rerouteNo="0" devices="tripinfo_flow_route_53_duration_20250327_1930.12" vType="car" speedFactor="1.09" vaporized=""/>
    <tripinfo id="flow_route_53_duration_20250327_1930.10" depart="35.00" departLane="138002006#0_0" departPos="11.03" departSpeed="0.00" departDelay="3.43" arrival="59.00" arrivalLane="1369578052#0_1" arrivalPos="105.74" arrivalSpeed="16.13" duration="24.00" routeLength="202.63" waitingTime="0.00" waitingCount="0" stopTime="0.00" timeLoss="10.65" rerouteNo="0" devices="tripinfo_flow_route_53_duration_20250327_1930.10" vType="car" speedFactor="0.97" vaporized=""/>
    <tripinfo id="flow_route_53_duration_20250327_1930.13" depart="43.00" departLane="138002006#0_0" departPos="60.44" departSpeed="0.00" departDelay="1.96" arrival="61.00" arrivalLane="1369578052#0_0" arrivalPos="79.42" arrivalSpeed="13.37" duration="18.00" routeLength="126.90" waitingTime="0.00" waitingCount="0" stopTime="0.00" timeLoss="10.02" rerouteNo="0" devices="tripinfo_flow_route_53_duration_20250327_1930.13" vType="car" speedFactor="1.00" vaporized=""/>
    <tripinfo id="flow_route_53_duration_20250327_1930.16" depart="51.00" departLane="138002006#0_0" departPos="36.56" departSpeed="0.00" departDelay="0.49" arrival="65.00" arrivalLane="1369578052#0_0" arrivalPos="2.15" arrivalSpeed="10.64" duration="14.00" routeLength="73.51" waitingTime="0.00" waitingCount="0" stopTime="0.00" timeLoss="9.35" rerouteNo="0" devices="tripinfo_flow_route_53_duration_20250327_1930.16" vType="car" speedFactor="1.00" vaporized=""/>
    <tripinfo id="flow_route_53_duration_20250327_1930.14" depart="45.00" departLane="138002006#0_0" departPos="48.76" departSpeed="0.00" departDelay="0.80" arrival="67.00" arrivalLane="1369578052#0_0" arrivalPos="118.18" arrivalSpeed="13.85" duration="22.00" routeLength="177.34" waitingTime="0.00" waitingCount="0" stopTime="0.00" timeLoss="9.08" rerouteNo="0" devices="tripinfo_flow_route_53_duration_20250327_1930.14" vType="car" speedFactor="0.85" vaporized=""/>
    <tripinfo id="flow_route_53_duration_20250327_1930.15" depart="48.00" departLane="138002006#0_0" departPos="41.75" departSpeed="0.00" departDelay="0.65" arrival="73.00" arrivalLane="1369578052#0_0" arrivalPos="166.52" arrivalSpeed="16.32" duration="25.00" routeLength="232.69" waitingTime="0.00" waitingCount="0" stopTime="0.00" timeLoss="10.38" rerouteNo="0" devices="tripinfo_flow_route_53_duration_20250327_1930.15" vType="car" speedFactor="1.02" vaporized=""/>
    <tripinfo id="flow_route_58_duration_20250327_1930.0" depart="0.00" departLane="186407685_0" departPos="1.07" departSpeed="0.00" departDelay="0.00" arrival="84.00" arrivalLane="-138002006#3_1" arrivalPos="43.63" arrivalSpeed="9.78" duration="84.00" routeLength="235.82" waitingTime="49.00" waitingCount="1" stopTime="0.00" timeLoss="69.05" rerouteNo="0" devices="tripinfo_flow_route_58_duration_20250327_1930.0" vType="car" speedFactor="1.08" vaporized=""/>
    <tripinfo id="flow_route_59_duration_20250327_1930.1" depart="5.00" departLane="186407685_0" departPos="90.83" departSpeed="0.00" departDelay="1.84" arrival="85.00" arrivalLane="1369578052#0_0" arrivalPos="11.11" arrivalSpeed="7.00" duration="80.00" routeLength="106.39" waitingTime="56.00" waitingCount="1" stopTime="0.00" timeLoss="72.82" rerouteNo="0" devices="tripinfo_flow_route_59_duration_20250327_1930.1" vType="car" speedFactor="0.94" vaporized=""/>
    <tripinfo id="flow_route_59_duration_20250327_1930.0" depart="0.00" departLane="186407685_0" departPos="119.17" departSpeed="0.00" departDelay="0.00" arrival="92.00" arrivalLane="1369578052#0_0" arrivalPos="108.75" arrivalSpeed="13.74" duration="92.00" routeLength="175.69" waitingTime="60.00" waitingCount="1" stopTime="0.00" timeLoss="80.26" rerouteNo="0" devices="tripinfo_flow_route_59_duration_20250327_1930.0" vType="car" speedFactor="1.03" vaporized=""/>
    <tripinfo id="flow_route_59_duration_20250327_1930.7" depart="24.00" departLane="186407685_0" departPos="120.17" departSpeed="0.00" departDelay="1.90" arrival="93.00" arrivalLane="1369578052#0_0" arrivalPos="38.19" arrivalSpeed="9.18" duration="69.00" routeLength="104.12" waitingTime="43.00" waitingCount="1" stopTime="0.00" timeLoss="61.84" rerouteNo="0" devices="tripinfo_flow_route_59_duration_20250327_1930.7" vType="car" speedFactor="0.95" vaporized=""/>
    <tripinfo id="flow_route_57_duration_20250327_1930.0" depart="0.00" departLane="186407685_0" departPos="131.94" departSpeed="0.00" departDelay="0.00" arrival="94.00" arrivalLane="380351865#0_0" arrivalPos="0.78" arrivalSpeed="10.78" duration="94.00" routeLength="205.45" waitingTime="60.00" waitingCount="1" stopTime="0.00" timeLoss="76.70" rerouteNo="0" devices="tripinfo_flow_route_57_duration_20250327_1930.0" vType="car" speedFactor="1.01" vaporized=""/>
    <tripinfo id="flow_route_59_duration_20250327_1930.2" depart="8.00" departLane="186407685_0" departPos="41.92" departSpeed="0.00" departDelay="1.69" arrival="97.00" arrivalLane="1369578052#0_0" arrivalPos="116.77" arrivalSpeed="14.01" duration="89.00" routeLength="260.96" waitingTime="49.00" waitingCount="1" stopTime="0.00" timeLoss="71.91" rerouteNo="0" devices="tripinfo_flow_route_59_duration_20250327_1930.2" vType="car" speedFactor="1.03" vaporized=""/>
    <tripinfo id="flow_route_59_duration_20250327_1930.3" depart="10.00" departLane="186407685_0" departPos="5.28" departSpeed="0.00" departDelay="0.53" arrival="97.00" arrivalLane="1369578052#0_0" arrivalPos="29.33" arrivalSpeed="8.71" duration="87.00" routeLength="210.16" waitingTime="41.00" waitingCount="1" stopTime="0.00" timeLoss="73.42" rerouteNo="0" devices="tripinfo_flow_route_59_duration_20250327_1930.3" vType="car" speedFactor="0.93" vaporized=""/>
    <tripinfo id="flow_route_59_duration_20250327_1930.4" depart="13.00" departLane="186407685_0" departPos="29.74" departSpeed="0.00" departDelay="0.37" arrival="107.00" arrivalLane="1369578052#0_0" arrivalPos="177.79" arrivalSpeed="15.11" duration="94.00" routeLength="334.16" waitingTime="43.00" waitingCount="1" stopTime="0.00" timeLoss="71.38" rerouteNo="0" devices="tripinfo_flow_route_59_duration_20250327_1930.4" vType="car" speedFactor="0.94" vaporized=""/>
    <tripinfo id="flow_route_59_duration_20250327_1930.6" depart="24.00" departLane="186407685_0" departPos="51.36" departSpeed="0.00" departDelay="5.06" arrival="107.00" arrivalLane="1369578052#0_0" arrivalPos="27.99" arrivalSpeed="7.98" duration="83.00" routeLength="162.74" waitingTime="39.00" waitingCount="1" stopTime="0.00" timeLoss="71.47" rerouteNo="0" devices="tripinfo_flow_route_59_duration_20250327_1930.6" vType="car" speedFactor="0.83" vaporized=""/>
    <tripinfo id="flow_route_59_duration_20250327_1930.9" depart="29.00" departLane="186407685_0" departPos="87.24" departSpeed="0.00" departDelay="0.59" arrival="109.00" arrivalLane="1369578052#0_0" arrivalPos="115.25" arrivalSpeed="14.10" duration="80.00" routeLength="214.12" waitingTime="41.00" waitingCount="1" stopTime="0.00" timeLoss="66.31" rerouteNo="0" devices="tripinfo_flow_route_59_duration_20250327_1930.9" vType="car" speedFactor="0.99" vaporized=""/>
    <tripinfo id="flow_route_59_duration_20250327_1930.12" depart="40.00" departLane="186407685_0" departPos="61.01" departSpeed="0.00" departDelay="2.12" arrival="109.00" arrivalLane="1369578052#0_0" arrivalPos="7.85" arrivalSpeed="7.16" duration="69.00" routeLength="132.95" waitingTime="37.00" waitingCount="1" stopTime="0.00" timeLoss="59.70" rerouteNo="0" devices="tripinfo_flow_route_59_duration_20250327_1930.12" vType="car" speedFactor="1.04" vaporized=""/>
    <tripinfo id="flow_route_59_duration_20250327_1930.8" depart="26.00" departLane="186407685_0" departPos="64.66" departSpeed="0.00" departDelay="0.74" arrival="110.00" arrivalLane="1369578052#0_0" arrivalPos="107.84" arrivalSpeed="13.93" duration="84.00" routeLength="229.28" waitingTime="40.00" waitingCount="1" stopTime="0.00" timeLoss="69.62" rerouteNo="0" devices="tripinfo_flow_route_59_duration_20250327_1930.8" vType="car" speedFactor="1.15" vaporized=""/>
    <tripinfo id="flow_route_59_duration_20250327_1930.10" depart="33.00" departLane="186407685_0" departPos="117.19" departSpeed="0.00" departDelay="1.43" arrival="111.00" arrivalLane="1369578052#0_0" arrivalPos="179.07" arrivalSpeed="16.60" duration="78.00" routeLength="248.00" waitingTime="42.00" waitingCount="1" stopTime="0.00" timeLoss="61.20" rerouteNo="0" devices="tripinfo_flow_route_59_duration_20250327_1930.10" vType="car" speedFactor="1.18" vaporized=""/>
    <tripinfo id="flow_route_59_duration_20250327_1930.5" depart="19.00" departLane="186407685_0" departPos="4.93" departSpeed="0.00" departDelay="3.22" arrival="117.00" arrivalLane="1369578052#0_0" arrivalPos="109.90" arrivalSpeed="13.95" duration="98.00" routeLength="291.08" waitingTime="41.00" waitingCount="1" stopTime="0.00" timeLoss="78.88" rerouteNo="0" devices="tripinfo_flow_route_59_duration_20250327_1930.5" vType="car" speedFactor="1.01" vaporized=""/>
    <tripinfo id="flow_route_66_duration_20250327_1930.3" depart="24.00" departLane="-138002002#2_0" departPos="77.96" departSpeed="0.00" departDelay="1.50" arrival="118.00" arrivalLane="-138002006#3_1" arrivalPos="16.04" arrivalSpeed="7.59" duration="94.00" routeLength="141.47" waitingTime="66.00" waitingCount="1" stopTime="0.00" timeLoss="85.32" rerouteNo="0" devices="tripinfo_flow_route_66_duration_20250327_1930.3" vType="car" speedFactor="1.13" vaporized=""/>
    <tripinfo id="flow_route_66_duration_20250327_1930.5" depart="38.00" departLane="-138002002#2_0" departPos="155.75" departSpeed="0.00" departDelay="0.50" arrival="123.00" arrivalLane="-138002006#3_1" arrivalPos="34.68" arrivalSpeed="10.10" duration="85.00" routeLength="82.33" waitingTime="65.00" waitingCount="1" stopTime="0.00" timeLoss="79.49" rerouteNo="0" devices="tripinfo_flow_route_66_duration_20250327_1930.5" vType="car" speedFactor="1.04" vaporized=""/>
    <tripinfo id="flow_route_66_duration_20250327_1930.4" depart="32.00" departLane="-138002002#2_0" departPos="75.72" departSpeed="0.00" departDelay="2.00" arrival="125.00" arrivalLane="-138002006#3_1" arrivalPos="37.74" arrivalSpeed="10.44" duration="93.00" routeLength="165.41" waitingTime="61.00" waitingCount="1" stopTime="0.00" timeLoss="82.91" rerouteNo="0" devices="tripinfo_flow_route_66_duration_20250327_1930.4" vType="car" speedFactor="1.02" vaporized=""/>
    <tripinfo id="flow_route_53_duration_20250327_1930.17" depart="57.00" departLane="138002006#0_0" departPos="10.18" departSpeed="0.00" departDelay="3.33" arrival="126.00" arrivalLane="1369578052#0_0" arrivalPos="85.32" arrivalSpeed="12.93" duration="69.00" routeLength="183.07" waitingTime="36.00" waitingCount="1" stopTime="0.00" timeLoss="56.91" rerouteNo="0" devices="tripinfo_flow_route_53_duration_20250327_1930.17" vType="car" speedFactor="0.97" vaporized=""/>
    <tripinfo id="flow_route_53_duration_20250327_1930.18" depart="57.00" departLane="138002006#0_0" departPos="20.06" departSpeed="0.00" departDelay="0.17" arrival="129.00" arrivalLane="1369578052#0_0" arrivalPos="106.83" arrivalSpeed="13.26" duration="72.00" routeLength="194.69" waitingTime="37.00" waitingCount="1" stopTime="0.00" timeLoss="59.77" rerouteNo="0" devices="tripinfo_flow_route_53_duration_20250327_1930.18" vType="car" speedFactor="1.02" vaporized=""/>
    <tripinfo id="flow_route_66_duration_20250327_1930.6" depart="49.00" departLane="-138002002#2_0" departPos="0.16" departSpeed="0.00" departDelay="4.00" arrival="131.00" arrivalLane="-138002006#3_1" arrivalPos="83.88" arrivalSpeed="14.34" duration="82.00" routeLength="287.11" waitingTime="40.00" waitingCount="1" stopTime="0.00" timeLoss="64.12" rerouteNo="0" devices="tripinfo_flow_route_66_duration_20250327_1930.6" vType="car" speedFactor="1.17" vaporized=""/>
    <tripinfo id="flow_route_67_duration_20250327_1930.1" depart="4.00" departLane="-138002002#2_0" departPos="8.51" departSpeed="0.00" departDelay="0.00" arrival="134.00" arrivalLane="380351865#0_0" arrivalPos="14.95" arrivalSpeed="9.32" duration="130.00" routeLength="339.49" waitingTime="74.00" waitingCount="1" stopTime="0.00" timeLoss="99.20" rerouteNo="0" devices="tripinfo_flow_route_67_duration_20250327_1930.1" vType="car" speedFactor="0.86" vaporized=""/>
    <tripinfo id="flow_route_66_duration_20250327_1930.7" depart="54.00" departLane="-138002002#2_0" departPos="28.25" departSpeed="0.00" departDelay="1.50" arrival="134.00" arrivalLane="-138002006#3_1" arrivalPos="88.49" arrivalSpeed="14.02" duration="80.00" routeLength="263.63" waitingTime="38.00" waitingCount="1" stopTime="0.00" timeLoss="63.97" rerouteNo="0" devices="tripinfo_flow_route_66_duration_20250327_1930.7" vType="car" speedFactor="1.02" vaporized=""/>
    <tripinfo id="flow_route_67_duration_20250327_1930.6" depart="25.00" departLane="-138002002#2_0" departPos="94.47" departSpeed="0.00" departDelay="1.00" arrival="135.00" arrivalLane="380351865#0_0" arrivalPos="6.01" arrivalSpeed="9.50" duration="110.00" routeLength="244.59" waitingTime="70.00" waitingCount="1" stopTime="0.00" timeLoss="88.01" rerouteNo="0" devices="tripinfo_flow_route_67_duration_20250327_1930.6" vType="car" speedFactor="0.93" vaporized=""/>
    <tripinfo id="flow_route_67_duration_20250327_1930.5" depart="21.00" departLane="-138002002#2_0" departPos="62.45" departSpeed="0.00" departDelay="1.00" arrival="138.00" arrivalLane="380351865#0_0" arrivalPos="15.84" arrivalSpeed="9.48" duration="117.00" routeLength="286.44" waitingTime="65.00" waitingCount="1" stopTime="0.00" timeLoss="90.00" rerouteNo="0" devices="tripinfo_flow_route_67_duration_20250327_1930.5" vType="car" speedFactor="0.87" vaporized=""/>
    <tripinfo id="flow_route_67_duration_20250327_1930.11" depart="44.00" departLane="-138002002#2_0" departPos="157.79" departSpeed="0.00" departDelay="0.00" arrival="139.00" arrivalLane="380351865#0_0" arrivalPos="9.79" arrivalSpeed="9.28" duration="95.00" routeLength="185.05" waitingTime="65.00" waitingCount="1" stopTime="0.00" timeLoss="75.86" rerouteNo="0" devices="tripinfo_flow_route_67_duration_20250327_1930.11" vType="car" speedFactor="0.88" vaporized=""/>
    <tripinfo id="flow_route_67_duration_20250327_1930.10" depart="40.00" departLane="-138002002#2_0" departPos="122.19" departSpeed="0.00" departDelay="0.00" arrival="141.00" arrivalLane="380351865#0_0" arrivalPos="15.44" arrivalSpeed="11.28" duration="101.00" routeLength="226.30" waitingTime="61.00" waitingCount="1" stopTime="0.00" timeLoss="82.82" rerouteNo="0" devices="tripinfo_flow_route_67_duration_20250327_1930.10" vType="car" speedFactor="1.09" vaporized=""/>
    <tripinfo id="flow_route_67_duration_20250327_1930.7" depart="28.00" departLane="-138002002#2_0" departPos="19.29" departSpeed="0.00" departDelay="0.00" arrival="143.00" arrivalLane="380351865#0_0" arrivalPos="0.41" arrivalSpeed="10.44" duration="115.00" routeLength="314.17" waitingTime="61.00" waitingCount="1" stopTime="0.00" timeLoss="90.98" rerouteNo="0" devices="tripinfo_flow_route_67_duration_20250327_1930.7" vType="car" speedFactor="1.01" vaporized=""/>
    <tripinfo id="flow_route_67_duration_20250327_1930.9" depart="36.00" departLane="-138002002#2_0" departPos="68.45" departSpeed="0.00" departDelay="0.00" arrival="143.00" arrivalLane="380351865#0_0" arrivalPos="15.06" arrivalSpeed="10.63" duration="107.00" routeLength="279.65" waitingTime="61.00" waitingCount="1" stopTime="0.00" timeLoss="83.57" rerouteNo="0" devices="tripinfo_flow_route_67_duration_20250327_1930.9" vType="car" speedFactor="0.96" vaporized=""/>
    <tripinfo id="flow_route_67_duration_20250327_1930.8" depart="32.00" departLane="-138002002#2_0" departPos="18.70" departSpeed="0.00" departDelay="0.00" arrival="145.00" arrivalLane="380351865#0_0" arrivalPos="5.06" arrivalSpeed="12.10" duration="113.00" routeLength="319.41" waitingTime="61.00" waitingCount="1" stopTime="0.00" timeLoss="89.67" rerouteNo="0" devices="tripinfo_flow_route_67_duration_20250327_1930.8" vType="car" speedFactor="1.10" vaporized=""/>
    <tripinfo id="flow_route_67_duration_20250327_1930.12" depart="53.00" departLane="-138002002#2_0" departPos="89.79" departSpeed="0.00" departDelay="5.00" arrival="148.00" arrivalLane="380351865#0_0" arrivalPos="5.90" arrivalSpeed="10.92" duration="95.00" routeLength="249.16" waitingTime="54.00" waitingCount="1" stopTime="0.00" timeLoss="74.59" rerouteNo="0" devices="tripinfo_flow_route_67_duration_20250327_1930.12" vType="car" speedFactor="1.00" vaporized=""/>
    <tripinfo id="flow_route_67_duration_20250327_1930.13" depart="54.00" departLane="-138002002#2_0" departPos="38.22" departSpeed="0.00" departDelay="2.00" arrival="150.00" arrivalLane="380351865#0_0" arrivalPos="14.53" arrivalSpeed="12.29" duration="96.00" routeLength="309.36" waitingTime="50.00" waitingCount="1" stopTime="0.00" timeLoss="73.90" rerouteNo="0" devices="tripinfo_flow_route_67_duration_20250327_1930.13" vType="car" speedFactor="1.14" vaporized=""/>
    <tripinfo id="flow_route_67_duration_20250327_1930.14" depart="57.00" departLane="-138002002#2_0" departPos="18.00" departSpeed="0.00" departDelay="1.00" arrival="151.00" arrivalLane="380351865#0_0" arrivalPos="7.59" arrivalSpeed="11.86" duration="94.00" routeLength="322.64" waitingTime="47.00" waitingCount="1" stopTime="0.00" timeLoss="71.05" rerouteNo="0" devices="tripinfo_flow_route_67_duration_20250327_1930.14" vType="car" speedFactor="1.12" vaporized=""/>
    <tripinfo id="flow_route_59_duration_20250327_1930.15" depart="48.00" departLane="186407685_0" departPos="60.00" departSpeed="0.00" departDelay="0.65" arrival="195.00" arrivalLane="1369578052#0_0" arrivalPos="30.88" arrivalSpeed="8.49" duration="147.00" routeLength="156.98" waitingTime="105.00" waitingCount="2" stopTime="0.00" timeLoss="136.52" rerouteNo="0" devices="tripinfo_flow_route_59_duration_20250327_1930.15" vType="car" speedFactor="1.10" vaporized=""/>
    <tripinfo id="flow_route_59_duration_20250327_1930.11" depart="35.00" departLane="186407685_0" departPos="24.99" departSpeed="0.00" departDelay="0.27" arrival="202.00" arrivalLane="1369578052#0_0" arrivalPos="131.28" arrivalSpeed="14.57" duration="167.00" routeLength="292.40" waitingTime="110.00" waitingCount="2" stopTime="0.00" timeLoss="148.13" rerouteNo="0" devices="tripinfo_flow_route_59_duration_20250327_1930.11" vType="car" speedFactor="1.03" vaporized=""/>
    <tripinfo id="flow_route_59_duration_20250327_1930.13" depart="44.00" departLane="186407685_0" departPos="18.22" departSpeed="0.00" departDelay="2.96" arrival="204.00" arrivalLane="1369578052#0_0" arrivalPos="108.59" arrivalSpeed="13.62" duration="160.00" routeLength="276.48" waitingTime="104.00" waitingCount="2" stopTime="0.00" timeLoss="141.38" rerouteNo="0" devices="tripinfo_flow_route_59_duration_20250327_1930.13" vType="car" speedFactor="0.90" vaporized=""/>
    <tripinfo id="flow_route_59_duration_20250327_1930.18" depart="71.00" departLane="186407685_0" departPos="14.98" departSpeed="0.00" departDelay="14.17" arrival="206.00" arrivalLane="1369578052#0_0" arrivalPos="23.87" arrivalSpeed="7.85" duration="135.00" routeLength="195.00" waitingTime="84.00" waitingCount="2" stopTime="0.00" timeLoss="122.60" rerouteNo="0" devices="tripinfo_flow_route_59_duration_20250327_1930.18" vType="car" speedFactor="0.99" vaporized=""/>
    <tripinfo id="flow_route_59_duration_20250327_1930.16" depart="58.00" departLane="186407685_0" departPos="40.33" departSpeed="0.00" departDelay="7.49" arrival="208.00" arrivalLane="1369578052#0_0" arrivalPos="89.66" arrivalSpeed="12.95" duration="150.00" routeLength="235.44" waitingTime="98.00" waitingCount="2" stopTime="0.00" timeLoss="134.27" rerouteNo="0" devices="tripinfo_flow_route_59_duration_20250327_1930.16" vType="car" speedFactor="0.90" vaporized=""/>