<?xml version="1.0" encoding="UTF-8"?>

<!-- generated on 2025-05-06 16:33:53 by Eclipse SUMO sumo Version 1.20.0
<configuration xmlns:xsi="http://www.w3.org/2001/XMLSchema-instance" xsi:noNamespaceSchemaLocation="http://sumo.dlr.de/xsd/sumoConfiguration.xsd">

    <input>
        <net-file value="osm.net.xml"/>
        <route-files value="xml/routes_ddpg_cluster_356722183_3828703848.rou.xml"/>
    </input>

    <output>
        <tripinfo-output value="xml/tripinfo_42376.xml"/>
    </output>

    <traci_server>
        <remote-port value="58391"/>
    </traci_server>

</configuration>
-->

<tripinfos xmlns:xsi="http://www.w3.org/2001/XMLSchema-instance" xsi:noNamespaceSchemaLocation="http://sumo.dlr.de/xsd/tripinfo_file.xsd">
    <tripinfo id="flow_route_18_duration_20250327_2110.0" depart="0.00" departLane="133126040#0_0" departPos="80.59" departSpeed="0.00" departDelay="0.00" arrival="13.00" arrivalLane="1318893695#0_0" arrivalPos="9.11" arrivalSpeed="9.89" duration="13.00" routeLength="59.37" waitingTime="0.00" waitingCount="0" stopTime="0.00" timeLoss="8.98" rerouteNo="0" devices="tripinfo_flow_route_18_duration_20250327_2110.0" vType="car" speedFactor="1.01" vaporized=""/>
    <tripinfo id="flow_route_19_duration_20250327_2110.2" depart="11.00" departLane="133126040#0_0" departPos="44.49" departSpeed="0.00" departDelay="0.09" arrival="30.00" arrivalLane="133126031#0_1" arrivalPos="43.02" arrivalSpeed="11.28" duration="19.00" routeLength="127.40" waitingTime="0.00" waitingCount="0" stopTime="0.00" timeLoss="10.24" rerouteNo="0" devices="tripinfo_flow_route_19_duration_20250327_2110.2" vType="car" speedFactor="1.09" vaporized=""/>
    <tripinfo id="flow_route_19_duration_20250327_2110.0" depart="0.00" departLane="133126040#0_0" departPos="0.65" departSpeed="0.00" departDelay="0.00" arrival="32.00" arrivalLane="133126031#0_1" arrivalPos="163.43" arrivalSpeed="16.54" duration="32.00" routeLength="291.65" waitingTime="0.00" waitingCount="0" stopTime="0.00" timeLoss="13.03" rerouteNo="0" devices="tripinfo_flow_route_19_duration_20250327_2110.0" vType="car" speedFactor="1.08" vaporized=""/>
    <tripinfo id="flow_route_0_duration_20250327_2110.0" depart="0.00" departLane="1318793176#1_0" departPos="2.64" departSpeed="0.00" departDelay="0.00" arrival="36.00" arrivalLane="133126031#0_0" arrivalPos="296.30" arrivalSpeed="16.57" duration="36.00" routeLength="414.08" waitingTime="0.00" waitingCount="0" stopTime="0.00" timeLoss="10.42" rerouteNo="0" devices="tripinfo_flow_route_0_duration_20250327_2110.0" vType="car" speedFactor="1.06" vaporized=""/>
    <tripinfo id="flow_route_48_duration_20250327_2110.0" depart="2.00" departLane="380351865#0_0" departPos="1.03" departSpeed="0.00" departDelay="2.00" arrival="43.00" arrivalLane="133126031#0_0" arrivalPos="14.50" arrivalSpeed="7.89" duration="41.00" routeLength="180.64" waitingTime="7.00" waitingCount="1" stopTime="0.00" timeLoss="23.32" rerouteNo="0" devices="tripinfo_flow_route_48_duration_20250327_2110.0" vType="car" speedFactor="0.83" vaporized=""/>
    <tripinfo id="flow_route_19_duration_20250327_2110.4" depart="22.00" departLane="133126040#0_0" departPos="103.28" departSpeed="0.00" departDelay="0.18" arrival="46.00" arrivalLane="133126031#0_1" arrivalPos="192.90" arrivalSpeed="16.24" duration="24.00" routeLength="218.49" waitingTime="0.00" waitingCount="0" stopTime="0.00" timeLoss="8.64" rerouteNo="0" devices="tripinfo_flow_route_19_duration_20250327_2110.4" vType="car" speedFactor="0.94" vaporized=""/>
    <tripinfo id="flow_route_0_duration_20250327_2110.1" depart="10.00" departLane="1318793176#1_0" departPos="7.32" departSpeed="0.00" departDelay="3.33" arrival="47.00" arrivalLane="133126031#0_0" arrivalPos="295.18" arrivalSpeed="16.40" duration="37.00" routeLength="408.28" waitingTime="0.00" waitingCount="0" stopTime="0.00" timeLoss="11.08" rerouteNo="0" devices="tripinfo_flow_route_0_duration_20250327_2110.1" vType="car" speedFactor="0.94" vaporized=""/>
    <tripinfo id="flow_route_47_duration_20250327_2110.0" depart="0.00" departLane="380351865#0_0" departPos="11.49" departSpeed="0.00" departDelay="0.00" arrival="48.00" arrivalLane="1318793173#0_1" arrivalPos="63.76" arrivalSpeed="11.46" duration="48.00" routeLength="213.71" waitingTime="13.00" waitingCount="1" stopTime="0.00" timeLoss="31.14" rerouteNo="0" devices="tripinfo_flow_route_47_duration_20250327_2110.0" vType="car" speedFactor="1.03" vaporized=""/>
    <tripinfo id="flow_route_47_duration_20250327_2110.1" depart="20.00" departLane="380351865#0_0" departPos="16.39" departSpeed="0.00" departDelay="0.00" arrival="52.00" arrivalLane="1318793173#0_1" arrivalPos="64.43" arrivalSpeed="12.97" duration="32.00" routeLength="209.49" waitingTime="0.00" waitingCount="0" stopTime="0.00" timeLoss="13.70" rerouteNo="0" devices="tripinfo_flow_route_47_duration_20250327_2110.1" vType="car" speedFactor="0.93" vaporized=""/>
    <tripinfo id="flow_route_0_duration_20250327_2110.2" depart="14.00" departLane="1318793176#1_0" departPos="2.38" departSpeed="0.00" departDelay="0.67" arrival="53.00" arrivalLane="133126031#0_0" arrivalPos="320.76" arrivalSpeed="16.37" duration="39.00" routeLength="438.80" waitingTime="0.00" waitingCount="0" stopTime="0.00" timeLoss="11.34" rerouteNo="0" devices="tripinfo_flow_route_0_duration_20250327_2110.2" vType="car" speedFactor="1.03" vaporized=""/>
    <tripinfo id="flow_route_49_duration_20250327_2110.0" depart="8.00" departLane="380351865#0_0" departPos="5.15" departSpeed="0.00" departDelay="8.00" arrival="54.00" arrivalLane="1318893695#0_0" arrivalPos="148.83" arrivalSpeed="15.27" duration="46.00" routeLength="287.56" waitingTime="4.00" waitingCount="1" stopTime="0.00" timeLoss="24.34" rerouteNo="0" devices="tripinfo_flow_route_49_duration_20250327_2110.0" vType="car" speedFactor="1.05" vaporized=""/>
    <tripinfo id="flow_route_48_duration_20250327_2110.1" depart="11.00" departLane="380351865#0_0" departPos="2.14" departSpeed="0.00" departDelay="4.33" arrival="54.00" arrivalLane="133126031#0_1" arrivalPos="131.88" arrivalSpeed="16.12" duration="43.00" routeLength="296.91" waitingTime="0.00" waitingCount="0" stopTime="0.00" timeLoss="18.71" rerouteNo="0" devices="tripinfo_flow_route_48_duration_20250327_2110.1" vType="car" speedFactor="0.86" vaporized=""/>
    <tripinfo id="flow_route_0_duration_20250327_2110.4" depart="27.00" departLane="1318793176#1_0" departPos="1.62" departSpeed="0.00" departDelay="0.34" arrival="56.00" arrivalLane="133126031#0_0" arrivalPos="60.98" arrivalSpeed="11.15" duration="29.00" routeLength="179.77" waitingTime="0.00" waitingCount="0" stopTime="0.00" timeLoss="17.03" rerouteNo="0" devices="tripinfo_flow_route_0_duration_20250327_2110.4" vType="car" speedFactor="0.94" vaporized=""/>
    <tripinfo id="flow_route_0_duration_20250327_2110.6" depart="40.00" departLane="1318793176#1_0" departPos="3.76" departSpeed="0.00" departDelay="0.00" arrival="59.00" arrivalLane="133126031#0_0" arrivalPos="15.58" arrivalSpeed="12.31" duration="19.00" routeLength="132.24" waitingTime="0.00" waitingCount="0" stopTime="0.00" timeLoss="9.67" rerouteNo="0" devices="tripinfo_flow_route_0_duration_20250327_2110.6" vType="car" speedFactor="0.92" vaporized=""/>
    <tripinfo id="flow_route_18_duration_20250327_2110.1" depart="30.00" departLane="133126040#0_0" departPos="7.24" departSpeed="0.00" departDelay="0.00" arrival="60.00" arrivalLane="1318893695#0_0" arrivalPos="185.84" arrivalSpeed="16.48" duration="30.00" routeLength="309.46" waitingTime="0.00" waitingCount="0" stopTime="0.00" timeLoss="11.34" rerouteNo="0" devices="tripinfo_flow_route_18_duration_20250327_2110.1" vType="car" speedFactor="1.01" vaporized=""/>
    <tripinfo id="flow_route_1_duration_20250327_2110.0" depart="4.00" departLane="1318793176#1_0" departPos="0.49" departSpeed="0.00" departDelay="4.00" arrival="61.00" arrivalLane="1318793173#0_1" arrivalPos="77.00" arrivalSpeed="12.94" duration="57.00" routeLength="200.41" waitingTime="23.00" waitingCount="1" stopTime="0.00" timeLoss="43.53" rerouteNo="0" devices="tripinfo_flow_route_1_duration_20250327_2110.0" vType="car" speedFactor="0.94" vaporized=""/>
    <tripinfo id="flow_route_0_duration_20250327_2110.5" depart="34.00" departLane="1318793176#1_0" departPos="0.92" departSpeed="0.00" departDelay="0.67" arrival="61.00" arrivalLane="133126031#0_0" arrivalPos="104.37" arrivalSpeed="15.47" duration="27.00" routeLength="223.88" waitingTime="0.00" waitingCount="0" stopTime="0.00" timeLoss="11.91" rerouteNo="0" devices="tripinfo_flow_route_0_duration_20250327_2110.5" vType="car" speedFactor="0.89" vaporized=""/>
    <tripinfo id="flow_route_0_duration_20250327_2110.3" depart="20.00" departLane="1318793176#1_0" departPos="9.99" departSpeed="0.00" departDelay="0.00" arrival="66.00" arrivalLane="133126031#0_0" arrivalPos="237.96" arrivalSpeed="16.35" duration="46.00" routeLength="348.39" waitingTime="2.00" waitingCount="1" stopTime="0.00" timeLoss="24.40" rerouteNo="0" devices="tripinfo_flow_route_0_duration_20250327_2110.3" vType="car" speedFactor="0.99" vaporized=""/>
    <tripinfo id="flow_route_48_duration_20250327_2110.3" depart="22.00" departLane="380351865#0_0" departPos="2.87" departSpeed="0.00" departDelay="2.00" arrival="66.00" arrivalLane="133126031#0_1" arrivalPos="229.99" arrivalSpeed="16.43" duration="44.00" routeLength="394.29" waitingTime="0.00" waitingCount="0" stopTime="0.00" timeLoss="14.49" rerouteNo="0" devices="tripinfo_flow_route_48_duration_20250327_2110.3" vType="car" speedFactor="0.88" vaporized=""/>
    <tripinfo id="flow_route_19_duration_20250327_2110.6" depart="33.00" departLane="133126040#0_0" departPos="107.32" departSpeed="0.00" departDelay="0.28" arrival="70.00" arrivalLane="133126031#0_1" arrivalPos="59.52" arrivalSpeed="10.89" duration="37.00" routeLength="81.07" waitingTime="20.00" waitingCount="1" stopTime="0.00" timeLoss="30.40" rerouteNo="0" devices="tripinfo_flow_route_19_duration_20250327_2110.6" vType="car" speedFactor="0.97" vaporized=""/>
    <tripinfo id="flow_route_19_duration_20250327_2110.5" depart="28.00" departLane="133126040#0_0" departPos="59.14" departSpeed="0.00" departDelay="0.73" arrival="77.00" arrivalLane="133126031#0_1" arrivalPos="92.73" arrivalSpeed="13.45" duration="49.00" routeLength="162.46" waitingTime="18.00" waitingCount="2" stopTime="0.00" timeLoss="37.33" rerouteNo="0" devices="tripinfo_flow_route_19_duration_20250327_2110.5" vType="car" speedFactor="1.02" vaporized=""/>
    <tripinfo id="flow_route_19_duration_20250327_2110.3" depart="17.00" departLane="133126040#0_0" departPos="72.26" departSpeed="0.00" departDelay="0.64" arrival="80.00" arrivalLane="133126031#0_1" arrivalPos="269.93" arrivalSpeed="16.35" duration="63.00" routeLength="326.54" waitingTime="18.00" waitingCount="3" stopTime="0.00" timeLoss="42.15" rerouteNo="0" devices="tripinfo_flow_route_19_duration_20250327_2110.3" vType="car" speedFactor="1.12" vaporized=""/>
    <tripinfo id="flow_route_19_duration_20250327_2110.7" depart="39.00" departLane="133126040#0_0" departPos="19.54" departSpeed="0.00" departDelay="0.82" arrival="81.00" arrivalLane="133126031#0_1" arrivalPos="68.89" arrivalSpeed="12.16" duration="42.00" routeLength="178.22" waitingTime="8.00" waitingCount="1" stopTime="0.00" timeLoss="28.76" rerouteNo="0" devices="tripinfo_flow_route_19_duration_20250327_2110.7" vType="car" speedFactor="0.87" vaporized=""/>
    <tripinfo id="flow_route_19_duration_20250327_2110.1" depart="7.00" departLane="133126040#0_0" departPos="25.60" departSpeed="0.00" departDelay="1.55" arrival="83.00" arrivalLane="133126031#0_1" arrivalPos="210.66" arrivalSpeed="16.19" duration="76.00" routeLength="313.93" waitingTime="23.00" waitingCount="3" stopTime="0.00" timeLoss="53.91" rerouteNo="0" devices="tripinfo_flow_route_19_duration_20250327_2110.1" vType="car" speedFactor="0.89" vaporized=""/>
    <tripinfo id="flow_route_19_duration_20250327_2110.10" depart="55.00" departLane="133126040#0_0" departPos="75.66" departSpeed="0.00" departDelay="0.46" arrival="83.00" arrivalLane="133126031#0_1" arrivalPos="136.70" arrivalSpeed="15.47" duration="28.00" routeLength="189.92" waitingTime="0.00" waitingCount="0" stopTime="0.00" timeLoss="15.29" rerouteNo="0" devices="tripinfo_flow_route_19_duration_20250327_2110.10" vType="car" speedFactor="1.02" vaporized=""/>
    <tripinfo id="flow_route_0_duration_20250327_2110.7" depart="47.00" departLane="1318793176#1_0" departPos="3.23" departSpeed="0.00" departDelay="0.34" arrival="85.00" arrivalLane="133126031#0_0" arrivalPos="324.84" arrivalSpeed="16.33" duration="38.00" routeLength="442.03" waitingTime="0.00" waitingCount="0" stopTime="0.00" timeLoss="10.38" rerouteNo="0" devices="tripinfo_flow_route_0_duration_20250327_2110.7" vType="car" speedFactor="1.18" vaporized=""/>
    <tripinfo id="flow_route_19_duration_20250327_2110.8" depart="45.00" departLane="133126040#0_0" departPos="45.12" departSpeed="0.00" departDelay="1.37" arrival="88.00" arrivalLane="133126031#0_1" arrivalPos="129.61" arrivalSpeed="16.07" duration="43.00" routeLength="213.36" waitingTime="7.00" waitingCount="1" stopTime="0.00" timeLoss="28.01" rerouteNo="0" devices="tripinfo_flow_route_19_duration_20250327_2110.8" vType="car" speedFactor="0.93" vaporized=""/>
    <tripinfo id="flow_route_0_duration_20250327_2110.8" depart="54.00" departLane="1318793176#1_0" departPos="10.38" departSpeed="0.00" departDelay="0.67" arrival="89.00" arrivalLane="133126031#0_0" arrivalPos="290.59" arrivalSpeed="16.51" duration="35.00" routeLength="400.64" waitingTime="0.00" waitingCount="0" stopTime="0.00" timeLoss="9.84" rerouteNo="0" devices="tripinfo_flow_route_0_duration_20250327_2110.8" vType="car" speedFactor="1.17" vaporized=""/>
    <tripinfo id="flow_route_47_duration_20250327_2110.2" depart="40.00" departLane="380351865#0_0" departPos="4.95" departSpeed="0.00" departDelay="0.00" arrival="90.00" arrivalLane="1318793173#0_1" arrivalPos="8.65" arrivalSpeed="8.00" duration="50.00" routeLength="165.13" waitingTime="19.00" waitingCount="1" stopTime="0.00" timeLoss="35.09" rerouteNo="0" devices="tripinfo_flow_route_47_duration_20250327_2110.2" vType="car" speedFactor="0.95" vaporized=""/>
    <tripinfo id="flow_route_48_duration_20250327_2110.7" depart="52.00" departLane="380351865#0_0" departPos="7.78" departSpeed="0.00" departDelay="5.34" arrival="93.00" arrivalLane="133126031#0_1" arrivalPos="7.93" arrivalSpeed="9.46" duration="41.00" routeLength="167.32" waitingTime="8.00" waitingCount="1" stopTime="0.00" timeLoss="28.39" rerouteNo="0" devices="tripinfo_flow_route_48_duration_20250327_2110.7" vType="car" speedFactor="1.15" vaporized=""/>
    <tripinfo id="flow_route_48_duration_20250327_2110.2" depart="17.00" departLane="380351865#0_0" departPos="1.52" departSpeed="0.00" departDelay="3.67" arrival="96.00" arrivalLane="133126031#0_1" arrivalPos="87.82" arrivalSpeed="13.30" duration="79.00" routeLength="253.47" waitingTime="33.00" waitingCount="1" stopTime="0.00" timeLoss="60.05" rerouteNo="0" devices="tripinfo_flow_route_48_duration_20250327_2110.2" vType="car" speedFactor="1.05" vaporized=""/>
    <tripinfo id="flow_route_48_duration_20250327_2110.5" depart="34.00" departLane="380351865#0_0" departPos="9.68" departSpeed="0.00" departDelay="0.67" arrival="100.00" arrivalLane="133126031#0_0" arrivalPos="112.74" arrivalSpeed="14.84" duration="66.00" routeLength="270.23" waitingTime="25.00" waitingCount="1" stopTime="0.00" timeLoss="43.17" rerouteNo="0" devices="tripinfo_flow_route_48_duration_20250327_2110.5" vType="car" speedFactor="0.83" vaporized=""/>
    <tripinfo id="flow_route_48_duration_20250327_2110.4" depart="27.00" departLane="380351865#0_0" departPos="0.48" departSpeed="0.00" departDelay="0.34" arrival="105.00" arrivalLane="133126031#0_0" arrivalPos="213.38" arrivalSpeed="16.35" duration="78.00" routeLength="380.07" waitingTime="30.00" waitingCount="1" stopTime="0.00" timeLoss="52.05" rerouteNo="0" devices="tripinfo_flow_route_48_duration_20250327_2110.4" vType="car" speedFactor="1.16" vaporized=""/>
    <tripinfo id="flow_route_48_duration_20250327_2110.6" depart="46.00" departLane="380351865#0_0" departPos="6.23" departSpeed="0.00" departDelay="6.00" arrival="110.00" arrivalLane="133126031#0_0" arrivalPos="240.06" arrivalSpeed="16.53" duration="64.00" routeLength="401.00" waitingTime="15.00" waitingCount="1" stopTime="0.00" timeLoss="36.68" rerouteNo="0" devices="tripinfo_flow_route_48_duration_20250327_2110.6" vType="car" speedFactor="1.13" vaporized=""/>
    <tripinfo id="flow_route_19_duration_20250327_2110.9" depart="50.00" departLane="133126040#0_0" departPos="45.98" departSpeed="0.00" departDelay="0.91" arrival="122.00" arrivalLane="133126031#0_0" arrivalPos="307.58" arrivalSpeed="16.26" duration="72.00" routeLength="390.47" waitingTime="19.00" waitingCount="3" stopTime="0.00" timeLoss="46.75" rerouteNo="0" devices="tripinfo_flow_route_19_duration_20250327_2110.9" vType="car" speedFactor="1.01" vaporized=""/>
    <tripinfo id="flow_route_48_duration_20250327_2110.8" depart="56.00" departLane="380351865#0_0" departPos="1.73" departSpeed="0.00" departDelay="2.67" arrival="149.00" arrivalLane="133126031#0_0" arrivalPos="190.77" arrivalSpeed="16.53" duration="93.00" routeLength="356.21" waitingTime="41.00" waitingCount="2" stopTime="0.00" timeLoss="67.28" rerouteNo="0" devices="tripinfo_flow_route_48_duration_20250327_2110.8" vType="car" speedFactor="0.99" vaporized=""/>
</tripinfos>
