<?xml version="1.0" encoding="UTF-8"?>

<!-- generated on 2025-05-06 21:08:06 by Eclipse SUMO sumo Version 1.20.0
<configuration xmlns:xsi="http://www.w3.org/2001/XMLSchema-instance" xsi:noNamespaceSchemaLocation="http://sumo.dlr.de/xsd/sumoConfiguration.xsd">

    <input>
        <net-file value="osm.net.xml"/>
        <route-files value="xml/route_static_GS_cluster_1342409365_3839031467_2.rou.xml"/>
    </input>

    <output>
        <tripinfo-output value="xml/tripinfo_static_GS_cluster_1342409365_3839031467_2.xml"/>
    </output>

    <traci_server>
        <remote-port value="58721"/>
    </traci_server>

</configuration>
-->

<tripinfos xmlns:xsi="http://www.w3.org/2001/XMLSchema-instance" xsi:noNamespaceSchemaLocation="http://sumo.dlr.de/xsd/tripinfo_file.xsd">
    <tripinfo id="flow_route_128_duration_20250327_2030.0" depart="0.00" departLane="134133272_0" departPos="226.49" departSpeed="0.00" departDelay="0.00" arrival="31.00" arrivalLane="380585338#0_0" arrivalPos="7.57" arrivalSpeed="5.61" duration="31.00" routeLength="279.28" waitingTime="0.00" waitingCount="0" stopTime="0.00" timeLoss="10.60" rerouteNo="0" devices="tripinfo_flow_route_128_duration_20250327_2030.0" vType="car" speedFactor="0.83" vaporized=""/>
    <tripinfo id="flow_route_92_duration_20250327_2030.1" depart="4.00" departLane="133000063_0" departPos="109.11" departSpeed="0.00" departDelay="0.00" arrival="39.00" arrivalLane="186409193_0" arrivalPos="29.97" arrivalSpeed="15.16" duration="35.00" routeLength="312.72" waitingTime="0.00" waitingCount="0" stopTime="0.00" timeLoss="15.43" rerouteNo="0" devices="tripinfo_flow_route_92_duration_20250327_2030.1" vType="car" speedFactor="1.09" vaporized=""/>
    <tripinfo id="flow_route_91_duration_20250327_2030.0" depart="0.00" departLane="133000063_0" departPos="128.34" departSpeed="0.00" departDelay="0.00" arrival="48.00" arrivalLane="683079387#1_1" arrivalPos="9.10" arrivalSpeed="16.58" duration="48.00" routeLength="599.49" waitingTime="0.00" waitingCount="0" stopTime="0.00" timeLoss="11.78" rerouteNo="0" devices="tripinfo_flow_route_91_duration_20250327_2030.0" vType="car" speedFactor="1.06" vaporized=""/>
    <tripinfo id="flow_route_103_duration_20250327_2030.0" depart="1.00" departLane="1342963997_0" departPos="57.81" departSpeed="0.00" departDelay="1.00" arrival="50.00" arrivalLane="683079387#1_0" arrivalPos="6.02" arrivalSpeed="16.56" duration="49.00" routeLength="524.42" waitingTime="0.00" waitingCount="0" stopTime="0.00" timeLoss="16.04" rerouteNo="0" devices="tripinfo_flow_route_103_duration_20250327_2030.0" vType="car" speedFactor="1.03" vaporized=""/>
    <tripinfo id="flow_route_128_duration_20250327_2030.2" depart="24.00" departLane="134133272_0" departPos="250.07" departSpeed="0.00" departDelay="0.00" arrival="53.00" arrivalLane="380585338#0_0" arrivalPos="4.14" arrivalSpeed="6.61" duration="29.00" routeLength="252.27" waitingTime="0.00" waitingCount="0" stopTime="0.00" timeLoss="13.10" rerouteNo="0" devices="tripinfo_flow_route_128_duration_20250327_2030.2" vType="car" speedFactor="1.10" vaporized=""/>
    <tripinfo id="flow_route_128_duration_20250327_2030.1" depart="12.00" departLane="134133272_0" departPos="35.61" departSpeed="0.00" departDelay="0.00" arrival="61.00" arrivalLane="380585338#0_0" arrivalPos="41.92" arrivalSpeed="9.65" duration="49.00" routeLength="504.51" waitingTime="0.00" waitingCount="0" stopTime="0.00" timeLoss="16.87" rerouteNo="0" devices="tripinfo_flow_route_128_duration_20250327_2030.1" vType="car" speedFactor="1.02" vaporized=""/>
    <tripinfo id="flow_route_144_duration_20250327_2030.4" depart="19.00" departLane="683079388#0_0" departPos="5.35" departSpeed="0.00" departDelay="0.54" arrival="67.00" arrivalLane="380585338#0_2" arrivalPos="14.94" arrivalSpeed="14.18" duration="48.00" routeLength="589.33" waitingTime="0.00" waitingCount="0" stopTime="0.00" timeLoss="12.24" rerouteNo="0" devices="tripinfo_flow_route_144_duration_20250327_2030.4" vType="car" speedFactor="1.15" vaporized=""/>
    <tripinfo id="flow_route_145_duration_20250327_2030.0" depart="0.00" departLane="683079388#0_0" departPos="22.61" departSpeed="0.00" departDelay="0.00" arrival="68.00" arrivalLane="380585336_0" arrivalPos="229.76" arrivalSpeed="15.56" duration="68.00" routeLength="831.39" waitingTime="0.00" waitingCount="0" stopTime="0.00" timeLoss="15.64" rerouteNo="0" devices="tripinfo_flow_route_145_duration_20250327_2030.0" vType="car" speedFactor="0.94" vaporized=""/>
    <tripinfo id="flow_route_93_duration_20250327_2030.0" depart="0.00" departLane="133000063_0" departPos="115.92" departSpeed="0.00" departDelay="0.00" arrival="69.00" arrivalLane="380585336_1" arrivalPos="19.16" arrivalSpeed="16.46" duration="69.00" routeLength="758.54" waitingTime="0.00" waitingCount="0" stopTime="0.00" timeLoss="22.57" rerouteNo="0" devices="tripinfo_flow_route_93_duration_20250327_2030.0" vType="car" speedFactor="1.01" vaporized=""/>
    <tripinfo id="flow_route_102_duration_20250327_2030.0" depart="0.00" departLane="1342963997_0" departPos="83.70" departSpeed="0.00" departDelay="0.00" arrival="69.00" arrivalLane="380585336_1" arrivalPos="207.08" arrivalSpeed="16.13" duration="69.00" routeLength="834.32" waitingTime="0.00" waitingCount="0" stopTime="0.00" timeLoss="17.44" rerouteNo="0" devices="tripinfo_flow_route_102_duration_20250327_2030.0" vType="car" speedFactor="1.08" vaporized=""/>
    <tripinfo id="flow_route_103_duration_20250327_2030.2" depart="30.00" departLane="1342963997_0" departPos="162.40" departSpeed="0.00" departDelay="0.00" arrival="69.00" arrivalLane="683079387#1_0" arrivalPos="3.99" arrivalSpeed="14.73" duration="39.00" routeLength="417.80" waitingTime="0.00" waitingCount="0" stopTime="0.00" timeLoss="9.67" rerouteNo="0" devices="tripinfo_flow_route_103_duration_20250327_2030.2" vType="car" speedFactor="0.90" vaporized=""/>
    <tripinfo id="flow_route_129_duration_20250327_2030.0" depart="0.00" departLane="134133272_0" departPos="105.80" departSpeed="0.00" departDelay="0.00" arrival="70.00" arrivalLane="683079387#1_1" arrivalPos="7.59" arrivalSpeed="16.51" duration="70.00" routeLength="945.90" waitingTime="0.00" waitingCount="0" stopTime="0.00" timeLoss="12.57" rerouteNo="0" devices="tripinfo_flow_route_129_duration_20250327_2030.0" vType="car" speedFactor="1.05" vaporized=""/>
    <tripinfo id="flow_route_144_duration_20250327_2030.0" depart="0.00" departLane="683079388#0_0" departPos="1.56" departSpeed="0.00" departDelay="0.00" arrival="72.00" arrivalLane="380585338#0_0" arrivalPos="42.98" arrivalSpeed="10.16" duration="72.00" routeLength="621.16" waitingTime="8.00" waitingCount="1" stopTime="0.00" timeLoss="29.38" rerouteNo="0" devices="tripinfo_flow_route_144_duration_20250327_2030.0" vType="car" speedFactor="0.89" vaporized=""/>
    <tripinfo id="flow_route_144_duration_20250327_2030.2" depart="10.00" departLane="683079388#0_0" departPos="24.90" departSpeed="0.00" departDelay="0.77" arrival="72.00" arrivalLane="380585338#0_0" arrivalPos="22.47" arrivalSpeed="8.75" duration="62.00" routeLength="577.30" waitingTime="4.00" waitingCount="1" stopTime="0.00" timeLoss="24.81" rerouteNo="0" devices="tripinfo_flow_route_144_duration_20250327_2030.2" vType="car" speedFactor="0.94" vaporized=""/>
    <tripinfo id="flow_route_103_duration_20250327_2030.1" depart="16.00" departLane="1342963997_0" departPos="12.03" departSpeed="0.00" departDelay="1.00" arrival="72.00" arrivalLane="683079387#1_0" arrivalPos="9.75" arrivalSpeed="14.95" duration="56.00" routeLength="573.93" waitingTime="0.00" waitingCount="0" stopTime="0.00" timeLoss="18.68" rerouteNo="0" devices="tripinfo_flow_route_103_duration_20250327_2030.1" vType="car" speedFactor="0.92" vaporized=""/>
    <tripinfo id="flow_route_144_duration_20250327_2030.3" depart="14.00" departLane="683079388#0_0" departPos="7.95" departSpeed="0.00" departDelay="0.16" arrival="73.00" arrivalLane="380585338#0_2" arrivalPos="162.37" arrivalSpeed="15.98" duration="59.00" routeLength="734.16" waitingTime="0.00" waitingCount="0" stopTime="0.00" timeLoss="13.67" rerouteNo="0" devices="tripinfo_flow_route_144_duration_20250327_2030.3" vType="car" speedFactor="0.97" vaporized=""/>
    <tripinfo id="flow_route_144_duration_20250327_2030.1" depart="7.00" departLane="683079388#0_0" departPos="0.84" departSpeed="0.00" departDelay="2.39" arrival="79.00" arrivalLane="380585338#0_1" arrivalPos="143.14" arrivalSpeed="15.73" duration="72.00" routeLength="722.04" waitingTime="3.00" waitingCount="1" stopTime="0.00" timeLoss="28.21" rerouteNo="0" devices="tripinfo_flow_route_144_duration_20250327_2030.1" vType="car" speedFactor="1.05" vaporized=""/>
    <tripinfo id="flow_route_144_duration_20250327_2030.5" depart="28.00" departLane="683079388#0_0" departPos="7.26" departSpeed="0.00" departDelay="4.93" arrival="81.00" arrivalLane="380585338#0_0" arrivalPos="52.57" arrivalSpeed="14.86" duration="53.00" routeLength="625.05" waitingTime="0.00" waitingCount="0" stopTime="0.00" timeLoss="10.65" rerouteNo="0" devices="tripinfo_flow_route_144_duration_20250327_2030.5" vType="car" speedFactor="0.90" vaporized=""/>
    <tripinfo id="flow_route_102_duration_20250327_2030.1" depart="8.00" departLane="1342963997_0" departPos="5.36" departSpeed="0.00" departDelay="0.50" arrival="84.00" arrivalLane="380585336_2" arrivalPos="67.04" arrivalSpeed="14.98" duration="76.00" routeLength="772.64" waitingTime="0.00" waitingCount="0" stopTime="0.00" timeLoss="26.00" rerouteNo="0" devices="tripinfo_flow_route_102_duration_20250327_2030.1" vType="car" speedFactor="0.93" vaporized=""/>
    <tripinfo id="flow_route_102_duration_20250327_2030.2" depart="16.00" departLane="1342963997_0" departPos="166.65" departSpeed="0.00" departDelay="1.00" arrival="84.00" arrivalLane="380585336_1" arrivalPos="70.96" arrivalSpeed="14.20" duration="68.00" routeLength="615.26" waitingTime="4.00" waitingCount="1" stopTime="0.00" timeLoss="25.19" rerouteNo="0" devices="tripinfo_flow_route_102_duration_20250327_2030.2" vType="car" speedFactor="0.87" vaporized=""/>
    <tripinfo id="flow_route_144_duration_20250327_2030.6" depart="33.00" departLane="683079388#0_0" departPos="2.66" departSpeed="0.00" departDelay="5.31" arrival="85.00" arrivalLane="380585338#0_0" arrivalPos="80.98" arrivalSpeed="16.12" duration="52.00" routeLength="658.06" waitingTime="0.00" waitingCount="0" stopTime="0.00" timeLoss="12.27" rerouteNo="0" devices="tripinfo_flow_route_144_duration_20250327_2030.6" vType="car" speedFactor="1.04" vaporized=""/>
    <tripinfo id="flow_route_93_duration_20250327_2030.2" depart="5.00" departLane="133000063_0" departPos="152.88" departSpeed="0.00" departDelay="0.86" arrival="87.00" arrivalLane="380585336_0" arrivalPos="395.67" arrivalSpeed="16.42" duration="82.00" routeLength="1098.08" waitingTime="0.00" waitingCount="0" stopTime="0.00" timeLoss="15.05" rerouteNo="0" devices="tripinfo_flow_route_93_duration_20250327_2030.2" vType="car" speedFactor="1.03" vaporized=""/>
    <tripinfo id="flow_route_92_duration_20250327_2030.2" depart="11.00" departLane="133000063_0" departPos="38.43" departSpeed="0.00" departDelay="3.00" arrival="88.00" arrivalLane="186409193_0" arrivalPos="44.66" arrivalSpeed="15.70" duration="77.00" routeLength="398.09" waitingTime="26.00" waitingCount="1" stopTime="0.00" timeLoss="51.69" rerouteNo="0" devices="tripinfo_flow_route_92_duration_20250327_2030.2" vType="car" speedFactor="0.99" vaporized=""/>
    <tripinfo id="flow_route_145_duration_20250327_2030.1" depart="25.00" departLane="683079388#0_0" departPos="11.77" departSpeed="0.00" departDelay="5.00" arrival="89.00" arrivalLane="380585336_0" arrivalPos="19.74" arrivalSpeed="8.43" duration="64.00" routeLength="632.21" waitingTime="5.00" waitingCount="1" stopTime="0.00" timeLoss="25.90" rerouteNo="0" devices="tripinfo_flow_route_145_duration_20250327_2030.1" vType="car" speedFactor="1.17" vaporized=""/>
    <tripinfo id="flow_route_128_duration_20250327_2030.4" depart="49.00" departLane="134133272_0" departPos="235.37" departSpeed="0.00" departDelay="1.00" arrival="90.00" arrivalLane="380585338#0_0" arrivalPos="14.69" arrivalSpeed="6.82" duration="41.00" routeLength="277.52" waitingTime="4.00" waitingCount="1" stopTime="0.00" timeLoss="22.62" rerouteNo="0" devices="tripinfo_flow_route_128_duration_20250327_2030.4" vType="car" speedFactor="0.96" vaporized=""/>
    <tripinfo id="flow_route_128_duration_20250327_2030.3" depart="37.00" departLane="134133272_0" departPos="263.43" departSpeed="0.00" departDelay="1.00" arrival="96.00" arrivalLane="380585338#0_0" arrivalPos="83.82" arrivalSpeed="11.39" duration="59.00" routeLength="318.59" waitingTime="12.00" waitingCount="1" stopTime="0.00" timeLoss="38.49" rerouteNo="0" devices="tripinfo_flow_route_128_duration_20250327_2030.3" vType="car" speedFactor="1.00" vaporized=""/>
    <tripinfo id="flow_route_92_duration_20250327_2030.0" depart="0.00" departLane="133000063_0" departPos="1.04" departSpeed="0.00" departDelay="0.00" arrival="97.00" arrivalLane="186409193_0" arrivalPos="41.62" arrivalSpeed="15.43" duration="97.00" routeLength="432.44" waitingTime="23.00" waitingCount="2" stopTime="0.00" timeLoss="68.54" rerouteNo="0" devices="tripinfo_flow_route_92_duration_20250327_2030.0" vType="car" speedFactor="0.94" vaporized=""/>
    <tripinfo id="flow_route_102_duration_20250327_2030.4" depart="30.00" departLane="1342963997_0" departPos="27.57" departSpeed="0.00" departDelay="0.00" arrival="97.00" arrivalLane="380585336_1" arrivalPos="17.95" arrivalSpeed="15.99" duration="67.00" routeLength="701.32" waitingTime="0.00" waitingCount="0" stopTime="0.00" timeLoss="23.67" rerouteNo="0" devices="tripinfo_flow_route_102_duration_20250327_2030.4" vType="car" speedFactor="1.00" vaporized=""/>
    <tripinfo id="flow_route_103_duration_20250327_2030.3" depart="45.00" departLane="1342963997_0" departPos="44.98" departSpeed="0.00" departDelay="0.00" arrival="97.00" arrivalLane="683079387#1_0" arrivalPos="2.31" arrivalSpeed="16.35" duration="52.00" routeLength="533.54" waitingTime="0.00" waitingCount="0" stopTime="0.00" timeLoss="18.49" rerouteNo="0" devices="tripinfo_flow_route_103_duration_20250327_2030.3" vType="car" speedFactor="1.04" vaporized=""/>
    <tripinfo id="flow_route_92_duration_20250327_2030.4" depart="26.00" departLane="133000063_0" departPos="98.81" departSpeed="0.00" departDelay="10.00" arrival="103.00" arrivalLane="186409193_0" arrivalPos="16.29" arrivalSpeed="14.45" duration="77.00" routeLength="309.34" waitingTime="19.00" waitingCount="1" stopTime="0.00" timeLoss="57.88" rerouteNo="0" devices="tripinfo_flow_route_92_duration_20250327_2030.4" vType="car" speedFactor="1.13" vaporized=""/>
    <tripinfo id="flow_route_92_duration_20250327_2030.3" depart="20.00" departLane="133000063_0" departPos="13.78" departSpeed="0.00" departDelay="8.00" arrival="109.00" arrivalLane="186409193_0" arrivalPos="33.39" arrivalSpeed="15.17" duration="89.00" routeLength="411.47" waitingTime="11.00" waitingCount="2" stopTime="0.00" timeLoss="63.84" rerouteNo="0" devices="tripinfo_flow_route_92_duration_20250327_2030.3" vType="car" speedFactor="1.16" vaporized=""/>
    <tripinfo id="flow_route_92_duration_20250327_2030.7" depart="48.00" departLane="133000063_0" departPos="98.10" departSpeed="0.00" departDelay="20.00" arrival="109.00" arrivalLane="186409193_0" arrivalPos="5.93" arrivalSpeed="14.17" duration="61.00" routeLength="299.69" waitingTime="0.00" waitingCount="0" stopTime="0.00" timeLoss="42.42" rerouteNo="0" devices="tripinfo_flow_route_92_duration_20250327_2030.7" vType="car" speedFactor="1.09" vaporized=""/>
    <tripinfo id="flow_route_91_duration_20250327_2030.1" depart="25.00" departLane="133000063_0" departPos="84.86" departSpeed="0.00" departDelay="10.00" arrival="111.00" arrivalLane="683079387#1_1" arrivalPos="5.03" arrivalSpeed="14.68" duration="86.00" routeLength="638.90" waitingTime="16.00" waitingCount="1" stopTime="0.00" timeLoss="42.89" rerouteNo="0" devices="tripinfo_flow_route_91_duration_20250327_2030.1" vType="car" speedFactor="0.89" vaporized=""/>
    <tripinfo id="flow_route_102_duration_20250327_2030.5" depart="38.00" departLane="1342963997_0" departPos="73.95" departSpeed="0.00" departDelay="0.50" arrival="111.00" arrivalLane="380585336_1" arrivalPos="204.95" arrivalSpeed="16.34" duration="73.00" routeLength="841.95" waitingTime="0.00" waitingCount="0" stopTime="0.00" timeLoss="21.81" rerouteNo="0" devices="tripinfo_flow_route_102_duration_20250327_2030.5" vType="car" speedFactor="1.02" vaporized=""/>
    <tripinfo id="flow_route_92_duration_20250327_2030.5" depart="29.00" departLane="133000063_0" departPos="24.31" departSpeed="0.00" departDelay="9.00" arrival="112.00" arrivalLane="186409193_0" arrivalPos="10.55" arrivalSpeed="13.78" duration="83.00" routeLength="378.10" waitingTime="9.00" waitingCount="3" stopTime="0.00" timeLoss="59.56" rerouteNo="0" devices="tripinfo_flow_route_92_duration_20250327_2030.5" vType="car" speedFactor="1.01" vaporized=""/>
    <tripinfo id="flow_route_102_duration_20250327_2030.6" depart="45.00" departLane="1342963997_0" departPos="57.61" departSpeed="0.00" departDelay="0.00" arrival="112.00" arrivalLane="380585336_1" arrivalPos="41.17" arrivalSpeed="14.91" duration="67.00" routeLength="694.51" waitingTime="0.00" waitingCount="0" stopTime="0.00" timeLoss="21.71" rerouteNo="0" devices="tripinfo_flow_route_102_duration_20250327_2030.6" vType="car" speedFactor="0.91" vaporized=""/>
    <tripinfo id="flow_route_91_duration_20250327_2030.2" depart="49.00" departLane="133000063_0" departPos="20.57" departSpeed="0.00" departDelay="19.00" arrival="113.00" arrivalLane="683079387#1_1" arrivalPos="4.90" arrivalSpeed="15.99" duration="64.00" routeLength="703.06" waitingTime="0.00" waitingCount="0" stopTime="0.00" timeLoss="21.16" rerouteNo="0" devices="tripinfo_flow_route_91_duration_20250327_2030.2" vType="car" speedFactor="1.09" vaporized=""/>
    <tripinfo id="flow_route_102_duration_20250327_2030.3" depart="23.00" departLane="1342963997_0" departPos="65.57" departSpeed="0.00" departDelay="0.50" arrival="116.00" arrivalLane="380585336_0" arrivalPos="347.85" arrivalSpeed="15.86" duration="93.00" routeLength="993.23" waitingTime="0.00" waitingCount="0" stopTime="0.00" timeLoss="30.92" rerouteNo="0" devices="tripinfo_flow_route_102_duration_20250327_2030.3" vType="car" speedFactor="0.97" vaporized=""/>
    <tripinfo id="flow_route_102_duration_20250327_2030.7" depart="53.00" departLane="1342963997_0" departPos="2.09" departSpeed="0.00" departDelay="0.50" arrival="119.00" arrivalLane="380585336_1" arrivalPos="46.21" arrivalSpeed="16.52" duration="66.00" routeLength="755.07" waitingTime="0.00" waitingCount="0" stopTime="0.00" timeLoss="19.43" rerouteNo="0" devices="tripinfo_flow_route_102_duration_20250327_2030.7" vType="car" speedFactor="1.09" vaporized=""/>
    <tripinfo id="flow_route_129_duration_20250327_2030.3" depart="45.00" departLane="134133272_0" departPos="340.28" departSpeed="0.00" departDelay="0.00" arrival="126.00" arrivalLane="683079387#1_0" arrivalPos="2.33" arrivalSpeed="16.54" duration="81.00" routeLength="706.15" waitingTime="13.00" waitingCount="1" stopTime="0.00" timeLoss="37.42" rerouteNo="0" devices="tripinfo_flow_route_129_duration_20250327_2030.3" vType="car" speedFactor="1.02" vaporized=""/>
    <tripinfo id="flow_route_129_duration_20250327_2030.1" depart="15.00" departLane="134133272_0" departPos="11.13" departSpeed="0.00" departDelay="0.00" arrival="129.00" arrivalLane="683079387#1_0" arrivalPos="1.87" arrivalSpeed="15.76" duration="114.00" routeLength="1034.85" waitingTime="11.00" waitingCount="1" stopTime="0.00" timeLoss="47.69" rerouteNo="0" devices="tripinfo_flow_route_129_duration_20250327_2030.1" vType="car" speedFactor="0.95" vaporized=""/>
    <tripinfo id="flow_route_93_duration_20250327_2030.9" depart="29.00" departLane="133000063_0" departPos="122.85" departSpeed="0.00" departDelay="10.39" arrival="129.00" arrivalLane="380585336_2" arrivalPos="142.85" arrivalSpeed="16.58" duration="100.00" routeLength="875.28" waitingTime="19.00" waitingCount="1" stopTime="0.00" timeLoss="46.52" rerouteNo="0" devices="tripinfo_flow_route_93_duration_20250327_2030.9" vType="car" speedFactor="1.18" vaporized=""/>
    <tripinfo id="flow_route_129_duration_20250327_2030.2" depart="30.00" departLane="134133272_0" departPos="137.81" departSpeed="0.00" departDelay="0.00" arrival="130.00" arrivalLane="683079387#1_1" arrivalPos="6.90" arrivalSpeed="14.29" duration="100.00" routeLength="910.01" waitingTime="12.00" waitingCount="1" stopTime="0.00" timeLoss="37.55" rerouteNo="0" devices="tripinfo_flow_route_129_duration_20250327_2030.2" vType="car" speedFactor="0.88" vaporized=""/>
    <tripinfo id="flow_route_144_duration_20250327_2030.9" depart="47.00" departLane="683079388#0_0" departPos="23.70" departSpeed="0.00" departDelay="5.47" arrival="134.00" arrivalLane="380585338#0_0" arrivalPos="57.80" arrivalSpeed="11.18" duration="87.00" routeLength="613.83" waitingTime="26.00" waitingCount="1" stopTime="0.00" timeLoss="49.54" rerouteNo="0" devices="tripinfo_flow_route_144_duration_20250327_2030.9" vType="car" speedFactor="0.99" vaporized=""/>
    <tripinfo id="flow_route_93_duration_20250327_2030.10" depart="37.00" departLane="133000063_0" departPos="81.00" departSpeed="0.00" departDelay="16.32" arrival="135.00" arrivalLane="380585336_2" arrivalPos="122.21" arrivalSpeed="16.12" duration="98.00" routeLength="896.50" waitingTime="2.00" waitingCount="2" stopTime="0.00" timeLoss="43.68" rerouteNo="0" devices="tripinfo_flow_route_93_duration_20250327_2030.10" vType="car" speedFactor="0.99" vaporized=""/>
    <tripinfo id="flow_route_144_duration_20250327_2030.12" depart="56.00" departLane="683079388#0_0" departPos="5.96" departSpeed="0.00" departDelay="0.62" arrival="135.00" arrivalLane="380585338#0_0" arrivalPos="38.54" arrivalSpeed="10.80" duration="79.00" routeLength="612.31" waitingTime="17.00" waitingCount="1" stopTime="0.00" timeLoss="40.36" rerouteNo="0" devices="tripinfo_flow_route_144_duration_20250327_2030.12" vType="car" speedFactor="0.97" vaporized=""/>
    <tripinfo id="flow_route_144_duration_20250327_2030.7" depart="37.00" departLane="683079388#0_0" departPos="0.02" departSpeed="0.00" departDelay="4.70" arrival="136.00" arrivalLane="380585338#0_1" arrivalPos="102.92" arrivalSpeed="13.91" duration="99.00" routeLength="682.64" waitingTime="32.00" waitingCount="1" stopTime="0.00" timeLoss="57.46" rerouteNo="0" devices="tripinfo_flow_route_144_duration_20250327_2030.7" vType="car" speedFactor="1.17" vaporized=""/>
    <tripinfo id="flow_route_145_duration_20250327_2030.2" depart="44.00" departLane="683079388#0_0" departPos="3.34" departSpeed="0.00" departDelay="4.00" arrival="136.00" arrivalLane="380585336_0" arrivalPos="419.99" arrivalSpeed="16.17" duration="92.00" routeLength="1040.89" waitingTime="0.00" waitingCount="0" stopTime="0.00" timeLoss="28.38" rerouteNo="0" devices="tripinfo_flow_route_145_duration_20250327_2030.2" vType="car" speedFactor="1.12" vaporized=""/>
    <tripinfo id="flow_route_93_duration_20250327_2030.5" depart="13.00" departLane="133000063_0" departPos="102.69" departSpeed="0.00" departDelay="2.66" arrival="138.00" arrivalLane="380585336_1" arrivalPos="111.27" arrivalSpeed="15.52" duration="125.00" routeLength="863.87" waitingTime="31.00" waitingCount="1" stopTime="0.00" timeLoss="69.78" rerouteNo="0" devices="tripinfo_flow_route_93_duration_20250327_2030.5" vType="car" speedFactor="0.94" vaporized=""/>
    <tripinfo id="flow_route_144_duration_20250327_2030.11" depart="51.00" departLane="683079388#0_0" departPos="15.61" departSpeed="0.00" departDelay="0.24" arrival="138.00" arrivalLane="380585338#0_2" arrivalPos="137.68" arrivalSpeed="15.41" duration="87.00" routeLength="701.81" waitingTime="20.00" waitingCount="1" stopTime="0.00" timeLoss="44.37" rerouteNo="0" devices="tripinfo_flow_route_144_duration_20250327_2030.11" vType="car" speedFactor="1.03" vaporized=""/>
    <tripinfo id="flow_route_93_duration_20250327_2030.3" depart="10.00" departLane="133000063_0" departPos="21.60" departSpeed="0.00" departDelay="3.80" arrival="139.00" arrivalLane="380585336_2" arrivalPos="99.74" arrivalSpeed="16.28" duration="129.00" routeLength="933.44" waitingTime="23.00" waitingCount="2" stopTime="0.00" timeLoss="72.23" rerouteNo="0" devices="tripinfo_flow_route_93_duration_20250327_2030.3" vType="car" speedFactor="1.12" vaporized=""/>
    <tripinfo id="flow_route_144_duration_20250327_2030.8" depart="37.00" departLane="683079388#0_0" departPos="23.72" departSpeed="0.00" departDelay="0.08" arrival="139.00" arrivalLane="380585338#0_0" arrivalPos="138.57" arrivalSpeed="14.63" duration="102.00" routeLength="694.59" waitingTime="33.00" waitingCount="1" stopTime="0.00" timeLoss="54.86" rerouteNo="0" devices="tripinfo_flow_route_144_duration_20250327_2030.8" vType="car" speedFactor="0.90" vaporized=""/>
    <tripinfo id="flow_route_93_duration_20250327_2030.1" depart="4.00" departLane="133000063_0" departPos="52.89" departSpeed="0.00" departDelay="1.93" arrival="141.00" arrivalLane="380585336_0" arrivalPos="288.04" arrivalSpeed="14.14" duration="137.00" routeLength="1090.45" waitingTime="22.00" waitingCount="2" stopTime="0.00" timeLoss="60.96" rerouteNo="0" devices="tripinfo_flow_route_93_duration_20250327_2030.1" vType="car" speedFactor="0.86" vaporized=""/>
    <tripinfo id="flow_route_93_duration_20250327_2030.8" depart="28.00" departLane="133000063_0" departPos="113.99" departSpeed="0.00" departDelay="11.46" arrival="142.00" arrivalLane="380585336_1" arrivalPos="75.41" arrivalSpeed="15.29" duration="114.00" routeLength="816.71" waitingTime="17.00" waitingCount="1" stopTime="0.00" timeLoss="61.45" rerouteNo="0" devices="tripinfo_flow_route_93_duration_20250327_2030.8" vType="car" speedFactor="0.93" vaporized=""/>
    <tripinfo id="flow_route_144_duration_20250327_2030.10" depart="49.00" departLane="683079388#0_0" departPos="0.19" departSpeed="0.00" departDelay="2.85" arrival="142.00" arrivalLane="380585338#0_1" arrivalPos="163.35" arrivalSpeed="15.91" duration="93.00" routeLength="742.90" waitingTime="19.00" waitingCount="1" stopTime="0.00" timeLoss="46.28" rerouteNo="0" devices="tripinfo_flow_route_144_duration_20250327_2030.10" vType="car" speedFactor="0.97" vaporized=""/>
    <tripinfo id="flow_route_93_duration_20250327_2030.4" depart="13.00" departLane="133000063_0" departPos="123.25" departSpeed="0.00" departDelay="4.73" arrival="147.00" arrivalLane="380585336_0" arrivalPos="288.66" arrivalSpeed="14.39" duration="134.00" routeLength="1020.70" waitingTime="33.00" waitingCount="1" stopTime="0.00" timeLoss="64.97" rerouteNo="0" devices="tripinfo_flow_route_93_duration_20250327_2030.4" vType="car" speedFactor="0.88" vaporized=""/>
    <tripinfo id="flow_route_92_duration_20250327_2030.6" depart="42.00" departLane="133000063_0" departPos="35.74" departSpeed="0.00" departDelay="18.00" arrival="148.00" arrivalLane="186409193_0" arrivalPos="57.07" arrivalSpeed="16.20" duration="106.00" routeLength="413.19" waitingTime="42.00" waitingCount="2" stopTime="0.00" timeLoss="80.61" rerouteNo="0" devices="tripinfo_flow_route_92_duration_20250327_2030.6" vType="car" speedFactor="1.18" vaporized=""/>
    <tripinfo id="flow_route_92_duration_20250327_2030.8" depart="59.00" departLane="133000063_0" departPos="76.98" departSpeed="0.00" departDelay="27.00" arrival="151.00" arrivalLane="186409193_0" arrivalPos="34.41" arrivalSpeed="13.70" duration="92.00" routeLength="349.29" waitingTime="37.00" waitingCount="1" stopTime="0.00" timeLoss="66.34" rerouteNo="0" devices="tripinfo_flow_route_92_duration_20250327_2030.8" vType="car" speedFactor="0.85" vaporized=""/>
    <tripinfo id="flow_route_93_duration_20250327_2030.11" depart="39.00" departLane="133000063_0" departPos="19.69" departSpeed="0.00" departDelay="16.25" arrival="154.00" arrivalLane="380585336_2" arrivalPos="216.08" arrivalSpeed="16.36" duration="115.00" routeLength="1051.68" waitingTime="0.00" waitingCount="0" stopTime="0.00" timeLoss="51.21" rerouteNo="0" devices="tripinfo_flow_route_93_duration_20250327_2030.11" vType="car" speedFactor="1.02" vaporized=""/>
    <tripinfo id="flow_route_93_duration_20250327_2030.7" depart="25.00" departLane="133000063_0" departPos="73.22" departSpeed="0.00" departDelay="10.52" arrival="158.00" arrivalLane="380585336_0" arrivalPos="244.42" arrivalSpeed="13.60" duration="133.00" routeLength="1026.49" waitingTime="14.00" waitingCount="2" stopTime="0.00" timeLoss="59.45" rerouteNo="0" devices="tripinfo_flow_route_93_duration_20250327_2030.7" vType="car" speedFactor="0.83" vaporized=""/>
    <tripinfo id="flow_route_93_duration_20250327_2030.6" depart="21.00" departLane="133000063_0" departPos="36.58" departSpeed="0.00" departDelay="8.59" arrival="160.00" arrivalLane="380585336_1" arrivalPos="281.52" arrivalSpeed="16.46" duration="139.00" routeLength="1100.23" waitingTime="12.00" waitingCount="2" stopTime="0.00" timeLoss="72.41" rerouteNo="0" devices="tripinfo_flow_route_93_duration_20250327_2030.6" vType="car" speedFactor="1.01" vaporized=""/>
    <tripinfo id="flow_route_92_duration_20250327_2030.9" depart="63.00" departLane="133000063_0" departPos="2.29" departSpeed="0.00" departDelay="27.00" arrival="163.00" arrivalLane="186409193_0" arrivalPos="57.31" arrivalSpeed="15.43" duration="100.00" routeLength="446.88" waitingTime="18.00" waitingCount="2" stopTime="0.00" timeLoss="71.99" rerouteNo="0" devices="tripinfo_flow_route_92_duration_20250327_2030.9" vType="car" speedFactor="1.10" vaporized=""/>