<?xml version="1.0" encoding="UTF-8"?>

<!-- generated on 2025-05-06 21:08:34 by Eclipse SUMO sumo Version 1.20.0
<configuration xmlns:xsi="http://www.w3.org/2001/XMLSchema-instance" xsi:noNamespaceSchemaLocation="http://sumo.dlr.de/xsd/sumoConfiguration.xsd">

    <input>
        <net-file value="osm.net.xml"/>
        <route-files value="xml/route_rl_cluster_11648745684_256036885_3839031483_5.rou.xml"/>
    </input>

    <output>
        <tripinfo-output value="xml/tripinfo_rl_cluster_11648745684_256036885_3839031483_5.xml"/>
    </output>

    <traci_server>
        <remote-port value="38137"/>
    </traci_server>

</configuration>
-->

<tripinfos xmlns:xsi="http://www.w3.org/2001/XMLSchema-instance" xsi:noNamespaceSchemaLocation="http://sumo.dlr.de/xsd/tripinfo_file.xsd">
    <tripinfo id="flow_route_72_duration_20250327_2100.0" depart="0.00" departLane="1369578052#0_0" departPos="161.40" departSpeed="0.00" departDelay="0.00" arrival="15.00" arrivalLane="133342692#0_0" arrivalPos="42.43" arrivalSpeed="11.65" duration="15.00" routeLength="81.12" waitingTime="0.00" waitingCount="0" stopTime="0.00" timeLoss="8.08" rerouteNo="0" devices="tripinfo_flow_route_72_duration_20250327_2100.0" vType="car" speedFactor="0.89" vaporized=""/>
    <tripinfo id="flow_route_68_duration_20250327_2100.0" depart="0.00" departLane="1253209803#0_0" departPos="143.52" departSpeed="0.00" departDelay="0.00" arrival="29.00" arrivalLane="-138002002#2_1" arrivalPos="90.53" arrivalSpeed="16.38" duration="29.00" routeLength="298.33" waitingTime="0.00" waitingCount="0" stopTime="0.00" timeLoss="10.86" rerouteNo="0" devices="tripinfo_flow_route_68_duration_20250327_2100.0" vType="car" speedFactor="1.08" vaporized=""/>
    <tripinfo id="flow_route_70_duration_20250327_2100.0" depart="0.00" departLane="1253209803#0_0" departPos="83.97" departSpeed="0.00" departDelay="0.00" arrival="32.00" arrivalLane="133342692#0_2" arrivalPos="7.48" arrivalSpeed="9.70" duration="32.00" routeLength="271.18" waitingTime="0.00" waitingCount="0" stopTime="0.00" timeLoss="13.58" rerouteNo="0" devices="tripinfo_flow_route_70_duration_20250327_2100.0" vType="car" speedFactor="0.83" vaporized=""/>
    <tripinfo id="flow_route_69_duration_20250327_2100.0" depart="0.00" departLane="1253209803#0_0" departPos="179.76" departSpeed="0.00" departDelay="0.00" arrival="33.00" arrivalLane="380585337#0_0" arrivalPos="14.31" arrivalSpeed="16.26" duration="33.00" routeLength="299.43" waitingTime="0.00" waitingCount="0" stopTime="0.00" timeLoss="14.46" rerouteNo="0" devices="tripinfo_flow_route_69_duration_20250327_2100.0" vType="car" speedFactor="1.03" vaporized=""/>
    <tripinfo id="flow_route_68_duration_20250327_2100.1" depart="8.00" departLane="1253209803#0_0" departPos="105.17" departSpeed="0.00" departDelay="0.50" arrival="35.00" arrivalLane="-138002002#2_1" arrivalPos="5.49" arrivalSpeed="14.98" duration="27.00" routeLength="251.64" waitingTime="0.00" waitingCount="0" stopTime="0.00" timeLoss="11.53" rerouteNo="0" devices="tripinfo_flow_route_68_duration_20250327_2100.1" vType="car" speedFactor="0.93" vaporized=""/>
    <tripinfo id="flow_route_68_duration_20250327_2100.2" depart="15.00" departLane="1253209803#0_0" departPos="203.69" departSpeed="0.00" departDelay="0.00" arrival="37.00" arrivalLane="-138002002#2_0" arrivalPos="31.02" arrivalSpeed="13.52" duration="22.00" routeLength="178.65" waitingTime="0.00" waitingCount="0" stopTime="0.00" timeLoss="10.41" rerouteNo="0" devices="tripinfo_flow_route_68_duration_20250327_2100.2" vType="car" speedFactor="0.83" vaporized=""/>
    <tripinfo id="flow_route_71_duration_20250327_2100.0" depart="0.00" departLane="1369578052#0_0" departPos="11.11" departSpeed="0.00" departDelay="0.00" arrival="38.00" arrivalLane="138002016#0_0" arrivalPos="236.62" arrivalSpeed="16.21" duration="38.00" routeLength="443.19" waitingTime="0.00" waitingCount="0" stopTime="0.00" timeLoss="10.76" rerouteNo="0" devices="tripinfo_flow_route_71_duration_20250327_2100.0" vType="car" speedFactor="1.05" vaporized=""/>
    <tripinfo id="flow_route_68_duration_20250327_2100.3" depart="23.00" departLane="1253209803#0_0" departPos="185.71" departSpeed="0.00" departDelay="0.50" arrival="52.00" arrivalLane="-138002002#2_0" arrivalPos="94.47" arrivalSpeed="16.13" duration="29.00" routeLength="260.07" waitingTime="0.00" waitingCount="0" stopTime="0.00" timeLoss="12.92" rerouteNo="0" devices="tripinfo_flow_route_68_duration_20250327_2100.3" vType="car" speedFactor="1.02" vaporized=""/>
    <tripinfo id="flow_route_68_duration_20250327_2100.4" depart="30.00" departLane="1253209803#0_0" departPos="89.27" departSpeed="0.00" departDelay="0.00" arrival="59.00" arrivalLane="-138002002#2_1" arrivalPos="18.70" arrivalSpeed="16.53" duration="29.00" routeLength="280.75" waitingTime="0.00" waitingCount="0" stopTime="0.00" timeLoss="11.56" rerouteNo="0" devices="tripinfo_flow_route_68_duration_20250327_2100.4" vType="car" speedFactor="1.04" vaporized=""/>
    <tripinfo id="flow_route_70_duration_20250327_2100.1" depart="15.00" departLane="1253209803#0_0" departPos="48.20" departSpeed="0.00" departDelay="0.00" arrival="60.00" arrivalLane="133342692#0_2" arrivalPos="163.72" arrivalSpeed="14.05" duration="45.00" routeLength="463.19" waitingTime="0.00" waitingCount="0" stopTime="0.00" timeLoss="13.16" rerouteNo="0" devices="tripinfo_flow_route_70_duration_20250327_2100.1" vType="car" speedFactor="0.87" vaporized=""/>
    <tripinfo id="flow_route_70_duration_20250327_2100.2" depart="30.00" departLane="1253209803#0_0" departPos="226.09" departSpeed="0.00" departDelay="0.00" arrival="60.00" arrivalLane="133342692#0_2" arrivalPos="79.95" arrivalSpeed="14.17" duration="30.00" routeLength="201.53" waitingTime="0.00" waitingCount="0" stopTime="0.00" timeLoss="16.37" rerouteNo="0" devices="tripinfo_flow_route_70_duration_20250327_2100.2" vType="car" speedFactor="1.09" vaporized=""/>
    <tripinfo id="flow_route_68_duration_20250327_2100.6" depart="45.00" departLane="1253209803#0_0" departPos="229.56" departSpeed="0.00" departDelay="0.00" arrival="68.00" arrivalLane="-138002002#2_0" arrivalPos="85.27" arrivalSpeed="15.30" duration="23.00" routeLength="207.03" waitingTime="0.00" waitingCount="0" stopTime="0.00" timeLoss="10.12" rerouteNo="0" devices="tripinfo_flow_route_68_duration_20250327_2100.6" vType="car" speedFactor="0.94" vaporized=""/>
    <tripinfo id="flow_route_68_duration_20250327_2100.5" depart="38.00" departLane="1253209803#0_0" departPos="174.36" departSpeed="0.00" departDelay="0.50" arrival="71.00" arrivalLane="-138002002#2_1" arrivalPos="118.10" arrivalSpeed="16.35" duration="33.00" routeLength="295.07" waitingTime="0.00" waitingCount="0" stopTime="0.00" timeLoss="14.82" rerouteNo="0" devices="tripinfo_flow_route_68_duration_20250327_2100.5" vType="car" speedFactor="1.00" vaporized=""/>
    <tripinfo id="flow_route_68_duration_20250327_2100.7" depart="53.00" departLane="1253209803#0_0" departPos="235.25" departSpeed="0.00" departDelay="0.50" arrival="73.00" arrivalLane="-138002002#2_0" arrivalPos="15.58" arrivalSpeed="13.55" duration="20.00" routeLength="131.65" waitingTime="0.00" waitingCount="0" stopTime="0.00" timeLoss="11.28" rerouteNo="0" devices="tripinfo_flow_route_68_duration_20250327_2100.7" vType="car" speedFactor="0.96" vaporized=""/>
    <tripinfo id="flow_route_63_duration_20250327_2100.1" depart="14.00" departLane="133131666#1_0" departPos="6.83" departSpeed="0.00" departDelay="8.55" arrival="81.00" arrivalLane="133342692#0_1" arrivalPos="5.56" arrivalSpeed="6.87" duration="67.00" routeLength="182.45" waitingTime="36.00" waitingCount="1" stopTime="0.00" timeLoss="55.72" rerouteNo="0" devices="tripinfo_flow_route_63_duration_20250327_2100.1" vType="car" speedFactor="1.12" vaporized=""/>
    <tripinfo id="flow_route_65_duration_20250327_2100.0" depart="6.00" departLane="133131666#1_0" departPos="6.70" departSpeed="0.00" departDelay="6.00" arrival="82.00" arrivalLane="138002016#0_2" arrivalPos="14.48" arrivalSpeed="8.20" duration="76.00" routeLength="192.24" waitingTime="44.00" waitingCount="1" stopTime="0.00" timeLoss="63.45" rerouteNo="0" devices="tripinfo_flow_route_65_duration_20250327_2100.0" vType="car" speedFactor="1.01" vaporized=""/>
    <tripinfo id="flow_route_70_duration_20250327_2100.3" depart="45.00" departLane="1253209803#0_0" departPos="141.14" departSpeed="0.00" departDelay="0.00" arrival="84.00" arrivalLane="133342692#0_2" arrivalPos="144.65" arrivalSpeed="14.33" duration="39.00" routeLength="351.18" waitingTime="0.00" waitingCount="0" stopTime="0.00" timeLoss="14.77" rerouteNo="0" devices="tripinfo_flow_route_70_duration_20250327_2100.3" vType="car" speedFactor="0.88" vaporized=""/>
    <tripinfo id="flow_route_64_duration_20250327_2100.1" depart="21.00" departLane="133131666#1_0" departPos="4.71" departSpeed="0.00" departDelay="12.43" arrival="86.00" arrivalLane="-138002002#2_0" arrivalPos="23.83" arrivalSpeed="8.10" duration="65.00" routeLength="184.67" waitingTime="28.00" waitingCount="1" stopTime="0.00" timeLoss="50.77" rerouteNo="0" devices="tripinfo_flow_route_64_duration_20250327_2100.1" vType="car" speedFactor="0.88" vaporized=""/>
    <tripinfo id="flow_route_64_duration_20250327_2100.2" depart="35.00" departLane="133131666#1_0" departPos="7.65" departSpeed="0.00" departDelay="17.86" arrival="89.00" arrivalLane="-138002002#2_0" arrivalPos="32.97" arrivalSpeed="9.52" duration="54.00" routeLength="190.87" waitingTime="20.00" waitingCount="1" stopTime="0.00" timeLoss="41.55" rerouteNo="0" devices="tripinfo_flow_route_64_duration_20250327_2100.2" vType="car" speedFactor="1.13" vaporized=""/>
    <tripinfo id="flow_route_65_duration_20250327_2100.2" depart="16.00" departLane="133131666#1_0" departPos="0.62" departSpeed="0.00" departDelay="9.33" arrival="90.00" arrivalLane="138002016#0_2" arrivalPos="50.65" arrivalSpeed="12.18" duration="74.00" routeLength="234.49" waitingTime="36.00" waitingCount="1" stopTime="0.00" timeLoss="58.61" rerouteNo="0" devices="tripinfo_flow_route_65_duration_20250327_2100.2" vType="car" speedFactor="0.99" vaporized=""/>
    <tripinfo id="flow_route_64_duration_20250327_2100.0" depart="2.00" departLane="133131666#1_0" departPos="6.82" departSpeed="0.00" departDelay="2.00" arrival="92.00" arrivalLane="-138002002#2_0" arrivalPos="131.25" arrivalSpeed="14.76" duration="90.00" routeLength="289.98" waitingTime="49.00" waitingCount="1" stopTime="0.00" timeLoss="70.21" rerouteNo="0" devices="tripinfo_flow_route_64_duration_20250327_2100.0" vType="car" speedFactor="0.94" vaporized=""/>
    <tripinfo id="flow_route_63_duration_20250327_2100.2" depart="24.00" departLane="133131666#1_0" departPos="21.69" departSpeed="0.00" departDelay="13.09" arrival="92.00" arrivalLane="133342692#0_1" arrivalPos="114.55" arrivalSpeed="15.26" duration="68.00" routeLength="276.58" waitingTime="28.00" waitingCount="1" stopTime="0.00" timeLoss="51.25" rerouteNo="0" devices="tripinfo_flow_route_63_duration_20250327_2100.2" vType="car" speedFactor="1.01" vaporized=""/>
    <tripinfo id="flow_route_63_duration_20250327_2100.0" depart="0.00" departLane="133131666#1_0" departPos="14.94" departSpeed="0.00" departDelay="0.00" arrival="93.00" arrivalLane="133342692#0_0" arrivalPos="152.76" arrivalSpeed="16.59" duration="93.00" routeLength="321.54" waitingTime="50.00" waitingCount="1" stopTime="0.00" timeLoss="73.12" rerouteNo="0" devices="tripinfo_flow_route_63_duration_20250327_2100.0" vType="car" speedFactor="1.06" vaporized=""/>
    <tripinfo id="flow_route_63_duration_20250327_2100.3" depart="29.00" departLane="133131666#1_0" departPos="9.13" departSpeed="0.00" departDelay="12.64" arrival="93.00" arrivalLane="133342692#0_1" arrivalPos="93.74" arrivalSpeed="13.87" duration="64.00" routeLength="268.34" waitingTime="24.00" waitingCount="1" stopTime="0.00" timeLoss="46.27" rerouteNo="0" devices="tripinfo_flow_route_63_duration_20250327_2100.3" vType="car" speedFactor="0.92" vaporized=""/>
    <tripinfo id="flow_route_63_duration_20250327_2100.7" depart="71.00" departLane="133131666#1_0" departPos="20.39" departSpeed="0.00" departDelay="32.82" arrival="93.00" arrivalLane="133342692#0_1" arrivalPos="2.51" arrivalSpeed="14.73" duration="22.00" routeLength="165.84" waitingTime="0.00" waitingCount="0" stopTime="0.00" timeLoss="11.21" rerouteNo="0" devices="tripinfo_flow_route_63_duration_20250327_2100.7" vType="car" speedFactor="1.00" vaporized=""/>
    <tripinfo id="flow_route_65_duration_20250327_2100.3" depart="21.00" departLane="133131666#1_0" departPos="15.07" departSpeed="0.00" departDelay="11.00" arrival="95.00" arrivalLane="138002016#0_2" arrivalPos="84.07" arrivalSpeed="14.40" duration="74.00" routeLength="253.46" waitingTime="32.00" waitingCount="1" stopTime="0.00" timeLoss="56.20" rerouteNo="0" devices="tripinfo_flow_route_65_duration_20250327_2100.3" vType="car" speedFactor="0.94" vaporized=""/>
    <tripinfo id="flow_route_63_duration_20250327_2100.4" depart="41.00" departLane="133131666#1_0" departPos="0.02" departSpeed="0.00" departDelay="19.18" arrival="96.00" arrivalLane="133342692#0_1" arrivalPos="105.46" arrivalSpeed="14.98" duration="55.00" routeLength="289.16" waitingTime="13.00" waitingCount="1" stopTime="0.00" timeLoss="36.94" rerouteNo="0" devices="tripinfo_flow_route_63_duration_20250327_2100.4" vType="car" speedFactor="0.99" vaporized=""/>
    <tripinfo id="flow_route_63_duration_20250327_2100.6" depart="60.00" departLane="133131666#1_0" departPos="4.93" departSpeed="0.00" departDelay="27.28" arrival="97.00" arrivalLane="133342692#0_0" arrivalPos="63.71" arrivalSpeed="13.68" duration="37.00" routeLength="242.51" waitingTime="0.00" waitingCount="0" stopTime="0.00" timeLoss="20.21" rerouteNo="0" devices="tripinfo_flow_route_63_duration_20250327_2100.6" vType="car" speedFactor="0.90" vaporized=""/>
    <tripinfo id="flow_route_64_duration_20250327_2100.3" depart="47.00" departLane="133131666#1_0" departPos="2.87" departSpeed="0.00" departDelay="21.29" arrival="98.00" arrivalLane="-138002002#2_0" arrivalPos="115.17" arrivalSpeed="14.99" duration="51.00" routeLength="277.85" waitingTime="8.00" waitingCount="1" stopTime="0.00" timeLoss="32.90" rerouteNo="0" devices="tripinfo_flow_route_64_duration_20250327_2100.3" vType="car" speedFactor="1.10" vaporized=""/>
    <tripinfo id="flow_route_64_duration_20250327_2100.4" depart="67.00" departLane="133131666#1_0" departPos="0.30" departSpeed="0.00" departDelay="32.72" arrival="98.00" arrivalLane="-138002002#2_0" arrivalPos="28.29" arrivalSpeed="8.28" duration="31.00" routeLength="193.54" waitingTime="0.00" waitingCount="0" stopTime="0.00" timeLoss="16.82" rerouteNo="0" devices="tripinfo_flow_route_64_duration_20250327_2100.4" vType="car" speedFactor="0.85" vaporized=""/>
    <tripinfo id="flow_route_65_duration_20250327_2100.6" depart="40.00" departLane="133131666#1_0" departPos="7.68" departSpeed="0.00" departDelay="20.00" arrival="100.00" arrivalLane="138002016#0_2" arrivalPos="57.51" arrivalSpeed="12.74" duration="60.00" routeLength="234.30" waitingTime="20.00" waitingCount="1" stopTime="0.00" timeLoss="45.10" rerouteNo="0" devices="tripinfo_flow_route_65_duration_20250327_2100.6" vType="car" speedFactor="1.15" vaporized=""/>
    <tripinfo id="flow_route_63_duration_20250327_2100.5" depart="56.00" departLane="133131666#1_0" departPos="16.41" departSpeed="0.00" departDelay="28.73" arrival="100.00" arrivalLane="133342692#0_1" arrivalPos="149.82" arrivalSpeed="15.83" duration="44.00" routeLength="317.13" waitingTime="0.00" waitingCount="0" stopTime="0.00" timeLoss="23.85" rerouteNo="0" devices="tripinfo_flow_route_63_duration_20250327_2100.5" vType="car" speedFactor="0.96" vaporized=""/>
    <tripinfo id="flow_route_65_duration_20250327_2100.1" depart="10.00" departLane="133131666#1_0" departPos="12.69" departSpeed="0.00" departDelay="6.67" arrival="101.00" arrivalLane="138002016#0_2" arrivalPos="262.42" arrivalSpeed="16.10" duration="91.00" routeLength="434.19" waitingTime="41.00" waitingCount="1" stopTime="0.00" timeLoss="63.77" rerouteNo="0" devices="tripinfo_flow_route_65_duration_20250327_2100.1" vType="car" speedFactor="1.03" vaporized=""/>
    <tripinfo id="flow_route_65_duration_20250327_2100.7" depart="43.00" departLane="133131666#1_0" departPos="18.90" departSpeed="0.00" departDelay="19.67" arrival="107.00" arrivalLane="138002016#0_2" arrivalPos="132.81" arrivalSpeed="15.91" duration="64.00" routeLength="298.37" waitingTime="16.00" waitingCount="1" stopTime="0.00" timeLoss="44.32" rerouteNo="0" devices="tripinfo_flow_route_65_duration_20250327_2100.7" vType="car" speedFactor="0.97" vaporized=""/>
    <tripinfo id="flow_route_64_duration_20250327_2100.5" depart="77.00" departLane="133131666#1_0" departPos="11.25" departSpeed="0.00" departDelay="34.15" arrival="107.00" arrivalLane="-138002002#2_0" arrivalPos="75.87" arrivalSpeed="12.66" duration="30.00" routeLength="230.16" waitingTime="0.00" waitingCount="0" stopTime="0.00" timeLoss="15.08" rerouteNo="0" devices="tripinfo_flow_route_64_duration_20250327_2100.5" vType="car" speedFactor="1.08" vaporized=""/>
    <tripinfo id="flow_route_65_duration_20250327_2100.4" depart="24.00" departLane="133131666#1_0" departPos="0.53" departSpeed="0.00" departDelay="10.67" arrival="110.00" arrivalLane="138002016#0_2" arrivalPos="297.67" arrivalSpeed="15.79" duration="86.00" routeLength="481.60" waitingTime="30.00" waitingCount="1" stopTime="0.00" timeLoss="54.86" rerouteNo="0" devices="tripinfo_flow_route_65_duration_20250327_2100.4" vType="car" speedFactor="0.97" vaporized=""/>
    <tripinfo id="flow_route_65_duration_20250327_2100.5" depart="32.00" departLane="133131666#1_0" departPos="3.13" departSpeed="0.00" departDelay="15.34" arrival="112.00" arrivalLane="138002016#0_2" arrivalPos="295.46" arrivalSpeed="15.37" duration="80.00" routeLength="476.79" waitingTime="26.00" waitingCount="1" stopTime="0.00" timeLoss="48.79" rerouteNo="0" devices="tripinfo_flow_route_65_duration_20250327_2100.5" vType="car" speedFactor="0.95" vaporized=""/>
    <tripinfo id="flow_route_63_duration_20250327_2100.8" depart="81.00" departLane="133131666#1_0" departPos="8.55" departSpeed="0.00" departDelay="37.37" arrival="113.00" arrivalLane="133342692#0_0" arrivalPos="170.89" arrivalSpeed="16.55" duration="32.00" routeLength="346.07" waitingTime="0.00" waitingCount="0" stopTime="0.00" timeLoss="10.43" rerouteNo="0" devices="tripinfo_flow_route_63_duration_20250327_2100.8" vType="car" speedFactor="1.02" vaporized=""/>
    <tripinfo id="flow_route_65_duration_20250327_2100.8" depart="54.00" departLane="133131666#1_0" departPos="2.65" departSpeed="0.00" departDelay="27.34" arrival="114.00" arrivalLane="138002016#0_2" arrivalPos="226.27" arrivalSpeed="16.54" duration="60.00" routeLength="408.08" waitingTime="8.00" waitingCount="1" stopTime="0.00" timeLoss="34.40" rerouteNo="0" devices="tripinfo_flow_route_65_duration_20250327_2100.8" vType="car" speedFactor="1.03" vaporized=""/>
    <tripinfo id="flow_route_75_duration_20250327_2100.0" depart="0.00" departLane="380593307#0_0" departPos="8.02" departSpeed="0.00" departDelay="0.00" arrival="117.00" arrivalLane="-138002002#2_1" arrivalPos="1.11" arrivalSpeed="6.53" duration="117.00" routeLength="196.85" waitingTime="85.00" waitingCount="1" stopTime="0.00" timeLoss="104.44" rerouteNo="0" devices="tripinfo_flow_route_75_duration_20250327_2100.0" vType="car" speedFactor="1.09" vaporized=""/>
    <tripinfo id="flow_route_65_duration_20250327_2100.9" depart="57.00" departLane="133131666#1_0" departPos="2.43" departSpeed="0.00" departDelay="27.00" arrival="118.00" arrivalLane="138002016#0_2" arrivalPos="222.68" arrivalSpeed="16.39" duration="61.00" routeLength="404.71" waitingTime="7.00" waitingCount="1" stopTime="0.00" timeLoss="36.04" rerouteNo="0" devices="tripinfo_flow_route_65_duration_20250327_2100.9" vType="car" speedFactor="1.04" vaporized=""/>
    <tripinfo id="flow_route_65_duration_20250327_2100.10" depart="65.00" departLane="133131666#1_0" departPos="6.88" departSpeed="0.00" departDelay="31.67" arrival="121.00" arrivalLane="138002016#0_2" arrivalPos="214.99" arrivalSpeed="13.74" duration="56.00" routeLength="392.57" waitingTime="2.00" waitingCount="1" stopTime="0.00" timeLoss="27.15" rerouteNo="0" devices="tripinfo_flow_route_65_duration_20250327_2100.10" vType="car" speedFactor="0.85" vaporized=""/>
    <tripinfo id="flow_route_65_duration_20250327_2100.12" depart="74.00" departLane="133131666#1_0" departPos="0.88" departSpeed="0.00" departDelay="34.00" arrival="121.00" arrivalLane="138002016#0_2" arrivalPos="153.66" arrivalSpeed="14.86" duration="47.00" routeLength="337.25" waitingTime="0.00" waitingCount="0" stopTime="0.00" timeLoss="23.13" rerouteNo="0" devices="tripinfo_flow_route_65_duration_20250327_2100.12" vType="car" speedFactor="0.90" vaporized=""/>
    <tripinfo id="flow_route_75_duration_20250327_2100.1" depart="10.00" departLane="380593307#0_0" departPos="15.46" departSpeed="0.00" departDelay="0.00" arrival="123.00" arrivalLane="-138002002#2_1" arrivalPos="30.94" arrivalSpeed="10.56" duration="113.00" routeLength="219.24" waitingTime="78.00" waitingCount="1" stopTime="0.00" timeLoss="98.71" rerouteNo="0" devices="tripinfo_flow_route_75_duration_20250327_2100.1" vType="car" speedFactor="1.02" vaporized=""/>
    <tripinfo id="flow_route_75_duration_20250327_2100.2" depart="20.00" departLane="380593307#0_0" departPos="50.35" departSpeed="0.00" departDelay="0.00" arrival="123.00" arrivalLane="-138002002#2_1" arrivalPos="14.74" arrivalSpeed="9.44" duration="103.00" routeLength="168.14" waitingTime="71.00" waitingCount="1" stopTime="0.00" timeLoss="92.36" rerouteNo="0" devices="tripinfo_flow_route_75_duration_20250327_2100.2" vType="car" speedFactor="1.17" vaporized=""/>
    <tripinfo id="flow_route_65_duration_20250327_2100.11" depart="68.00" departLane="133131666#1_0" departPos="12.78" departSpeed="0.00" departDelay="31.34" arrival="123.00" arrivalLane="138002016#0_2" arrivalPos="216.75" arrivalSpeed="16.33" duration="55.00" routeLength="388.43" waitingTime="0.00" waitingCount="0" stopTime="0.00" timeLoss="30.36" rerouteNo="0" devices="tripinfo_flow_route_65_duration_20250327_2100.11" vType="car" speedFactor="1.02" vaporized=""/>
    <tripinfo id="flow_route_74_duration_20250327_2100.2" depart="10.00" departLane="380593307#0_0" departPos="140.92" departSpeed="0.00" departDelay="0.77" arrival="127.00" arrivalLane="138002016#0_0" arrivalPos="71.03" arrivalSpeed="12.31" duration="117.00" routeLength="112.80" waitingTime="93.00" waitingCount="1" stopTime="0.00" timeLoss="108.93" rerouteNo="0" devices="tripinfo_flow_route_74_duration_20250327_2100.2" vType="car" speedFactor="1.16" vaporized=""/>
    <tripinfo id="flow_route_73_duration_20250327_2100.0" depart="0.00" departLane="380593307#0_0" departPos="55.90" departSpeed="0.00" departDelay="0.00" arrival="129.00" arrivalLane="380585337#0_1" arrivalPos="13.23" arrivalSpeed="15.40" duration="129.00" routeLength="294.01" waitingTime="89.00" waitingCount="1" stopTime="0.00" timeLoss="109.90" rerouteNo="0" devices="tripinfo_flow_route_73_duration_20250327_2100.0" vType="car" speedFactor="0.94" vaporized=""/>
    <tripinfo id="flow_route_73_duration_20250327_2100.1" depart="9.00" departLane="380593307#0_0" departPos="167.45" departSpeed="0.00" departDelay="0.43" arrival="129.00" arrivalLane="380585337#0_0" arrivalPos="3.04" arrivalSpeed="15.43" duration="120.00" routeLength="172.27" waitingTime="95.00" waitingCount="1" stopTime="0.00" timeLoss="108.12" rerouteNo="0" devices="tripinfo_flow_route_73_duration_20250327_2100.1" vType="car" speedFactor="0.94" vaporized=""/>
    <tripinfo id="flow_route_75_duration_20250327_2100.4" depart="45.00" departLane="380593307#0_0" departPos="26.62" departSpeed="0.00" departDelay="5.00" arrival="129.00" arrivalLane="-138002002#2_1" arrivalPos="30.86" arrivalSpeed="11.63" duration="84.00" routeLength="207.99" waitingTime="48.00" waitingCount="1" stopTime="0.00" timeLoss="70.37" rerouteNo="0" devices="tripinfo_flow_route_75_duration_20250327_2100.4" vType="car" speedFactor="1.02" vaporized=""/>
    <tripinfo id="flow_route_74_duration_20250327_2100.4" depart="19.00" departLane="380593307#0_0" departPos="35.97" departSpeed="0.00" departDelay="0.54" arrival="130.00" arrivalLane="138002016#0_0" arrivalPos="27.38" arrivalSpeed="9.08" duration="111.00" routeLength="174.11" waitingTime="71.00" waitingCount="1" stopTime="0.00" timeLoss="99.96" rerouteNo="0" devices="tripinfo_flow_route_74_duration_20250327_2100.4" vType="car" speedFactor="1.18" vaporized=""/>
    <tripinfo id="flow_route_73_duration_20250327_2100.2" depart="18.00" departLane="380593307#0_0" departPos="58.86" departSpeed="0.00" departDelay="0.86" arrival="132.00" arrivalLane="380585337#0_1" arrivalPos="24.07" arrivalSpeed="15.37" duration="114.00" routeLength="301.90" waitingTime="74.00" waitingCount="1" stopTime="0.00" timeLoss="94.17" rerouteNo="0" devices="tripinfo_flow_route_73_duration_20250327_2100.2" vType="car" speedFactor="0.93" vaporized=""/>
    <tripinfo id="flow_route_75_duration_20250327_2100.3" depart="30.00" departLane="380593307#0_0" departPos="21.58" departSpeed="0.00" departDelay="0.00" arrival="133.00" arrivalLane="-138002002#2_1" arrivalPos="121.91" arrivalSpeed="16.48" duration="103.00" routeLength="304.09" waitingTime="61.00" waitingCount="1" stopTime="0.00" timeLoss="83.66" rerouteNo="0" devices="tripinfo_flow_route_75_duration_20250327_2100.3" vType="car" speedFactor="1.00" vaporized=""/>
    <tripinfo id="flow_route_73_duration_20250327_2100.3" depart="26.00" departLane="380593307#0_0" departPos="73.80" departSpeed="0.00" departDelay="0.29" arrival="134.00" arrivalLane="380585337#0_1" arrivalPos="22.44" arrivalSpeed="14.71" duration="108.00" routeLength="285.32" waitingTime="68.00" waitingCount="1" stopTime="0.00" timeLoss="88.35" rerouteNo="0" devices="tripinfo_flow_route_73_duration_20250327_2100.3" vType="car" speedFactor="0.90" vaporized=""/>
    <tripinfo id="flow_route_73_duration_20250327_2100.4" depart="37.00" departLane="380593307#0_0" departPos="17.86" departSpeed="0.00" departDelay="2.72" arrival="135.00" arrivalLane="380585337#0_1" arrivalPos="21.94" arrivalSpeed="15.16" duration="98.00" routeLength="340.76" waitingTime="55.00" waitingCount="1" stopTime="0.00" timeLoss="77.36" rerouteNo="0" devices="tripinfo_flow_route_73_duration_20250327_2100.4" vType="car" speedFactor="1.17" vaporized=""/>
    <tripinfo id="flow_route_73_duration_20250327_2100.5" depart="47.00" departLane="380593307#0_0" departPos="19.91" departSpeed="0.00" departDelay="4.15" arrival="136.00" arrivalLane="380585337#0_1" arrivalPos="2.77" arrivalSpeed="16.20" duration="89.00" routeLength="319.55" waitingTime="45.00" waitingCount="1" stopTime="0.00" timeLoss="69.17" rerouteNo="0" devices="tripinfo_flow_route_73_duration_20250327_2100.5" vType="car" speedFactor="1.12" vaporized=""/>
    <tripinfo id="flow_route_74_duration_20250327_2100.0" depart="0.00" departLane="380593307#0_0" departPos="118.68" departSpeed="0.00" departDelay="0.00" arrival="137.00" arrivalLane="138002016#0_0" arrivalPos="237.21" arrivalSpeed="13.89" duration="137.00" routeLength="301.22" waitingTime="95.00" waitingCount="1" stopTime="0.00" timeLoss="114.28" rerouteNo="0" devices="tripinfo_flow_route_74_duration_20250327_2100.0" vType="car" speedFactor="0.86" vaporized=""/>
    <tripinfo id="flow_route_74_duration_20250327_2100.1" depart="5.00" departLane="380593307#0_0" departPos="41.10" departSpeed="0.00" departDelay="0.39" arrival="137.00" arrivalLane="138002016#0_0" arrivalPos="126.25" arrivalSpeed="14.76" duration="132.00" routeLength="267.84" waitingTime="85.00" waitingCount="1" stopTime="0.00" timeLoss="114.18" rerouteNo="0" devices="tripinfo_flow_route_74_duration_20250327_2100.1" vType="car" speedFactor="1.05" vaporized=""/>
    <tripinfo id="flow_route_74_duration_20250327_2100.9" depart="45.00" departLane="380593307#0_0" departPos="77.52" departSpeed="0.00" departDelay="3.47" arrival="137.00" arrivalLane="138002016#0_0" arrivalPos="3.71" arrivalSpeed="5.54" duration="92.00" routeLength="108.88" waitingTime="64.00" waitingCount="1" stopTime="0.00" timeLoss="84.10" rerouteNo="0" devices="tripinfo_flow_route_74_duration_20250327_2100.9" vType="car" speedFactor="0.97" vaporized=""/>
    <tripinfo id="flow_route_73_duration_20250327_2100.6" depart="60.00" departLane="380593307#0_0" departPos="40.10" departSpeed="0.00" departDelay="8.57" arrival="138.00" arrivalLane="380585337#0_1" arrivalPos="13.79" arrivalSpeed="16.43" duration="78.00" routeLength="310.37" waitingTime="31.00" waitingCount="1" stopTime="0.00" timeLoss="58.92" rerouteNo="0" devices="tripinfo_flow_route_73_duration_20250327_2100.6" vType="car" speedFactor="1.06" vaporized=""/>
    <tripinfo id="flow_route_75_duration_20250327_2100.5" depart="56.00" departLane="380593307#0_0" departPos="33.09" departSpeed="0.00" departDelay="6.00" arrival="139.00" arrivalLane="-138002002#2_1" arrivalPos="156.72" arrivalSpeed="16.52" duration="83.00" routeLength="327.39" waitingTime="39.00" waitingCount="1" stopTime="0.00" timeLoss="62.14" rerouteNo="0" devices="tripinfo_flow_route_75_duration_20250327_2100.5" vType="car" speedFactor="1.02" vaporized=""/>
    <tripinfo id="flow_route_74_duration_20250327_2100.5" depart="24.00" departLane="380593307#0_0" departPos="18.18" departSpeed="0.00" departDelay="0.93" arrival="142.00" arrivalLane="138002016#0_0" arrivalPos="116.25" arrivalSpeed="14.51" duration="118.00" routeLength="280.76" waitingTime="68.00" waitingCount="1" stopTime="0.00" timeLoss="99.87" rerouteNo="0" devices="tripinfo_flow_route_74_duration_20250327_2100.5" vType="car" speedFactor="1.18" vaporized=""/>