<?xml version="1.0" encoding="UTF-8"?>

<!-- generated on 2025-05-06 21:07:39 by Eclipse SUMO sumo Version 1.20.0
<configuration xmlns:xsi="http://www.w3.org/2001/XMLSchema-instance" xsi:noNamespaceSchemaLocation="http://sumo.dlr.de/xsd/sumoConfiguration.xsd">

    <input>
        <net-file value="osm.net.xml"/>
        <route-files value="xml/route_rl_GS_cluster_4854142864_4854142865_0.rou.xml"/>
    </input>

    <output>
        <tripinfo-output value="xml/tripinfo_rl_GS_cluster_4854142864_4854142865_0.xml"/>
    </output>

    <traci_server>
        <remote-port value="45969"/>
    </traci_server>

</configuration>
-->

<tripinfos xmlns:xsi="http://www.w3.org/2001/XMLSchema-instance" xsi:noNamespaceSchemaLocation="http://sumo.dlr.de/xsd/tripinfo_file.xsd">
    <tripinfo id="flow_route_39_duration_20250327_1910.0" depart="0.00" departLane="133126030#0_0" departPos="101.03" departSpeed="0.00" departDelay="0.00" arrival="29.00" arrivalLane="1328664748#0_1" arrivalPos="158.52" arrivalSpeed="15.14" duration="29.00" routeLength="263.70" waitingTime="0.00" waitingCount="0" stopTime="0.00" timeLoss="11.69" rerouteNo="0" devices="tripinfo_flow_route_39_duration_20250327_1910.0" vType="car" speedFactor="0.94" vaporized=""/>
    <tripinfo id="flow_route_38_duration_20250327_1910.2" depart="7.00" departLane="133126030#0_0" departPos="141.65" departSpeed="0.00" departDelay="0.69" arrival="29.00" arrivalLane="134193294#0_0" arrivalPos="40.61" arrivalSpeed="9.56" duration="22.00" routeLength="93.83" waitingTime="0.00" waitingCount="0" stopTime="0.00" timeLoss="15.38" rerouteNo="0" devices="tripinfo_flow_route_38_duration_20250327_1910.2" vType="car" speedFactor="1.12" vaporized=""/>
    <tripinfo id="flow_route_38_duration_20250327_1910.4" depart="13.00" departLane="133126030#0_0" departPos="173.26" departSpeed="0.00" departDelay="0.37" arrival="34.00" arrivalLane="134193294#0_0" arrivalPos="122.75" arrivalSpeed="14.71" duration="21.00" routeLength="144.37" waitingTime="0.00" waitingCount="0" stopTime="0.00" timeLoss="9.62" rerouteNo="0" devices="tripinfo_flow_route_38_duration_20250327_1910.4" vType="car" speedFactor="0.89" vaporized=""/>
    <tripinfo id="flow_route_38_duration_20250327_1910.3" depart="10.00" departLane="133126030#0_0" departPos="105.91" departSpeed="0.00" departDelay="0.53" arrival="37.00" arrivalLane="134193294#0_0" arrivalPos="70.56" arrivalSpeed="12.27" duration="27.00" routeLength="159.53" waitingTime="0.00" waitingCount="0" stopTime="0.00" timeLoss="15.04" rerouteNo="0" devices="tripinfo_flow_route_38_duration_20250327_1910.3" vType="car" speedFactor="0.94" vaporized=""/>
    <tripinfo id="flow_route_38_duration_20250327_1910.1" depart="4.00" departLane="133126030#0_0" departPos="126.67" departSpeed="0.00" departDelay="0.84" arrival="39.00" arrivalLane="134193294#0_0" arrivalPos="150.20" arrivalSpeed="15.56" duration="35.00" routeLength="218.41" waitingTime="0.00" waitingCount="0" stopTime="0.00" timeLoss="20.45" rerouteNo="0" devices="tripinfo_flow_route_38_duration_20250327_1910.1" vType="car" speedFactor="0.94" vaporized=""/>
    <tripinfo id="flow_route_38_duration_20250327_1910.0" depart="0.00" departLane="133126030#0_0" departPos="45.86" departSpeed="0.00" departDelay="0.00" arrival="44.00" arrivalLane="134193294#0_0" arrivalPos="152.84" arrivalSpeed="16.53" duration="44.00" routeLength="301.86" waitingTime="0.00" waitingCount="0" stopTime="0.00" timeLoss="24.54" rerouteNo="0" devices="tripinfo_flow_route_38_duration_20250327_1910.0" vType="car" speedFactor="1.06" vaporized=""/>
    <tripinfo id="flow_route_38_duration_20250327_1910.5" depart="18.00" departLane="133126030#0_0" departPos="105.09" departSpeed="0.00" departDelay="2.22" arrival="44.00" arrivalLane="134193294#0_0" arrivalPos="110.07" arrivalSpeed="14.40" duration="26.00" routeLength="199.86" waitingTime="0.00" waitingCount="0" stopTime="0.00" timeLoss="13.12" rerouteNo="0" devices="tripinfo_flow_route_38_duration_20250327_1910.5" vType="car" speedFactor="1.13" vaporized=""/>
    <tripinfo id="flow_route_43_duration_20250327_1910.1" depart="6.00" departLane="1328664744#0_0" departPos="120.76" departSpeed="0.00" departDelay="1.72" arrival="52.00" arrivalLane="134193294#0_3" arrivalPos="87.99" arrivalSpeed="13.09" duration="46.00" routeLength="207.31" waitingTime="11.00" waitingCount="1" stopTime="0.00" timeLoss="32.05" rerouteNo="0" devices="tripinfo_flow_route_43_duration_20250327_1910.1" vType="car" speedFactor="1.09" vaporized=""/>
    <tripinfo id="flow_route_43_duration_20250327_1910.0" depart="0.00" departLane="1328664744#0_0" departPos="1.34" departSpeed="0.00" departDelay="0.00" arrival="53.00" arrivalLane="134193294#0_3" arrivalPos="84.30" arrivalSpeed="12.61" duration="53.00" routeLength="323.03" waitingTime="11.00" waitingCount="1" stopTime="0.00" timeLoss="32.61" rerouteNo="0" devices="tripinfo_flow_route_43_duration_20250327_1910.0" vType="car" speedFactor="1.08" vaporized=""/>
    <tripinfo id="flow_route_43_duration_20250327_1910.3" depart="13.00" departLane="1328664744#0_0" departPos="212.96" departSpeed="0.00" departDelay="0.15" arrival="61.00" arrivalLane="134193294#0_3" arrivalPos="102.28" arrivalSpeed="12.87" duration="48.00" routeLength="129.38" waitingTime="24.00" waitingCount="2" stopTime="0.00" timeLoss="37.26" rerouteNo="0" devices="tripinfo_flow_route_43_duration_20250327_1910.3" vType="car" speedFactor="0.83" vaporized=""/>
    <tripinfo id="flow_route_43_duration_20250327_1910.4" depart="18.00" departLane="1328664744#0_0" departPos="45.96" departSpeed="0.00" departDelay="0.86" arrival="63.00" arrivalLane="134193294#0_3" arrivalPos="53.84" arrivalSpeed="11.17" duration="45.00" routeLength="247.95" waitingTime="0.00" waitingCount="0" stopTime="0.00" timeLoss="29.36" rerouteNo="0" devices="tripinfo_flow_route_43_duration_20250327_1910.4" vType="car" speedFactor="1.15" vaporized=""/>
    <tripinfo id="flow_route_43_duration_20250327_1910.2" depart="9.00" departLane="1328664744#0_0" departPos="28.70" departSpeed="0.00" departDelay="0.43" arrival="66.00" arrivalLane="134193294#0_3" arrivalPos="117.52" arrivalSpeed="14.28" duration="57.00" routeLength="328.89" waitingTime="4.00" waitingCount="1" stopTime="0.00" timeLoss="32.92" rerouteNo="0" devices="tripinfo_flow_route_43_duration_20250327_1910.2" vType="car" speedFactor="0.88" vaporized=""/>
    <tripinfo id="flow_route_43_duration_20250327_1910.5" depart="22.00" departLane="1328664744#0_0" departPos="5.29" departSpeed="0.00" departDelay="0.58" arrival="67.00" arrivalLane="134193294#0_3" arrivalPos="62.64" arrivalSpeed="11.61" duration="45.00" routeLength="297.42" waitingTime="0.00" waitingCount="0" stopTime="0.00" timeLoss="26.19" rerouteNo="0" devices="tripinfo_flow_route_43_duration_20250327_1910.5" vType="car" speedFactor="1.10" vaporized=""/>
    <tripinfo id="flow_route_43_duration_20250327_1910.11" depart="48.00" departLane="1328664744#0_0" departPos="166.29" departSpeed="0.00" departDelay="0.87" arrival="69.00" arrivalLane="134193294#0_3" arrivalPos="14.51" arrivalSpeed="8.92" duration="21.00" routeLength="88.29" waitingTime="0.00" waitingCount="0" stopTime="0.00" timeLoss="14.21" rerouteNo="0" devices="tripinfo_flow_route_43_duration_20250327_1910.11" vType="car" speedFactor="1.00" vaporized=""/>
    <tripinfo id="flow_route_43_duration_20250327_1910.10" depart="43.00" departLane="1328664744#0_0" departPos="175.16" departSpeed="0.00" departDelay="0.15" arrival="74.00" arrivalLane="134193294#0_3" arrivalPos="137.53" arrivalSpeed="15.24" duration="31.00" routeLength="202.45" waitingTime="0.00" waitingCount="0" stopTime="0.00" timeLoss="16.86" rerouteNo="0" devices="tripinfo_flow_route_43_duration_20250327_1910.10" vType="car" speedFactor="0.94" vaporized=""/>
    <tripinfo id="flow_route_43_duration_20250327_1910.13" depart="56.00" departLane="1328664744#0_0" departPos="207.98" departSpeed="0.00" departDelay="0.30" arrival="80.00" arrivalLane="134193294#0_3" arrivalPos="76.67" arrivalSpeed="11.52" duration="24.00" routeLength="108.76" waitingTime="1.00" waitingCount="1" stopTime="0.00" timeLoss="14.84" rerouteNo="0" devices="tripinfo_flow_route_43_duration_20250327_1910.13" vType="car" speedFactor="0.83" vaporized=""/>
    <tripinfo id="flow_route_45_duration_20250327_1910.0" depart="0.00" departLane="791826085_0" departPos="152.03" departSpeed="0.00" departDelay="0.00" arrival="85.00" arrivalLane="485211947#0_0" arrivalPos="8.08" arrivalSpeed="6.42" duration="85.00" routeLength="191.81" waitingTime="52.00" waitingCount="1" stopTime="0.00" timeLoss="70.30" rerouteNo="0" devices="tripinfo_flow_route_45_duration_20250327_1910.0" vType="car" speedFactor="0.83" vaporized=""/>
    <tripinfo id="flow_route_45_duration_20250327_1910.1" depart="5.00" departLane="791826085_0" departPos="306.25" departSpeed="0.00" departDelay="1.67" arrival="86.00" arrivalLane="485211947#0_0" arrivalPos="59.66" arrivalSpeed="10.40" duration="81.00" routeLength="89.17" waitingTime="58.00" waitingCount="1" stopTime="0.00" timeLoss="73.31" rerouteNo="0" devices="tripinfo_flow_route_45_duration_20250327_1910.1" vType="car" speedFactor="0.86" vaporized=""/>
    <tripinfo id="flow_route_44_duration_20250327_1910.2" depart="5.00" departLane="791826085_0" departPos="289.48" departSpeed="0.00" departDelay="0.56" arrival="87.00" arrivalLane="134193294#0_1" arrivalPos="52.67" arrivalSpeed="11.62" duration="82.00" routeLength="117.56" waitingTime="57.00" waitingCount="1" stopTime="0.00" timeLoss="74.54" rerouteNo="0" devices="tripinfo_flow_route_44_duration_20250327_1910.2" vType="car" speedFactor="1.03" vaporized=""/>
    <tripinfo id="flow_route_44_duration_20250327_1910.3" depart="7.00" departLane="791826085_0" departPos="51.89" departSpeed="0.00" departDelay="0.33" arrival="87.00" arrivalLane="134193294#0_1" arrivalPos="5.56" arrivalSpeed="8.40" duration="80.00" routeLength="308.04" waitingTime="32.00" waitingCount="1" stopTime="0.00" timeLoss="60.96" rerouteNo="0" devices="tripinfo_flow_route_44_duration_20250327_1910.3" vType="car" speedFactor="0.99" vaporized=""/>
    <tripinfo id="flow_route_44_duration_20250327_1910.7" depart="23.00" departLane="791826085_0" departPos="285.54" departSpeed="0.00" departDelay="7.45" arrival="87.00" arrivalLane="134193294#0_1" arrivalPos="26.05" arrivalSpeed="9.87" duration="64.00" routeLength="94.88" waitingTime="40.00" waitingCount="1" stopTime="0.00" timeLoss="57.42" rerouteNo="0" devices="tripinfo_flow_route_44_duration_20250327_1910.7" vType="car" speedFactor="0.93" vaporized=""/>
    <tripinfo id="flow_route_46_duration_20250327_1910.4" depart="31.00" departLane="791826085_0" departPos="294.96" departSpeed="0.00" departDelay="12.54" arrival="88.00" arrivalLane="1328664748#0_1" arrivalPos="10.42" arrivalSpeed="9.43" duration="57.00" routeLength="64.25" waitingTime="38.00" waitingCount="1" stopTime="0.00" timeLoss="51.99" rerouteNo="0" devices="tripinfo_flow_route_46_duration_20250327_1910.4" vType="car" speedFactor="0.99" vaporized=""/>
    <tripinfo id="flow_route_44_duration_20250327_1910.1" depart="3.00" departLane="791826085_0" departPos="19.65" departSpeed="0.00" departDelay="0.78" arrival="90.00" arrivalLane="134193294#0_2" arrivalPos="45.37" arrivalSpeed="11.13" duration="87.00" routeLength="380.09" waitingTime="39.00" waitingCount="1" stopTime="0.00" timeLoss="60.93" rerouteNo="0" devices="tripinfo_flow_route_44_duration_20250327_1910.1" vType="car" speedFactor="0.89" vaporized=""/>
    <tripinfo id="flow_route_44_duration_20250327_1910.5" depart="20.00" departLane="791826085_0" departPos="221.34" departSpeed="0.00" departDelay="8.89" arrival="90.00" arrivalLane="134193294#0_0" arrivalPos="15.27" arrivalSpeed="9.19" duration="70.00" routeLength="148.30" waitingTime="40.00" waitingCount="1" stopTime="0.00" timeLoss="60.70" rerouteNo="0" devices="tripinfo_flow_route_44_duration_20250327_1910.5" vType="car" speedFactor="0.97" vaporized=""/>
    <tripinfo id="flow_route_44_duration_20250327_1910.0" depart="0.00" departLane="791826085_0" departPos="219.49" departSpeed="0.00" departDelay="0.00" arrival="93.00" arrivalLane="134193294#0_0" arrivalPos="101.20" arrivalSpeed="14.39" duration="93.00" routeLength="236.08" waitingTime="56.00" waitingCount="1" stopTime="0.00" timeLoss="78.01" rerouteNo="0" devices="tripinfo_flow_route_44_duration_20250327_1910.0" vType="car" speedFactor="1.03" vaporized=""/>
    <tripinfo id="flow_route_46_duration_20250327_1910.0" depart="1.00" departLane="791826085_0" departPos="184.68" departSpeed="0.00" departDelay="1.00" arrival="93.00" arrivalLane="1328664748#0_1" arrivalPos="165.37" arrivalSpeed="16.58" duration="92.00" routeLength="329.48" waitingTime="49.00" waitingCount="1" stopTime="0.00" timeLoss="71.53" rerouteNo="0" devices="tripinfo_flow_route_46_duration_20250327_1910.0" vType="car" speedFactor="1.05" vaporized=""/>
    <tripinfo id="flow_route_44_duration_20250327_1910.6" depart="20.00" departLane="791826085_0" departPos="138.02" departSpeed="0.00" departDelay="6.67" arrival="93.00" arrivalLane="134193294#0_1" arrivalPos="52.80" arrivalSpeed="11.72" duration="73.00" routeLength="269.14" waitingTime="32.00" waitingCount="1" stopTime="0.00" timeLoss="54.35" rerouteNo="0" devices="tripinfo_flow_route_44_duration_20250327_1910.6" vType="car" speedFactor="0.87" vaporized=""/>
    <tripinfo id="flow_route_46_duration_20250327_1910.1" depart="5.00" departLane="791826085_0" departPos="129.34" departSpeed="0.00" departDelay="0.39" arrival="95.00" arrivalLane="1328664748#0_1" arrivalPos="140.94" arrivalSpeed="16.57" duration="90.00" routeLength="360.40" waitingTime="43.00" waitingCount="1" stopTime="0.00" timeLoss="66.85" rerouteNo="0" devices="tripinfo_flow_route_46_duration_20250327_1910.1" vType="car" speedFactor="1.05" vaporized=""/>
    <tripinfo id="flow_route_44_duration_20250327_1910.4" depart="14.00" departLane="791826085_0" departPos="54.92" departSpeed="0.00" departDelay="5.11" arrival="97.00" arrivalLane="134193294#0_1" arrivalPos="56.83" arrivalSpeed="13.73" duration="83.00" routeLength="356.28" waitingTime="32.00" waitingCount="1" stopTime="0.00" timeLoss="59.48" rerouteNo="0" devices="tripinfo_flow_route_44_duration_20250327_1910.4" vType="car" speedFactor="0.94" vaporized=""/>
    <tripinfo id="flow_route_45_duration_20250327_1910.6" depart="31.00" departLane="791826085_0" departPos="216.32" departSpeed="0.00" departDelay="11.00" arrival="97.00" arrivalLane="485211947#0_0" arrivalPos="39.35" arrivalSpeed="9.95" duration="66.00" routeLength="158.79" waitingTime="30.00" waitingCount="1" stopTime="0.00" timeLoss="55.54" rerouteNo="0" devices="tripinfo_flow_route_45_duration_20250327_1910.6" vType="car" speedFactor="1.18" vaporized=""/>
    <tripinfo id="flow_route_45_duration_20250327_1910.4" depart="20.00" departLane="791826085_0" departPos="200.61" departSpeed="0.00" departDelay="6.67" arrival="98.00" arrivalLane="485211947#0_0" arrivalPos="91.27" arrivalSpeed="13.05" duration="78.00" routeLength="226.42" waitingTime="38.00" waitingCount="1" stopTime="0.00" timeLoss="62.18" rerouteNo="0" devices="tripinfo_flow_route_45_duration_20250327_1910.4" vType="car" speedFactor="0.92" vaporized=""/>
    <tripinfo id="flow_route_44_duration_20250327_1910.9" depart="31.00" departLane="791826085_0" departPos="112.37" departSpeed="0.00" departDelay="11.00" arrival="98.00" arrivalLane="134193294#0_1" arrivalPos="49.75" arrivalSpeed="14.32" duration="67.00" routeLength="291.75" waitingTime="25.00" waitingCount="1" stopTime="0.00" timeLoss="48.81" rerouteNo="0" devices="tripinfo_flow_route_44_duration_20250327_1910.9" vType="car" speedFactor="0.97" vaporized=""/>
    <tripinfo id="flow_route_46_duration_20250327_1910.2" depart="17.00" departLane="791826085_0" departPos="21.84" departSpeed="0.00" departDelay="7.77" arrival="100.00" arrivalLane="1328664748#0_1" arrivalPos="49.64" arrivalSpeed="13.08" duration="83.00" routeLength="376.59" waitingTime="35.00" waitingCount="1" stopTime="0.00" timeLoss="59.34" rerouteNo="0" devices="tripinfo_flow_route_46_duration_20250327_1910.2" vType="car" speedFactor="1.01" vaporized=""/>
    <tripinfo id="flow_route_46_duration_20250327_1910.3" depart="21.00" departLane="791826085_0" departPos="190.79" departSpeed="0.00" departDelay="7.16" arrival="100.00" arrivalLane="1328664748#0_1" arrivalPos="129.06" arrivalSpeed="15.61" duration="79.00" routeLength="287.06" waitingTime="36.00" waitingCount="1" stopTime="0.00" timeLoss="59.12" rerouteNo="0" devices="tripinfo_flow_route_46_duration_20250327_1910.3" vType="car" speedFactor="0.95" vaporized=""/>
    <tripinfo id="flow_route_44_duration_20250327_1910.10" depart="35.00" departLane="791826085_0" departPos="157.42" departSpeed="0.00" departDelay="12.78" arrival="100.00" arrivalLane="134193294#0_2" arrivalPos="17.96" arrivalSpeed="12.71" duration="65.00" routeLength="214.91" waitingTime="23.00" waitingCount="2" stopTime="0.00" timeLoss="51.45" rerouteNo="0" devices="tripinfo_flow_route_44_duration_20250327_1910.10" vType="car" speedFactor="1.03" vaporized=""/>
    <tripinfo id="flow_route_44_duration_20250327_1910.8" depart="28.00" departLane="791826085_0" departPos="40.54" departSpeed="0.00" departDelay="10.22" arrival="101.00" arrivalLane="134193294#0_1" arrivalPos="58.15" arrivalSpeed="14.71" duration="73.00" routeLength="371.99" waitingTime="24.00" waitingCount="1" stopTime="0.00" timeLoss="50.41" rerouteNo="0" devices="tripinfo_flow_route_44_duration_20250327_1910.8" vType="car" speedFactor="1.01" vaporized=""/>
    <tripinfo id="flow_route_46_duration_20250327_1910.5" depart="39.00" departLane="791826085_0" departPos="277.63" departSpeed="0.00" departDelay="15.93" arrival="101.00" arrivalLane="1328664748#0_1" arrivalPos="94.58" arrivalSpeed="15.11" duration="62.00" routeLength="165.74" waitingTime="38.00" waitingCount="1" stopTime="0.00" timeLoss="51.18" rerouteNo="0" devices="tripinfo_flow_route_46_duration_20250327_1910.5" vType="car" speedFactor="1.09" vaporized=""/>
    <tripinfo id="flow_route_45_duration_20250327_1910.2" depart="8.00" departLane="791826085_0" departPos="9.73" departSpeed="0.00" departDelay="1.33" arrival="104.00" arrivalLane="485211947#0_0" arrivalPos="55.91" arrivalSpeed="11.09" duration="96.00" routeLength="381.95" waitingTime="29.00" waitingCount="1" stopTime="0.00" timeLoss="70.20" rerouteNo="0" devices="tripinfo_flow_route_45_duration_20250327_1910.2" vType="car" speedFactor="0.93" vaporized=""/>
    <tripinfo id="flow_route_46_duration_20250327_1910.8" depart="65.00" departLane="791826085_0" departPos="165.33" departSpeed="0.00" departDelay="28.08" arrival="104.00" arrivalLane="1328664748#0_1" arrivalPos="0.19" arrivalSpeed="9.88" duration="39.00" routeLength="183.65" waitingTime="4.00" waitingCount="1" stopTime="0.00" timeLoss="26.24" rerouteNo="0" devices="tripinfo_flow_route_46_duration_20250327_1910.8" vType="car" speedFactor="0.99" vaporized=""/>
    <tripinfo id="flow_route_44_duration_20250327_1910.11" depart="39.00" departLane="791826085_0" departPos="267.21" departSpeed="0.00" departDelay="14.56" arrival="105.00" arrivalLane="134193294#0_0" arrivalPos="149.90" arrivalSpeed="16.45" duration="66.00" routeLength="237.05" waitingTime="31.00" waitingCount="1" stopTime="0.00" timeLoss="50.76" rerouteNo="0" devices="tripinfo_flow_route_44_duration_20250327_1910.11" vType="car" speedFactor="1.04" vaporized=""/>
    <tripinfo id="flow_route_44_duration_20250327_1910.17" depart="65.00" departLane="791826085_0" departPos="155.32" departSpeed="0.00" departDelay="27.23" arrival="105.00" arrivalLane="134193294#0_1" arrivalPos="2.00" arrivalSpeed="12.95" duration="40.00" routeLength="201.05" waitingTime="3.00" waitingCount="1" stopTime="0.00" timeLoss="25.87" rerouteNo="0" devices="tripinfo_flow_route_44_duration_20250327_1910.17" vType="car" speedFactor="0.88" vaporized=""/>
    <tripinfo id="flow_route_45_duration_20250327_1910.3" depart="16.00" departLane="791826085_0" departPos="9.08" departSpeed="0.00" departDelay="6.00" arrival="106.00" arrivalLane="485211947#0_0" arrivalPos="48.93" arrivalSpeed="10.60" duration="90.00" routeLength="375.61" waitingTime="22.00" waitingCount="1" stopTime="0.00" timeLoss="65.73" rerouteNo="0" devices="tripinfo_flow_route_45_duration_20250327_1910.3" vType="car" speedFactor="1.02" vaporized=""/>
    <tripinfo id="flow_route_44_duration_20250327_1910.14" depart="47.00" departLane="791826085_0" departPos="185.43" departSpeed="0.00" departDelay="15.89" arrival="107.00" arrivalLane="134193294#0_1" arrivalPos="116.79" arrivalSpeed="16.53" duration="60.00" routeLength="285.73" waitingTime="19.00" waitingCount="1" stopTime="0.00" timeLoss="42.31" rerouteNo="0" devices="tripinfo_flow_route_44_duration_20250327_1910.14" vType="car" speedFactor="1.00" vaporized=""/>
    <tripinfo id="flow_route_44_duration_20250327_1910.12" depart="41.00" departLane="791826085_0" departPos="50.01" departSpeed="0.00" departDelay="14.34" arrival="108.00" arrivalLane="134193294#0_2" arrivalPos="79.99" arrivalSpeed="15.01" duration="67.00" routeLength="384.35" waitingTime="11.00" waitingCount="1" stopTime="0.00" timeLoss="43.81" rerouteNo="0" devices="tripinfo_flow_route_44_duration_20250327_1910.12" vType="car" speedFactor="1.00" vaporized=""/>
    <tripinfo id="flow_route_46_duration_20250327_1910.7" depart="50.00" departLane="791826085_0" departPos="2.39" departSpeed="0.00" departDelay="17.70" arrival="108.00" arrivalLane="1328664748#0_1" arrivalPos="22.89" arrivalSpeed="10.05" duration="58.00" routeLength="369.29" waitingTime="5.00" waitingCount="1" stopTime="0.00" timeLoss="32.06" rerouteNo="0" devices="tripinfo_flow_route_46_duration_20250327_1910.7" vType="car" speedFactor="0.90" vaporized=""/>
    <tripinfo id="flow_route_45_duration_20250327_1910.5" depart="25.00" departLane="791826085_0" departPos="187.09" departSpeed="0.00" departDelay="8.34" arrival="109.00" arrivalLane="485211947#0_0" arrivalPos="171.97" arrivalSpeed="16.22" duration="84.00" routeLength="320.64" waitingTime="29.00" waitingCount="1" stopTime="0.00" timeLoss="63.36" rerouteNo="0" devices="tripinfo_flow_route_45_duration_20250327_1910.5" vType="car" speedFactor="1.18" vaporized=""/>
    <tripinfo id="flow_route_46_duration_20250327_1910.6" depart="44.00" departLane="791826085_0" departPos="73.70" departSpeed="0.00" departDelay="16.31" arrival="112.00" arrivalLane="1328664748#0_1" arrivalPos="158.46" arrivalSpeed="14.41" duration="68.00" routeLength="433.55" waitingTime="13.00" waitingCount="1" stopTime="0.00" timeLoss="37.19" rerouteNo="0" devices="tripinfo_flow_route_46_duration_20250327_1910.6" vType="car" speedFactor="0.88" vaporized=""/>
    <tripinfo id="flow_route_44_duration_20250327_1910.13" depart="45.00" departLane="791826085_0" departPos="104.63" departSpeed="0.00" departDelay="16.11" arrival="112.00" arrivalLane="134193294#0_1" arrivalPos="151.30" arrivalSpeed="13.78" duration="67.00" routeLength="401.03" waitingTime="16.00" waitingCount="1" stopTime="0.00" timeLoss="38.58" rerouteNo="0" devices="tripinfo_flow_route_44_duration_20250327_1910.13" vType="car" speedFactor="0.85" vaporized=""/>
    <tripinfo id="flow_route_45_duration_20250327_1910.9" depart="46.00" departLane="791826085_0" departPos="151.92" departSpeed="0.00" departDelay="16.00" arrival="113.00" arrivalLane="485211947#0_0" arrivalPos="125.13" arrivalSpeed="15.21" duration="67.00" routeLength="308.97" waitingTime="19.00" waitingCount="1" stopTime="0.00" timeLoss="47.66" rerouteNo="0" devices="tripinfo_flow_route_45_duration_20250327_1910.9" vType="car" speedFactor="1.10" vaporized=""/>
    <tripinfo id="flow_route_44_duration_20250327_1910.15" depart="55.00" departLane="791826085_0" departPos="75.33" departSpeed="0.00" departDelay="21.67" arrival="113.00" arrivalLane="134193294#0_1" arrivalPos="140.85" arrivalSpeed="14.64" duration="58.00" routeLength="419.89" waitingTime="5.00" waitingCount="1" stopTime="0.00" timeLoss="32.33" rerouteNo="0" devices="tripinfo_flow_route_44_duration_20250327_1910.15" vType="car" speedFactor="1.14" vaporized=""/>
    <tripinfo id="flow_route_45_duration_20250327_1910.7" depart="39.00" departLane="791826085_0" departPos="37.29" departSpeed="0.00" departDelay="15.67" arrival="114.00" arrivalLane="485211947#0_0" arrivalPos="91.29" arrivalSpeed="13.69" duration="75.00" routeLength="389.76" waitingTime="14.00" waitingCount="1" stopTime="0.00" timeLoss="49.29" rerouteNo="0" devices="tripinfo_flow_route_45_duration_20250327_1910.7" vType="car" speedFactor="0.96" vaporized=""/>
    <tripinfo id="flow_route_44_duration_20250327_1910.19" depart="72.00" departLane="791826085_0" departPos="212.99" departSpeed="0.00" departDelay="29.78" arrival="114.00" arrivalLane="134193294#0_0" arrivalPos="27.04" arrivalSpeed="11.50" duration="42.00" routeLength="168.42" waitingTime="7.00" waitingCount="1" stopTime="0.00" timeLoss="31.35" rerouteNo="0" devices="tripinfo_flow_route_44_duration_20250327_1910.19" vType="car" speedFactor="1.06" vaporized=""/>
    <tripinfo id="flow_route_44_duration_20250327_1910.16" depart="58.00" departLane="791826085_0" departPos="10.27" departSpeed="0.00" departDelay="22.45" arrival="116.00" arrivalLane="134193294#0_1" arrivalPos="136.88" arrivalSpeed="16.26" duration="58.00" routeLength="480.98" waitingTime="2.00" waitingCount="1" stopTime="0.00" timeLoss="28.06" rerouteNo="0" devices="tripinfo_flow_route_44_duration_20250327_1910.16" vType="car" speedFactor="1.12" vaporized=""/>
    <tripinfo id="flow_route_44_duration_20250327_1910.18" depart="69.00" departLane="791826085_0" departPos="111.33" departSpeed="0.00" departDelay="29.00" arrival="117.00" arrivalLane="134193294#0_2" arrivalPos="134.49" arrivalSpeed="16.51" duration="48.00" routeLength="377.53" waitingTime="0.00" waitingCount="0" stopTime="0.00" timeLoss="25.24" rerouteNo="0" devices="tripinfo_flow_route_44_duration_20250327_1910.18" vType="car" speedFactor="1.04" vaporized=""/>
    <tripinfo id="flow_route_44_duration_20250327_1910.20" depart="75.00" departLane="791826085_0" departPos="15.82" departSpeed="0.00" departDelay="30.56" arrival="118.00" arrivalLane="134193294#0_1" arrivalPos="157.74" arrivalSpeed="16.29" duration="43.00" routeLength="496.29" waitingTime="0.00" waitingCount="0" stopTime="0.00" timeLoss="12.95" rerouteNo="0" devices="tripinfo_flow_route_44_duration_20250327_1910.20" vType="car" speedFactor="1.03" vaporized=""/>
    <tripinfo id="flow_route_45_duration_20250327_1910.8" depart="44.00" departLane="791826085_0" departPos="31.86" departSpeed="0.00" departDelay="17.34" arrival="119.00" arrivalLane="485211947#0_0" arrivalPos="122.63" arrivalSpeed="14.86" duration="75.00" routeLength="426.52" waitingTime="13.00" waitingCount="1" stopTime="0.00" timeLoss="45.02" rerouteNo="0" devices="tripinfo_flow_route_45_duration_20250327_1910.8" vType="car" speedFactor="0.90" vaporized=""/>
    <tripinfo id="flow_route_38_duration_20250327_1910.9" depart="30.00" departLane="133126030#0_0" departPos="156.66" departSpeed="0.00" departDelay="1.59" arrival="120.00" arrivalLane="134193294#0_0" arrivalPos="24.21" arrivalSpeed="6.83" duration="90.00" routeLength="62.43" waitingTime="70.00" waitingCount="1" stopTime="0.00" timeLoss="84.83" rerouteNo="0" devices="tripinfo_flow_route_38_duration_20250327_1910.9" vType="car" speedFactor="0.85" vaporized=""/>
    <tripinfo id="flow_route_44_duration_20250327_1910.21" depart="77.00" departLane="791826085_0" departPos="3.62" departSpeed="0.00" departDelay="30.34" arrival="120.00" arrivalLane="134193294#0_1" arrivalPos="161.37" arrivalSpeed="16.08" duration="43.00" routeLength="512.12" waitingTime="0.00" waitingCount="0" stopTime="0.00" timeLoss="11.49" rerouteNo="0" devices="tripinfo_flow_route_44_duration_20250327_1910.21" vType="car" speedFactor="0.98" vaporized=""/>
    <tripinfo id="flow_route_46_duration_20250327_1910.9" depart="70.00" departLane="791826085_0" departPos="50.09" departSpeed="0.00" departDelay="28.47" arrival="122.00" arrivalLane="1328664748#0_1" arrivalPos="160.89" arrivalSpeed="16.02" duration="52.00" routeLength="459.59" waitingTime="0.00" waitingCount="0" stopTime="0.00" timeLoss="21.62" rerouteNo="0" devices="tripinfo_flow_route_46_duration_20250327_1910.9" vType="car" speedFactor="0.97" vaporized=""/>
    <tripinfo id="flow_route_38_duration_20250327_1910.6" depart="20.00" departLane="133126030#0_0" departPos="95.02" departSpeed="0.00" departDelay="1.06" arrival="124.00" arrivalLane="134193294#0_0" arrivalPos="30.99" arrivalSpeed="8.97" duration="104.00" routeLength="130.85" waitingTime="70.00" waitingCount="1" stopTime="0.00" timeLoss="95.12" rerouteNo="0" devices="tripinfo_flow_route_38_duration_20250327_1910.6" vType="car" speedFactor="1.17" vaporized=""/>
    <tripinfo id="flow_route_38_duration_20250327_1910.7" depart="24.00" departLane="133126030#0_0" departPos="84.45" departSpeed="0.00" departDelay="1.90" arrival="128.00" arrivalLane="134193294#0_0" arrivalPos="51.93" arrivalSpeed="10.61" duration="104.00" routeLength="162.36" waitingTime="69.00" waitingCount="1" stopTime="0.00" timeLoss="91.88" rerouteNo="0" devices="tripinfo_flow_route_38_duration_20250327_1910.7" vType="car" speedFactor="0.90" vaporized=""/>
    <tripinfo id="flow_route_38_duration_20250327_1910.8" depart="27.00" departLane="133126030#0_0" departPos="52.10" departSpeed="0.00" departDelay="1.74" arrival="130.00" arrivalLane="134193294#0_0" arrivalPos="50.83" arrivalSpeed="11.24" duration="103.00" routeLength="193.61" waitingTime="67.00" waitingCount="1" stopTime="0.00" timeLoss="90.39" rerouteNo="0" devices="tripinfo_flow_route_38_duration_20250327_1910.8" vType="car" speedFactor="1.04" vaporized=""/>