<?xml version="1.0" encoding="UTF-8"?>

<!-- generated on 2025-05-06 21:07:52 by Eclipse SUMO sumo Version 1.20.0
<configuration xmlns:xsi="http://www.w3.org/2001/XMLSchema-instance" xsi:noNamespaceSchemaLocation="http://sumo.dlr.de/xsd/sumoConfiguration.xsd">

    <input>
        <net-file value="osm.net.xml"/>
        <route-files value="xml/route_rl_cluster_11648745684_256036885_3839031483_1.rou.xml"/>
    </input>

    <output>
        <tripinfo-output value="xml/tripinfo_rl_cluster_11648745684_256036885_3839031483_1.xml"/>
    </output>

    <traci_server>
        <remote-port value="57505"/>
    </traci_server>

</configuration>
-->

<tripinfos xmlns:xsi="http://www.w3.org/2001/XMLSchema-instance" xsi:noNamespaceSchemaLocation="http://sumo.dlr.de/xsd/tripinfo_file.xsd">
    <tripinfo id="flow_route_72_duration_20250327_2250.0" depart="0.00" departLane="1369578052#0_0" departPos="161.40" departSpeed="0.00" departDelay="0.00" arrival="15.00" arrivalLane="133342692#0_0" arrivalPos="42.43" arrivalSpeed="11.65" duration="15.00" routeLength="81.12" waitingTime="0.00" waitingCount="0" stopTime="0.00" timeLoss="8.08" rerouteNo="0" devices="tripinfo_flow_route_72_duration_20250327_2250.0" vType="car" speedFactor="0.89" vaporized=""/>
    <tripinfo id="flow_route_68_duration_20250327_2250.0" depart="0.00" departLane="1253209803#0_0" departPos="143.52" departSpeed="0.00" departDelay="0.00" arrival="29.00" arrivalLane="-138002002#2_1" arrivalPos="90.53" arrivalSpeed="16.38" duration="29.00" routeLength="298.33" waitingTime="0.00" waitingCount="0" stopTime="0.00" timeLoss="10.81" rerouteNo="0" devices="tripinfo_flow_route_68_duration_20250327_2250.0" vType="car" speedFactor="1.08" vaporized=""/>
    <tripinfo id="flow_route_70_duration_20250327_2250.0" depart="0.00" departLane="1253209803#0_0" departPos="83.97" departSpeed="0.00" departDelay="0.00" arrival="32.00" arrivalLane="133342692#0_2" arrivalPos="7.48" arrivalSpeed="9.70" duration="32.00" routeLength="271.18" waitingTime="0.00" waitingCount="0" stopTime="0.00" timeLoss="13.58" rerouteNo="0" devices="tripinfo_flow_route_70_duration_20250327_2250.0" vType="car" speedFactor="0.83" vaporized=""/>
    <tripinfo id="flow_route_69_duration_20250327_2250.0" depart="0.00" departLane="1253209803#0_0" departPos="179.76" departSpeed="0.00" departDelay="0.00" arrival="34.00" arrivalLane="380585337#0_0" arrivalPos="14.31" arrivalSpeed="16.34" duration="34.00" routeLength="299.43" waitingTime="0.00" waitingCount="0" stopTime="0.00" timeLoss="14.64" rerouteNo="0" devices="tripinfo_flow_route_69_duration_20250327_2250.0" vType="car" speedFactor="1.03" vaporized=""/>
    <tripinfo id="flow_route_71_duration_20250327_2250.0" depart="0.00" departLane="1369578052#0_0" departPos="11.11" departSpeed="0.00" departDelay="0.00" arrival="38.00" arrivalLane="138002016#0_0" arrivalPos="236.62" arrivalSpeed="16.35" duration="38.00" routeLength="443.19" waitingTime="0.00" waitingCount="0" stopTime="0.00" timeLoss="10.79" rerouteNo="0" devices="tripinfo_flow_route_71_duration_20250327_2250.0" vType="car" speedFactor="1.05" vaporized=""/>
    <tripinfo id="flow_route_68_duration_20250327_2250.1" depart="30.00" departLane="1253209803#0_0" departPos="70.83" departSpeed="0.00" departDelay="0.00" arrival="60.00" arrivalLane="-138002002#2_0" arrivalPos="23.10" arrivalSpeed="15.20" duration="30.00" routeLength="303.58" waitingTime="0.00" waitingCount="0" stopTime="0.00" timeLoss="10.79" rerouteNo="0" devices="tripinfo_flow_route_68_duration_20250327_2250.1" vType="car" speedFactor="0.93" vaporized=""/>
    <tripinfo id="flow_route_70_duration_20250327_2250.1" depart="30.00" departLane="1253209803#0_0" departPos="53.32" departSpeed="0.00" departDelay="0.00" arrival="68.00" arrivalLane="133342692#0_2" arrivalPos="70.53" arrivalSpeed="13.39" duration="38.00" routeLength="364.88" waitingTime="0.00" waitingCount="0" stopTime="0.00" timeLoss="13.44" rerouteNo="0" devices="tripinfo_flow_route_70_duration_20250327_2250.1" vType="car" speedFactor="0.88" vaporized=""/>
    <tripinfo id="flow_route_65_duration_20250327_2250.0" depart="8.00" departLane="133131666#1_0" departPos="5.26" departSpeed="0.00" departDelay="8.00" arrival="82.00" arrivalLane="138002016#0_2" arrivalPos="14.48" arrivalSpeed="7.48" duration="74.00" routeLength="193.68" waitingTime="42.00" waitingCount="1" stopTime="0.00" timeLoss="61.76" rerouteNo="0" devices="tripinfo_flow_route_65_duration_20250327_2250.0" vType="car" speedFactor="1.01" vaporized=""/>
    <tripinfo id="flow_route_64_duration_20250327_2250.1" depart="12.00" departLane="133131666#1_0" departPos="6.70" departSpeed="0.00" departDelay="0.00" arrival="84.00" arrivalLane="-138002002#2_0" arrivalPos="5.97" arrivalSpeed="7.04" duration="72.00" routeLength="164.82" waitingTime="42.00" waitingCount="1" stopTime="0.00" timeLoss="61.47" rerouteNo="0" devices="tripinfo_flow_route_64_duration_20250327_2250.1" vType="car" speedFactor="1.03" vaporized=""/>
    <tripinfo id="flow_route_63_duration_20250327_2250.0" depart="0.00" departLane="133131666#1_0" departPos="14.94" departSpeed="0.00" departDelay="0.00" arrival="94.00" arrivalLane="133342692#0_0" arrivalPos="152.76" arrivalSpeed="16.45" duration="94.00" routeLength="321.54" waitingTime="52.00" waitingCount="1" stopTime="0.00" timeLoss="74.19" rerouteNo="0" devices="tripinfo_flow_route_63_duration_20250327_2250.0" vType="car" speedFactor="1.06" vaporized=""/>
    <tripinfo id="flow_route_64_duration_20250327_2250.0" depart="2.00" departLane="133131666#1_0" departPos="6.82" departSpeed="0.00" departDelay="2.00" arrival="94.00" arrivalLane="-138002002#2_0" arrivalPos="131.25" arrivalSpeed="14.95" duration="92.00" routeLength="289.98" waitingTime="51.00" waitingCount="1" stopTime="0.00" timeLoss="72.13" rerouteNo="0" devices="tripinfo_flow_route_64_duration_20250327_2250.0" vType="car" speedFactor="0.94" vaporized=""/>
    <tripinfo id="flow_route_64_duration_20250327_2250.4" depart="49.00" departLane="133131666#1_0" departPos="4.07" departSpeed="0.00" departDelay="1.00" arrival="95.00" arrivalLane="-138002002#2_0" arrivalPos="31.02" arrivalSpeed="8.89" duration="46.00" routeLength="192.50" waitingTime="10.00" waitingCount="1" stopTime="0.00" timeLoss="33.36" rerouteNo="0" devices="tripinfo_flow_route_64_duration_20250327_2250.4" vType="car" speedFactor="0.97" vaporized=""/>
    <tripinfo id="flow_route_64_duration_20250327_2250.2" depart="25.00" departLane="133131666#1_0" departPos="2.87" departSpeed="0.00" departDelay="1.00" arrival="98.00" arrivalLane="-138002002#2_0" arrivalPos="126.20" arrivalSpeed="14.72" duration="73.00" routeLength="288.87" waitingTime="30.00" waitingCount="1" stopTime="0.00" timeLoss="54.65" rerouteNo="0" devices="tripinfo_flow_route_64_duration_20250327_2250.2" vType="car" speedFactor="0.99" vaporized=""/>
    <tripinfo id="flow_route_64_duration_20250327_2250.3" depart="36.00" departLane="133131666#1_0" departPos="1.98" departSpeed="0.00" departDelay="0.00" arrival="101.00" arrivalLane="-138002002#2_0" arrivalPos="149.52" arrivalSpeed="15.94" duration="65.00" routeLength="313.10" waitingTime="20.00" waitingCount="1" stopTime="0.00" timeLoss="45.59" rerouteNo="0" devices="tripinfo_flow_route_64_duration_20250327_2250.3" vType="car" speedFactor="1.16" vaporized=""/>
    <tripinfo id="flow_route_65_duration_20250327_2250.2" depart="45.00" departLane="133131666#1_0" departPos="10.94" departSpeed="0.00" departDelay="5.00" arrival="101.00" arrivalLane="138002016#0_2" arrivalPos="212.70" arrivalSpeed="16.18" duration="56.00" routeLength="386.22" waitingTime="8.00" waitingCount="1" stopTime="0.00" timeLoss="31.69" rerouteNo="0" devices="tripinfo_flow_route_65_duration_20250327_2250.2" vType="car" speedFactor="1.02" vaporized=""/>
    <tripinfo id="flow_route_65_duration_20250327_2250.1" depart="20.00" departLane="133131666#1_0" departPos="0.66" departSpeed="0.00" departDelay="0.00" arrival="105.00" arrivalLane="138002016#0_2" arrivalPos="304.53" arrivalSpeed="16.25" duration="85.00" routeLength="488.33" waitingTime="31.00" waitingCount="1" stopTime="0.00" timeLoss="54.65" rerouteNo="0" devices="tripinfo_flow_route_65_duration_20250327_2250.1" vType="car" speedFactor="1.12" vaporized=""/>
    <tripinfo id="flow_route_75_duration_20250327_2250.0" depart="0.00" departLane="380593307#0_0" departPos="8.02" departSpeed="0.00" departDelay="0.00" arrival="118.00" arrivalLane="-138002002#2_1" arrivalPos="1.11" arrivalSpeed="6.57" duration="118.00" routeLength="196.85" waitingTime="86.00" waitingCount="1" stopTime="0.00" timeLoss="105.41" rerouteNo="0" devices="tripinfo_flow_route_75_duration_20250327_2250.0" vType="car" speedFactor="1.09" vaporized=""/>
    <tripinfo id="flow_route_75_duration_20250327_2250.1" depart="30.00" departLane="380593307#0_0" departPos="41.91" departSpeed="0.00" departDelay="0.00" arrival="125.00" arrivalLane="-138002002#2_1" arrivalPos="48.64" arrivalSpeed="11.12" duration="95.00" routeLength="210.50" waitingTime="59.00" waitingCount="1" stopTime="0.00" timeLoss="80.41" rerouteNo="0" devices="tripinfo_flow_route_75_duration_20250327_2250.1" vType="car" speedFactor="0.94" vaporized=""/>
    <tripinfo id="flow_route_73_duration_20250327_2250.0" depart="0.00" departLane="380593307#0_0" departPos="55.90" departSpeed="0.00" departDelay="0.00" arrival="131.00" arrivalLane="380585337#0_1" arrivalPos="13.23" arrivalSpeed="15.40" duration="131.00" routeLength="294.01" waitingTime="89.00" waitingCount="1" stopTime="0.00" timeLoss="111.43" rerouteNo="0" devices="tripinfo_flow_route_73_duration_20250327_2250.0" vType="car" speedFactor="0.94" vaporized=""/>
    <tripinfo id="flow_route_73_duration_20250327_2250.1" depart="15.00" departLane="380593307#0_0" departPos="27.62" departSpeed="0.00" departDelay="0.00" arrival="133.00" arrivalLane="380585337#0_0" arrivalPos="18.55" arrivalSpeed="16.37" duration="118.00" routeLength="327.60" waitingTime="75.00" waitingCount="1" stopTime="0.00" timeLoss="97.29" rerouteNo="0" devices="tripinfo_flow_route_73_duration_20250327_2250.1" vType="car" speedFactor="1.05" vaporized=""/>
    <tripinfo id="flow_route_73_duration_20250327_2250.2" depart="30.00" departLane="380593307#0_0" departPos="99.24" departSpeed="0.00" departDelay="0.00" arrival="134.00" arrivalLane="380585337#0_1" arrivalPos="23.40" arrivalSpeed="15.21" duration="104.00" routeLength="260.84" waitingTime="65.00" waitingCount="1" stopTime="0.00" timeLoss="86.53" rerouteNo="0" devices="tripinfo_flow_route_73_duration_20250327_2250.2" vType="car" speedFactor="0.94" vaporized=""/>
    <tripinfo id="flow_route_73_duration_20250327_2250.3" depart="45.00" departLane="380593307#0_0" departPos="100.71" departSpeed="0.00" departDelay="0.00" arrival="134.00" arrivalLane="380585337#0_0" arrivalPos="7.47" arrivalSpeed="16.54" duration="89.00" routeLength="243.44" waitingTime="54.00" waitingCount="1" stopTime="0.00" timeLoss="73.78" rerouteNo="0" devices="tripinfo_flow_route_73_duration_20250327_2250.3" vType="car" speedFactor="1.01" vaporized=""/>
    <tripinfo id="flow_route_74_duration_20250327_2250.0" depart="0.00" departLane="380593307#0_0" departPos="118.68" departSpeed="0.00" departDelay="0.00" arrival="136.00" arrivalLane="138002016#0_0" arrivalPos="237.21" arrivalSpeed="13.93" duration="136.00" routeLength="301.22" waitingTime="96.00" waitingCount="1" stopTime="0.00" timeLoss="113.13" rerouteNo="0" devices="tripinfo_flow_route_74_duration_20250327_2250.0" vType="car" speedFactor="0.86" vaporized=""/>
</tripinfos>
