<?xml version="1.0" encoding="UTF-8"?>

<!-- generated on 2025-05-06 21:07:51 by Eclipse SUMO sumo Version 1.20.0
<configuration xmlns:xsi="http://www.w3.org/2001/XMLSchema-instance" xsi:noNamespaceSchemaLocation="http://sumo.dlr.de/xsd/sumoConfiguration.xsd">

    <input>
        <net-file value="osm.net.xml"/>
        <route-files value="xml/route_rl_cluster_11648561419_11648561420_2271142975_4854142869_1.rou.xml"/>
    </input>

    <output>
        <tripinfo-output value="xml/tripinfo_rl_cluster_11648561419_11648561420_2271142975_4854142869_1.xml"/>
    </output>

    <traci_server>
        <remote-port value="57081"/>
    </traci_server>

</configuration>
-->

<tripinfos xmlns:xsi="http://www.w3.org/2001/XMLSchema-instance" xsi:noNamespaceSchemaLocation="http://sumo.dlr.de/xsd/tripinfo_file.xsd">
    <tripinfo id="flow_route_119_duration_20250327_1910.2" depart="3.00" departLane="134194079#0_0" departPos="282.21" departSpeed="0.00" departDelay="0.60" arrival="13.00" arrivalLane="1253188486#8_0" arrivalPos="7.95" arrivalSpeed="7.47" duration="10.00" routeLength="36.69" waitingTime="0.00" waitingCount="0" stopTime="0.00" timeLoss="6.11" rerouteNo="0" devices="tripinfo_flow_route_119_duration_20250327_1910.2" vType="car" speedFactor="0.88" vaporized=""/>
    <tripinfo id="flow_route_97_duration_20250327_1910.0" depart="0.00" departLane="1328664748#0_0" departPos="149.74" departSpeed="0.00" departDelay="0.00" arrival="27.00" arrivalLane="135474719#0_0" arrivalPos="137.46" arrivalSpeed="15.80" duration="27.00" routeLength="222.45" waitingTime="0.00" waitingCount="0" stopTime="0.00" timeLoss="12.43" rerouteNo="0" devices="tripinfo_flow_route_97_duration_20250327_1910.0" vType="car" speedFactor="1.06" vaporized=""/>
    <tripinfo id="flow_route_118_duration_20250327_1910.1" depart="2.00" departLane="134194079#0_0" departPos="243.19" departSpeed="0.00" departDelay="0.42" arrival="27.00" arrivalLane="1328664744#0_1" arrivalPos="140.54" arrivalSpeed="16.48" duration="25.00" routeLength="218.50" waitingTime="0.00" waitingCount="0" stopTime="0.00" timeLoss="11.44" rerouteNo="0" devices="tripinfo_flow_route_118_duration_20250327_1910.1" vType="car" speedFactor="1.03" vaporized=""/>
    <tripinfo id="flow_route_98_duration_20250327_1910.0" depart="0.00" departLane="1328664748#0_0" departPos="103.72" departSpeed="0.00" departDelay="0.00" arrival="28.00" arrivalLane="177211987#1_1" arrivalPos="104.29" arrivalSpeed="15.49" duration="28.00" routeLength="249.04" waitingTime="0.00" waitingCount="0" stopTime="0.00" timeLoss="11.84" rerouteNo="0" devices="tripinfo_flow_route_98_duration_20250327_1910.0" vType="car" speedFactor="0.94" vaporized=""/>
    <tripinfo id="flow_route_119_duration_20250327_1910.7" depart="10.00" departLane="134194079#0_0" departPos="243.55" departSpeed="0.00" departDelay="1.60" arrival="28.00" arrivalLane="1253188486#8_0" arrivalPos="44.32" arrivalSpeed="12.06" duration="18.00" routeLength="111.73" waitingTime="0.00" waitingCount="0" stopTime="0.00" timeLoss="9.98" rerouteNo="0" devices="tripinfo_flow_route_119_duration_20250327_1910.7" vType="car" speedFactor="1.10" vaporized=""/>
    <tripinfo id="flow_route_97_duration_20250327_1910.1" depart="9.00" departLane="1328664748#0_0" departPos="160.61" departSpeed="0.00" departDelay="0.43" arrival="30.00" arrivalLane="135474719#0_0" arrivalPos="52.30" arrivalSpeed="11.32" duration="21.00" routeLength="126.41" waitingTime="0.00" waitingCount="0" stopTime="0.00" timeLoss="11.70" rerouteNo="0" devices="tripinfo_flow_route_97_duration_20250327_1910.1" vType="car" speedFactor="0.99" vaporized=""/>
    <tripinfo id="flow_route_119_duration_20250327_1910.1" depart="2.00" departLane="134194079#0_0" departPos="261.87" departSpeed="0.00" departDelay="0.80" arrival="31.00" arrivalLane="1253188486#8_0" arrivalPos="230.38" arrivalSpeed="16.19" duration="29.00" routeLength="279.47" waitingTime="0.00" waitingCount="0" stopTime="0.00" timeLoss="10.99" rerouteNo="0" devices="tripinfo_flow_route_119_duration_20250327_1910.1" vType="car" speedFactor="1.05" vaporized=""/>
    <tripinfo id="flow_route_119_duration_20250327_1910.0" depart="0.00" departLane="134194079#0_0" departPos="151.34" departSpeed="0.00" departDelay="0.00" arrival="32.00" arrivalLane="1253188486#8_0" arrivalPos="1.48" arrivalSpeed="8.93" duration="32.00" routeLength="161.10" waitingTime="0.00" waitingCount="0" stopTime="0.00" timeLoss="21.09" rerouteNo="0" devices="tripinfo_flow_route_119_duration_20250327_1910.0" vType="car" speedFactor="1.09" vaporized=""/>
    <tripinfo id="flow_route_118_duration_20250327_1910.3" depart="5.00" departLane="134194079#0_0" departPos="197.11" departSpeed="0.00" departDelay="0.27" arrival="33.00" arrivalLane="1328664744#0_1" arrivalPos="126.81" arrivalSpeed="15.87" duration="28.00" routeLength="250.85" waitingTime="0.00" waitingCount="0" stopTime="0.00" timeLoss="11.63" rerouteNo="0" devices="tripinfo_flow_route_118_duration_20250327_1910.3" vType="car" speedFactor="0.97" vaporized=""/>
    <tripinfo id="flow_route_119_duration_20250327_1910.4" depart="5.00" departLane="134194079#0_0" departPos="211.10" departSpeed="0.00" departDelay="0.20" arrival="33.00" arrivalLane="1253188486#8_0" arrivalPos="59.22" arrivalSpeed="12.01" duration="28.00" routeLength="159.07" waitingTime="0.00" waitingCount="0" stopTime="0.00" timeLoss="16.07" rerouteNo="0" devices="tripinfo_flow_route_119_duration_20250327_1910.4" vType="car" speedFactor="0.89" vaporized=""/>
    <tripinfo id="flow_route_118_duration_20250327_1910.5" depart="10.00" departLane="134194079#0_0" departPos="181.47" departSpeed="0.00" departDelay="2.11" arrival="37.00" arrivalLane="1328664744#0_1" arrivalPos="121.30" arrivalSpeed="16.24" duration="27.00" routeLength="260.98" waitingTime="0.00" waitingCount="0" stopTime="0.00" timeLoss="10.86" rerouteNo="0" devices="tripinfo_flow_route_118_duration_20250327_1910.5" vType="car" speedFactor="1.01" vaporized=""/>
    <tripinfo id="flow_route_118_duration_20250327_1910.2" depart="4.00" departLane="134194079#0_0" departPos="77.91" departSpeed="0.00" departDelay="0.84" arrival="39.00" arrivalLane="1328664744#0_1" arrivalPos="73.50" arrivalSpeed="14.71" duration="35.00" routeLength="316.74" waitingTime="0.00" waitingCount="0" stopTime="0.00" timeLoss="15.32" rerouteNo="0" devices="tripinfo_flow_route_118_duration_20250327_1910.2" vType="car" speedFactor="1.16" vaporized=""/>
    <tripinfo id="flow_route_118_duration_20250327_1910.6" depart="10.00" departLane="134194079#0_0" departPos="172.59" departSpeed="0.00" departDelay="0.53" arrival="42.00" arrivalLane="1328664744#0_1" arrivalPos="150.56" arrivalSpeed="14.87" duration="32.00" routeLength="299.12" waitingTime="0.00" waitingCount="0" stopTime="0.00" timeLoss="12.02" rerouteNo="0" devices="tripinfo_flow_route_118_duration_20250327_1910.6" vType="car" speedFactor="0.90" vaporized=""/>
    <tripinfo id="flow_route_118_duration_20250327_1910.0" depart="0.00" departLane="134194079#0_0" departPos="13.63" departSpeed="0.00" departDelay="0.00" arrival="45.00" arrivalLane="1328664744#0_2" arrivalPos="165.30" arrivalSpeed="13.91" duration="45.00" routeLength="472.83" waitingTime="0.00" waitingCount="0" stopTime="0.00" timeLoss="11.34" rerouteNo="0" devices="tripinfo_flow_route_118_duration_20250327_1910.0" vType="car" speedFactor="0.86" vaporized=""/>
    <tripinfo id="flow_route_97_duration_20250327_1910.3" depart="26.00" departLane="1328664748#0_0" departPos="164.43" departSpeed="0.00" departDelay="0.29" arrival="45.00" arrivalLane="135474719#0_0" arrivalPos="1.13" arrivalSpeed="5.47" duration="19.00" routeLength="71.42" waitingTime="0.00" waitingCount="0" stopTime="0.00" timeLoss="12.79" rerouteNo="0" devices="tripinfo_flow_route_97_duration_20250327_1910.3" vType="car" speedFactor="0.83" vaporized=""/>
    <tripinfo id="flow_route_99_duration_20250327_1910.0" depart="1.00" departLane="1328664748#0_0" departPos="68.32" departSpeed="0.00" departDelay="1.00" arrival="46.00" arrivalLane="1253188486#8_2" arrivalPos="11.16" arrivalSpeed="7.66" duration="45.00" routeLength="200.71" waitingTime="10.00" waitingCount="1" stopTime="0.00" timeLoss="32.17" rerouteNo="0" devices="tripinfo_flow_route_99_duration_20250327_1910.0" vType="car" speedFactor="1.01" vaporized=""/>
    <tripinfo id="flow_route_119_duration_20250327_1910.9" depart="14.00" departLane="134194079#0_0" departPos="230.41" departSpeed="0.00" departDelay="3.20" arrival="46.00" arrivalLane="1253188486#8_0" arrivalPos="239.65" arrivalSpeed="16.17" duration="32.00" routeLength="320.19" waitingTime="0.00" waitingCount="0" stopTime="0.00" timeLoss="11.33" rerouteNo="0" devices="tripinfo_flow_route_119_duration_20250327_1910.9" vType="car" speedFactor="1.09" vaporized=""/>
    <tripinfo id="flow_route_97_duration_20250327_1910.2" depart="18.00" departLane="1328664748#0_0" departPos="75.39" departSpeed="0.00" departDelay="0.86" arrival="48.00" arrivalLane="135474719#0_0" arrivalPos="2.26" arrivalSpeed="7.01" duration="30.00" routeLength="161.58" waitingTime="0.00" waitingCount="0" stopTime="0.00" timeLoss="17.60" rerouteNo="0" devices="tripinfo_flow_route_97_duration_20250327_1910.2" vType="car" speedFactor="0.88" vaporized=""/>
    <tripinfo id="flow_route_119_duration_20250327_1910.5" depart="6.00" departLane="134194079#0_0" departPos="145.32" departSpeed="0.00" departDelay="0.00" arrival="52.00" arrivalLane="1253188486#8_0" arrivalPos="229.41" arrivalSpeed="16.27" duration="46.00" routeLength="395.04" waitingTime="0.00" waitingCount="0" stopTime="0.00" timeLoss="19.64" rerouteNo="0" devices="tripinfo_flow_route_119_duration_20250327_1910.5" vType="car" speedFactor="0.92" vaporized=""/>
    <tripinfo id="flow_route_99_duration_20250327_1910.4" depart="12.00" departLane="1328664748#0_0" departPos="101.41" departSpeed="0.00" departDelay="0.00" arrival="52.00" arrivalLane="1253188486#8_2" arrivalPos="25.69" arrivalSpeed="10.11" duration="40.00" routeLength="182.16" waitingTime="5.00" waitingCount="1" stopTime="0.00" timeLoss="28.16" rerouteNo="0" devices="tripinfo_flow_route_99_duration_20250327_1910.4" vType="car" speedFactor="1.04" vaporized=""/>
    <tripinfo id="flow_route_99_duration_20250327_1910.3" depart="9.00" departLane="1328664748#0_0" departPos="78.28" departSpeed="0.00" departDelay="0.00" arrival="54.00" arrivalLane="1253188486#8_2" arrivalPos="21.10" arrivalSpeed="9.70" duration="45.00" routeLength="200.69" waitingTime="3.00" waitingCount="1" stopTime="0.00" timeLoss="31.91" rerouteNo="0" devices="tripinfo_flow_route_99_duration_20250327_1910.3" vType="car" speedFactor="1.02" vaporized=""/>
    <tripinfo id="flow_route_99_duration_20250327_1910.2" depart="6.00" departLane="1328664748#0_0" departPos="213.58" departSpeed="0.00" departDelay="0.00" arrival="55.00" arrivalLane="1253188486#8_2" arrivalPos="146.28" arrivalSpeed="16.49" duration="49.00" routeLength="190.57" waitingTime="19.00" waitingCount="1" stopTime="0.00" timeLoss="35.74" rerouteNo="0" devices="tripinfo_flow_route_99_duration_20250327_1910.2" vType="car" speedFactor="0.83" vaporized=""/>
    <tripinfo id="flow_route_97_duration_20250327_1910.4" depart="35.00" departLane="1328664748#0_0" departPos="212.28" departSpeed="0.00" departDelay="0.72" arrival="55.00" arrivalLane="135474719#0_0" arrivalPos="130.09" arrivalSpeed="15.28" duration="20.00" routeLength="152.53" waitingTime="0.00" waitingCount="0" stopTime="0.00" timeLoss="9.59" rerouteNo="0" devices="tripinfo_flow_route_97_duration_20250327_1910.4" vType="car" speedFactor="1.06" vaporized=""/>
    <tripinfo id="flow_route_99_duration_20250327_1910.11" depart="34.00" departLane="1328664748#0_0" departPos="117.80" departSpeed="0.00" departDelay="1.00" arrival="60.00" arrivalLane="1253188486#8_2" arrivalPos="11.90" arrivalSpeed="9.40" duration="26.00" routeLength="151.97" waitingTime="0.00" waitingCount="0" stopTime="0.00" timeLoss="16.06" rerouteNo="0" devices="tripinfo_flow_route_99_duration_20250327_1910.11" vType="car" speedFactor="1.00" vaporized=""/>
    <tripinfo id="flow_route_99_duration_20250327_1910.5" depart="16.00" departLane="1328664748#0_0" departPos="151.48" departSpeed="0.00" departDelay="1.00" arrival="61.00" arrivalLane="1253188486#8_2" arrivalPos="175.00" arrivalSpeed="16.59" duration="45.00" routeLength="281.38" waitingTime="6.00" waitingCount="1" stopTime="0.00" timeLoss="26.90" rerouteNo="0" devices="tripinfo_flow_route_99_duration_20250327_1910.5" vType="car" speedFactor="1.10" vaporized=""/>
    <tripinfo id="flow_route_99_duration_20250327_1910.1" depart="4.00" departLane="1328664748#0_0" departPos="27.90" departSpeed="0.00" departDelay="1.00" arrival="62.00" arrivalLane="1253188486#8_2" arrivalPos="97.30" arrivalSpeed="14.95" duration="58.00" routeLength="327.27" waitingTime="3.00" waitingCount="1" stopTime="0.00" timeLoss="37.19" rerouteNo="0" devices="tripinfo_flow_route_99_duration_20250327_1910.1" vType="car" speedFactor="1.12" vaporized=""/>
    <tripinfo id="flow_route_99_duration_20250327_1910.10" depart="30.00" departLane="1328664748#0_0" departPos="106.57" departSpeed="0.00" departDelay="0.00" arrival="64.00" arrivalLane="1253188486#8_2" arrivalPos="69.86" arrivalSpeed="13.68" duration="34.00" routeLength="221.16" waitingTime="0.00" waitingCount="0" stopTime="0.00" timeLoss="19.35" rerouteNo="0" devices="tripinfo_flow_route_99_duration_20250327_1910.10" vType="car" speedFactor="1.03" vaporized=""/>
    <tripinfo id="flow_route_97_duration_20250327_1910.5" depart="43.00" departLane="1328664748#0_0" departPos="193.84" departSpeed="0.00" departDelay="0.15" arrival="65.00" arrivalLane="135474719#0_0" arrivalPos="132.08" arrivalSpeed="16.37" duration="22.00" routeLength="172.96" waitingTime="0.00" waitingCount="0" stopTime="0.00" timeLoss="10.37" rerouteNo="0" devices="tripinfo_flow_route_97_duration_20250327_1910.5" vType="car" speedFactor="1.07" vaporized=""/>
    <tripinfo id="flow_route_99_duration_20250327_1910.14" depart="42.00" departLane="1328664748#0_0" departPos="134.24" departSpeed="0.00" departDelay="0.00" arrival="73.00" arrivalLane="1253188486#8_2" arrivalPos="29.33" arrivalSpeed="10.78" duration="31.00" routeLength="152.96" waitingTime="1.00" waitingCount="1" stopTime="0.00" timeLoss="20.79" rerouteNo="0" devices="tripinfo_flow_route_99_duration_20250327_1910.14" vType="car" speedFactor="1.00" vaporized=""/>
    <tripinfo id="flow_route_97_duration_20250327_1910.6" depart="52.00" departLane="1328664748#0_0" departPos="116.00" departSpeed="0.00" departDelay="0.57" arrival="73.00" arrivalLane="135474719#0_0" arrivalPos="25.03" arrivalSpeed="9.33" duration="21.00" routeLength="143.74" waitingTime="0.00" waitingCount="0" stopTime="0.00" timeLoss="11.65" rerouteNo="0" devices="tripinfo_flow_route_97_duration_20250327_1910.6" vType="car" speedFactor="1.03" vaporized=""/>
    <tripinfo id="flow_route_99_duration_20250327_1910.7" depart="21.00" departLane="1328664748#0_0" departPos="35.07" departSpeed="0.00" departDelay="0.00" arrival="77.00" arrivalLane="1253188486#8_2" arrivalPos="206.99" arrivalSpeed="16.14" duration="56.00" routeLength="429.79" waitingTime="1.00" waitingCount="1" stopTime="0.00" timeLoss="28.77" rerouteNo="0" devices="tripinfo_flow_route_99_duration_20250327_1910.7" vType="car" speedFactor="1.03" vaporized=""/>
    <tripinfo id="flow_route_110_duration_20250327_1910.0" depart="0.00" departLane="1254519225#0.109_0" departPos="3.76" departSpeed="0.00" departDelay="0.00" arrival="83.00" arrivalLane="177211987#1_2" arrivalPos="6.38" arrivalSpeed="8.22" duration="83.00" routeLength="190.24" waitingTime="48.00" waitingCount="1" stopTime="0.00" timeLoss="68.30" rerouteNo="0" devices="tripinfo_flow_route_110_duration_20250327_1910.0" vType="car" speedFactor="0.83" vaporized=""/>
    <tripinfo id="flow_route_99_duration_20250327_1910.19" depart="57.00" departLane="1328664748#0_0" departPos="218.25" departSpeed="0.00" departDelay="0.00" arrival="83.00" arrivalLane="1253188486#8_2" arrivalPos="200.49" arrivalSpeed="16.49" duration="26.00" routeLength="240.11" waitingTime="0.00" waitingCount="0" stopTime="0.00" timeLoss="10.41" rerouteNo="0" devices="tripinfo_flow_route_99_duration_20250327_1910.19" vType="car" speedFactor="0.95" vaporized=""/>
    <tripinfo id="flow_route_110_duration_20250327_1910.1" depart="4.00" departLane="1254519225#0.109_0" departPos="25.66" departSpeed="0.00" departDelay="0.00" arrival="85.00" arrivalLane="177211987#1_2" arrivalPos="4.37" arrivalSpeed="8.59" duration="81.00" routeLength="166.32" waitingTime="48.00" waitingCount="2" stopTime="0.00" timeLoss="69.60" rerouteNo="0" devices="tripinfo_flow_route_110_duration_20250327_1910.1" vType="car" speedFactor="0.94" vaporized=""/>
    <tripinfo id="flow_route_109_duration_20250327_1910.3" depart="7.00" departLane="1254519225#0.109_0" departPos="40.03" departSpeed="0.00" departDelay="0.80" arrival="87.00" arrivalLane="1328664744#0_0" arrivalPos="37.36" arrivalSpeed="10.51" duration="80.00" routeLength="171.56" waitingTime="47.00" waitingCount="1" stopTime="0.00" timeLoss="68.64" rerouteNo="0" devices="tripinfo_flow_route_109_duration_20250327_1910.3" vType="car" speedFactor="1.13" vaporized=""/>
    <tripinfo id="flow_route_108_duration_20250327_1910.0" depart="0.00" departLane="1254519225#0.109_0" departPos="35.33" departSpeed="0.00" departDelay="0.00" arrival="89.00" arrivalLane="135474719#0_1" arrivalPos="75.82" arrivalSpeed="13.99" duration="89.00" routeLength="240.24" waitingTime="48.00" waitingCount="1" stopTime="0.00" timeLoss="73.86" rerouteNo="0" devices="tripinfo_flow_route_108_duration_20250327_1910.0" vType="car" speedFactor="1.08" vaporized=""/>
    <tripinfo id="flow_route_109_duration_20250327_1910.1" depart="3.00" departLane="1254519225#0.109_0" departPos="47.70" departSpeed="0.00" departDelay="0.93" arrival="89.00" arrivalLane="1328664744#0_0" arrivalPos="120.76" arrivalSpeed="14.19" duration="86.00" routeLength="247.29" waitingTime="50.00" waitingCount="1" stopTime="0.00" timeLoss="70.08" rerouteNo="0" devices="tripinfo_flow_route_109_duration_20250327_1910.1" vType="car" speedFactor="0.99" vaporized=""/>
    <tripinfo id="flow_route_99_duration_20250327_1910.6" depart="18.00" departLane="1328664748#0_0" departPos="0.19" departSpeed="0.00" departDelay="0.00" arrival="89.00" arrivalLane="1253188486#8_2" arrivalPos="240.67" arrivalSpeed="16.37" duration="71.00" routeLength="498.35" waitingTime="1.00" waitingCount="1" stopTime="0.00" timeLoss="38.41" rerouteNo="0" devices="tripinfo_flow_route_99_duration_20250327_1910.6" vType="car" speedFactor="0.91" vaporized=""/>
    <tripinfo id="flow_route_109_duration_20250327_1910.0" depart="0.00" departLane="1254519225#0.109_0" departPos="16.50" departSpeed="0.00" departDelay="0.00" arrival="91.00" arrivalLane="1328664744#0_0" arrivalPos="130.88" arrivalSpeed="14.66" duration="91.00" routeLength="288.61" waitingTime="49.00" waitingCount="1" stopTime="0.00" timeLoss="72.76" rerouteNo="0" devices="tripinfo_flow_route_109_duration_20250327_1910.0" vType="car" speedFactor="1.03" vaporized=""/>
    <tripinfo id="flow_route_109_duration_20250327_1910.7" depart="16.00" departLane="1254519225#0.109_0" departPos="36.98" departSpeed="0.00" departDelay="1.52" arrival="92.00" arrivalLane="1328664744#0_0" arrivalPos="31.32" arrivalSpeed="11.33" duration="76.00" routeLength="168.57" waitingTime="35.00" waitingCount="2" stopTime="0.00" timeLoss="64.97" rerouteNo="0" devices="tripinfo_flow_route_109_duration_20250327_1910.7" vType="car" speedFactor="1.00" vaporized=""/>
    <tripinfo id="flow_route_108_duration_20250327_1910.2" depart="15.00" departLane="1254519225#0.109_0" departPos="61.03" departSpeed="0.00" departDelay="1.67" arrival="93.00" arrivalLane="135474719#0_0" arrivalPos="71.94" arrivalSpeed="15.30" duration="78.00" routeLength="210.66" waitingTime="41.00" waitingCount="2" stopTime="0.00" timeLoss="64.80" rerouteNo="0" devices="tripinfo_flow_route_108_duration_20250327_1910.2" vType="car" speedFactor="1.17" vaporized=""/>
    <tripinfo id="flow_route_108_duration_20250327_1910.1" depart="7.00" departLane="1254519225#0.109_0" departPos="11.44" departSpeed="0.00" departDelay="0.33" arrival="95.00" arrivalLane="135474719#0_2" arrivalPos="89.49" arrivalSpeed="15.58" duration="88.00" routeLength="277.80" waitingTime="45.00" waitingCount="1" stopTime="0.00" timeLoss="69.73" rerouteNo="0" devices="tripinfo_flow_route_108_duration_20250327_1910.1" vType="car" speedFactor="0.95" vaporized=""/>
    <tripinfo id="flow_route_110_duration_20250327_1910.2" depart="8.00" departLane="1254519225#0.109_0" departPos="11.17" departSpeed="0.00" departDelay="0.00" arrival="95.00" arrivalLane="177211987#1_2" arrivalPos="4.07" arrivalSpeed="8.72" duration="87.00" routeLength="180.53" waitingTime="42.00" waitingCount="4" stopTime="0.00" timeLoss="75.64" rerouteNo="0" devices="tripinfo_flow_route_110_duration_20250327_1910.2" vType="car" speedFactor="1.18" vaporized=""/>
    <tripinfo id="flow_route_109_duration_20250327_1910.4" depart="10.00" departLane="1254519225#0.109_0" departPos="31.99" departSpeed="0.00" departDelay="1.73" arrival="98.00" arrivalLane="1328664744#0_0" arrivalPos="125.82" arrivalSpeed="15.73" duration="88.00" routeLength="268.06" waitingTime="39.00" waitingCount="2" stopTime="0.00" timeLoss="69.76" rerouteNo="0" devices="tripinfo_flow_route_109_duration_20250327_1910.4" vType="car" speedFactor="0.97" vaporized=""/>
    <tripinfo id="flow_route_110_duration_20250327_1910.3" depart="12.00" departLane="1254519225#0.109_0" departPos="54.52" departSpeed="0.00" departDelay="0.00" arrival="99.00" arrivalLane="177211987#1_2" arrivalPos="128.15" arrivalSpeed="16.18" duration="87.00" routeLength="261.25" waitingTime="42.00" waitingCount="2" stopTime="0.00" timeLoss="70.57" rerouteNo="0" devices="tripinfo_flow_route_110_duration_20250327_1910.3" vType="car" speedFactor="1.04" vaporized=""/>
    <tripinfo id="flow_route_109_duration_20250327_1910.15" depart="36.00" departLane="1254519225#0.109_0" departPos="59.75" departSpeed="0.00" departDelay="4.98" arrival="99.00" arrivalLane="1328664744#0_0" arrivalPos="34.07" arrivalSpeed="10.92" duration="63.00" routeLength="148.55" waitingTime="30.00" waitingCount="2" stopTime="0.00" timeLoss="52.91" rerouteNo="0" devices="tripinfo_flow_route_109_duration_20250327_1910.15" vType="car" speedFactor="1.10" vaporized=""/>
    <tripinfo id="flow_route_108_duration_20250327_1910.3" depart="20.00" departLane="1254519225#0.109_0" departPos="48.92" departSpeed="0.00" departDelay="0.00" arrival="100.00" arrivalLane="135474719#0_2" arrivalPos="17.64" arrivalSpeed="11.47" duration="80.00" routeLength="168.47" waitingTime="40.00" waitingCount="2" stopTime="0.00" timeLoss="68.58" rerouteNo="0" devices="tripinfo_flow_route_108_duration_20250327_1910.3" vType="car" speedFactor="0.94" vaporized=""/>
    <tripinfo id="flow_route_109_duration_20250327_1910.2" depart="5.00" departLane="1254519225#0.109_0" departPos="5.55" departSpeed="0.00" departDelay="0.86" arrival="101.00" arrivalLane="1328664744#0_0" arrivalPos="37.26" arrivalSpeed="11.32" duration="96.00" routeLength="205.94" waitingTime="35.00" waitingCount="5" stopTime="0.00" timeLoss="82.28" rerouteNo="0" devices="tripinfo_flow_route_109_duration_20250327_1910.2" vType="car" speedFactor="1.01" vaporized=""/>
    <tripinfo id="flow_route_110_duration_20250327_1910.4" depart="17.00" departLane="1254519225#0.109_0" departPos="58.95" departSpeed="0.00" departDelay="1.00" arrival="101.00" arrivalLane="177211987#1_2" arrivalPos="132.38" arrivalSpeed="15.82" duration="84.00" routeLength="261.06" waitingTime="40.00" waitingCount="4" stopTime="0.00" timeLoss="66.88" rerouteNo="0" devices="tripinfo_flow_route_110_duration_20250327_1910.4" vType="car" speedFactor="0.97" vaporized=""/>
    <tripinfo id="flow_route_109_duration_20250327_1910.8" depart="17.00" departLane="1254519225#0.109_0" departPos="34.27" departSpeed="0.00" departDelay="0.46" arrival="102.00" arrivalLane="1328664744#0_0" arrivalPos="22.82" arrivalSpeed="10.92" duration="85.00" routeLength="162.79" waitingTime="39.00" waitingCount="7" stopTime="0.00" timeLoss="74.04" rerouteNo="0" devices="tripinfo_flow_route_109_duration_20250327_1910.8" vType="car" speedFactor="0.99" vaporized=""/>
    <tripinfo id="flow_route_109_duration_20250327_1910.9" depart="20.00" departLane="1254519225#0.109_0" departPos="58.41" departSpeed="0.00" departDelay="1.39" arrival="102.00" arrivalLane="1328664744#0_0" arrivalPos="146.12" arrivalSpeed="16.23" duration="82.00" routeLength="261.94" waitingTime="41.00" waitingCount="4" stopTime="0.00" timeLoss="65.08" rerouteNo="0" devices="tripinfo_flow_route_109_duration_20250327_1910.9" vType="car" speedFactor="1.02" vaporized=""/>
    <tripinfo id="flow_route_109_duration_20250327_1910.11" depart="24.00" departLane="1254519225#0.109_0" departPos="35.54" departSpeed="0.00" departDelay="1.25" arrival="106.00" arrivalLane="1328664744#0_0" arrivalPos="50.53" arrivalSpeed="12.52" duration="82.00" routeLength="189.22" waitingTime="40.00" waitingCount="4" stopTime="0.00" timeLoss="69.73" rerouteNo="0" devices="tripinfo_flow_route_109_duration_20250327_1910.11" vType="car" speedFactor="1.02" vaporized=""/>
    <tripinfo id="flow_route_110_duration_20250327_1910.9" depart="49.00" departLane="1254519225#0.109_0" departPos="59.62" departSpeed="0.00" departDelay="13.00" arrival="107.00" arrivalLane="177211987#1_2" arrivalPos="47.94" arrivalSpeed="13.55" duration="58.00" routeLength="175.94" waitingTime="22.00" waitingCount="2" stopTime="0.00" timeLoss="46.00" rerouteNo="0" devices="tripinfo_flow_route_110_duration_20250327_1910.9" vType="car" speedFactor="1.01" vaporized=""/>
    <tripinfo id="flow_route_109_duration_20250327_1910.18" depart="50.00" departLane="1254519225#0.109_0" departPos="57.67" departSpeed="0.00" departDelay="12.78" arrival="107.00" arrivalLane="1328664744#0_0" arrivalPos="31.93" arrivalSpeed="12.25" duration="57.00" routeLength="148.49" waitingTime="29.00" waitingCount="3" stopTime="0.00" timeLoss="46.95" rerouteNo="0" devices="tripinfo_flow_route_109_duration_20250327_1910.18" vType="car" speedFactor="1.23" vaporized=""/>
    <tripinfo id="flow_route_110_duration_20250327_1910.6" depart="24.00" departLane="1254519225#0.109_0" departPos="46.77" departSpeed="0.00" departDelay="0.00" arrival="110.00" arrivalLane="177211987#1_2" arrivalPos="137.69" arrivalSpeed="16.10" duration="86.00" routeLength="278.55" waitingTime="38.00" waitingCount="4" stopTime="0.00" timeLoss="67.76" rerouteNo="0" devices="tripinfo_flow_route_110_duration_20250327_1910.6" vType="car" speedFactor="1.00" vaporized=""/>
    <tripinfo id="flow_route_109_duration_20250327_1910.13" depart="28.00" departLane="1254519225#0.109_0" departPos="58.49" departSpeed="0.00" departDelay="1.12" arrival="111.00" arrivalLane="1328664744#0_0" arrivalPos="217.92" arrivalSpeed="15.01" duration="83.00" routeLength="333.66" waitingTime="37.00" waitingCount="3" stopTime="0.00" timeLoss="58.74" rerouteNo="0" devices="tripinfo_flow_route_109_duration_20250327_1910.13" vType="car" speedFactor="0.91" vaporized=""/>
    <tripinfo id="flow_route_108_duration_20250327_1910.5" depart="41.00" departLane="1254519225#0.109_0" departPos="54.99" departSpeed="0.00" departDelay="7.67" arrival="111.00" arrivalLane="135474719#0_2" arrivalPos="114.20" arrivalSpeed="15.28" duration="70.00" routeLength="258.96" waitingTime="24.00" waitingCount="3" stopTime="0.00" timeLoss="52.53" rerouteNo="0" devices="tripinfo_flow_route_108_duration_20250327_1910.5" vType="car" speedFactor="0.94" vaporized=""/>
    <tripinfo id="flow_route_109_duration_20250327_1910.5" depart="11.00" departLane="1254519225#0.109_0" departPos="1.49" departSpeed="0.00" departDelay="0.66" arrival="113.00" arrivalLane="1328664744#0_0" arrivalPos="81.01" arrivalSpeed="14.76" duration="102.00" routeLength="253.76" waitingTime="32.00" waitingCount="7" stopTime="0.00" timeLoss="84.56" rerouteNo="0" devices="tripinfo_flow_route_109_duration_20250327_1910.5" vType="car" speedFactor="0.96" vaporized=""/>
    <tripinfo id="flow_route_110_duration_20250327_1910.5" depart="20.00" departLane="1254519225#0.109_0" departPos="28.88" departSpeed="0.00" departDelay="0.00" arrival="117.00" arrivalLane="177211987#1_2" arrivalPos="124.60" arrivalSpeed="16.21" duration="97.00" routeLength="283.34" waitingTime="45.00" waitingCount="4" stopTime="0.00" timeLoss="78.40" rerouteNo="0" devices="tripinfo_flow_route_110_duration_20250327_1910.5" vType="car" speedFactor="1.06" vaporized=""/>
    <tripinfo id="flow_route_108_duration_20250327_1910.6" depart="51.00" departLane="1254519225#0.109_0" departPos="48.68" departSpeed="0.00" departDelay="11.00" arrival="118.00" arrivalLane="135474719#0_2" arrivalPos="104.76" arrivalSpeed="16.09" duration="67.00" routeLength="255.83" waitingTime="17.00" waitingCount="3" stopTime="0.00" timeLoss="50.99" rerouteNo="0" devices="tripinfo_flow_route_108_duration_20250327_1910.6" vType="car" speedFactor="1.11" vaporized=""/>
    <tripinfo id="flow_route_114_duration_20250327_1910.0" depart="0.00" departLane="1253188486#4_0" departPos="49.31" departSpeed="0.00" departDelay="0.00" arrival="121.00" arrivalLane="177211987#1_0" arrivalPos="36.23" arrivalSpeed="9.55" duration="121.00" routeLength="153.37" waitingTime="89.00" waitingCount="1" stopTime="0.00" timeLoss="109.98" rerouteNo="0" devices="tripinfo_flow_route_114_duration_20250327_1910.0" vType="car" speedFactor="0.89" vaporized=""/>
    <tripinfo id="flow_route_113_duration_20250327_1910.1" depart="3.00" departLane="1253188486#4_0" departPos="24.37" departSpeed="0.00" departDelay="0.00" arrival="123.00" arrivalLane="1253188486#8_1" arrivalPos="58.08" arrivalSpeed="12.99" duration="120.00" routeLength="232.34" waitingTime="84.00" waitingCount="1" stopTime="0.00" timeLoss="105.37" rerouteNo="0" devices="tripinfo_flow_route_113_duration_20250327_1910.1" vType="car" speedFactor="0.93" vaporized=""/>