<?xml version="1.0" encoding="UTF-8"?>

<!-- generated on 2025-05-06 21:08:56 by Eclipse SUMO sumo Version 1.20.0
<configuration xmlns:xsi="http://www.w3.org/2001/XMLSchema-instance" xsi:noNamespaceSchemaLocation="http://sumo.dlr.de/xsd/sumoConfiguration.xsd">

    <input>
        <net-file value="osm.net.xml"/>
        <route-files value="xml/route_static_cluster_4110471701_632031939_7.rou.xml"/>
    </input>

    <output>
        <tripinfo-output value="xml/tripinfo_static_cluster_4110471701_632031939_7.xml"/>
    </output>

    <traci_server>
        <remote-port value="41995"/>
    </traci_server>

</configuration>
-->

<tripinfos xmlns:xsi="http://www.w3.org/2001/XMLSchema-instance" xsi:noNamespaceSchemaLocation="http://sumo.dlr.de/xsd/tripinfo_file.xsd">
    <tripinfo id="flow_route_83_duration_20250327_2210.0" depart="0.00" departLane="423956929_0" departPos="101.16" departSpeed="0.00" departDelay="0.00" arrival="17.00" arrivalLane="186407685_0" arrivalPos="8.05" arrivalSpeed="6.86" duration="17.00" routeLength="101.45" waitingTime="0.00" waitingCount="0" stopTime="0.00" timeLoss="10.18" rerouteNo="0" devices="tripinfo_flow_route_83_duration_20250327_2210.0" vType="car" speedFactor="1.01" vaporized=""/>
    <tripinfo id="flow_route_87_duration_20250327_2210.1" depart="8.00" departLane="430416184_0" departPos="253.21" departSpeed="0.00" departDelay="0.50" arrival="21.00" arrivalLane="1091883842_0" arrivalPos="11.19" arrivalSpeed="7.83" duration="13.00" routeLength="58.43" waitingTime="0.00" waitingCount="0" stopTime="0.00" timeLoss="8.21" rerouteNo="0" devices="tripinfo_flow_route_87_duration_20250327_2210.1" vType="car" speedFactor="0.94" vaporized=""/>
    <tripinfo id="flow_route_62_duration_20250327_2210.0" depart="0.00" departLane="409155823_0" departPos="65.43" departSpeed="0.00" departDelay="0.00" arrival="23.00" arrivalLane="1091883842_0" arrivalPos="165.47" arrivalSpeed="16.20" duration="23.00" routeLength="205.45" waitingTime="0.00" waitingCount="0" stopTime="0.00" timeLoss="10.53" rerouteNo="0" devices="tripinfo_flow_route_62_duration_20250327_2210.0" vType="car" speedFactor="1.06" vaporized=""/>
    <tripinfo id="flow_route_82_duration_20250327_2210.0" depart="0.00" departLane="423956929_0" departPos="45.92" departSpeed="0.00" departDelay="0.00" arrival="24.00" arrivalLane="186407684#0_0" arrivalPos="62.79" arrivalSpeed="15.18" duration="24.00" routeLength="219.95" waitingTime="0.00" waitingCount="0" stopTime="0.00" timeLoss="8.99" rerouteNo="0" devices="tripinfo_flow_route_82_duration_20250327_2210.0" vType="car" speedFactor="0.94" vaporized=""/>
    <tripinfo id="flow_route_62_duration_20250327_2210.1" depart="20.00" departLane="409155823_0" departPos="84.21" departSpeed="0.00" departDelay="0.00" arrival="40.00" arrivalLane="1091883842_0" arrivalPos="141.98" arrivalSpeed="15.21" duration="20.00" routeLength="163.18" waitingTime="0.00" waitingCount="0" stopTime="0.00" timeLoss="9.30" rerouteNo="0" devices="tripinfo_flow_route_62_duration_20250327_2210.1" vType="car" speedFactor="0.93" vaporized=""/>
    <tripinfo id="flow_route_88_duration_20250327_2210.0" depart="0.00" departLane="430416184_0" departPos="194.63" departSpeed="0.00" departDelay="0.00" arrival="42.00" arrivalLane="186407684#0_1" arrivalPos="3.84" arrivalSpeed="7.90" duration="42.00" routeLength="126.85" waitingTime="14.00" waitingCount="1" stopTime="0.00" timeLoss="32.40" rerouteNo="0" devices="tripinfo_flow_route_88_duration_20250327_2210.0" vType="car" speedFactor="0.83" vaporized=""/>
    <tripinfo id="flow_route_87_duration_20250327_2210.0" depart="0.00" departLane="430416184_0" departPos="1.75" departSpeed="0.00" departDelay="0.00" arrival="46.00" arrivalLane="1091883842_0" arrivalPos="109.56" arrivalSpeed="14.29" duration="46.00" routeLength="408.27" waitingTime="0.00" waitingCount="0" stopTime="0.00" timeLoss="20.14" rerouteNo="0" devices="tripinfo_flow_route_87_duration_20250327_2210.0" vType="car" speedFactor="1.03" vaporized=""/>
    <tripinfo id="flow_route_88_duration_20250327_2210.3" depart="10.00" departLane="430416184_0" departPos="197.69" departSpeed="0.00" departDelay="0.53" arrival="47.00" arrivalLane="186407684#0_1" arrivalPos="28.37" arrivalSpeed="11.00" duration="37.00" routeLength="148.31" waitingTime="6.00" waitingCount="1" stopTime="0.00" timeLoss="25.83" rerouteNo="0" devices="tripinfo_flow_route_88_duration_20250327_2210.3" vType="car" speedFactor="0.86" vaporized=""/>
    <tripinfo id="flow_route_87_duration_20250327_2210.2" depart="15.00" departLane="430416184_0" departPos="238.38" departSpeed="0.00" departDelay="0.00" arrival="47.00" arrivalLane="1091883842_0" arrivalPos="174.39" arrivalSpeed="16.53" duration="32.00" routeLength="236.46" waitingTime="0.00" waitingCount="0" stopTime="0.00" timeLoss="16.59" rerouteNo="0" devices="tripinfo_flow_route_87_duration_20250327_2210.2" vType="car" speedFactor="1.05" vaporized=""/>
    <tripinfo id="flow_route_86_duration_20250327_2210.0" depart="0.00" departLane="430416184_0" departPos="215.48" departSpeed="0.00" departDelay="0.00" arrival="48.00" arrivalLane="186407685_1" arrivalPos="87.02" arrivalSpeed="14.06" duration="48.00" routeLength="195.42" waitingTime="15.00" waitingCount="1" stopTime="0.00" timeLoss="35.55" rerouteNo="0" devices="tripinfo_flow_route_86_duration_20250327_2210.0" vType="car" speedFactor="1.08" vaporized=""/>
    <tripinfo id="flow_route_87_duration_20250327_2210.4" depart="30.00" departLane="430416184_0" departPos="193.22" departSpeed="0.00" departDelay="0.00" arrival="50.00" arrivalLane="1091883842_0" arrivalPos="16.53" arrivalSpeed="8.61" duration="20.00" routeLength="123.77" waitingTime="0.00" waitingCount="0" stopTime="0.00" timeLoss="11.93" rerouteNo="0" devices="tripinfo_flow_route_87_duration_20250327_2210.4" vType="car" speedFactor="0.97" vaporized=""/>
    <tripinfo id="flow_route_88_duration_20250327_2210.11" depart="35.00" departLane="430416184_0" departPos="270.41" departSpeed="0.00" departDelay="0.27" arrival="53.00" arrivalLane="186407684#0_1" arrivalPos="60.95" arrivalSpeed="12.26" duration="18.00" routeLength="108.17" waitingTime="0.00" waitingCount="0" stopTime="0.00" timeLoss="8.61" rerouteNo="0" devices="tripinfo_flow_route_88_duration_20250327_2210.11" vType="car" speedFactor="0.83" vaporized=""/>
    <tripinfo id="flow_route_88_duration_20250327_2210.1" depart="4.00" departLane="430416184_0" departPos="130.75" departSpeed="0.00" departDelay="0.84" arrival="54.00" arrivalLane="186407684#0_1" arrivalPos="41.08" arrivalSpeed="11.35" duration="50.00" routeLength="227.97" waitingTime="9.00" waitingCount="2" stopTime="0.00" timeLoss="35.53" rerouteNo="0" devices="tripinfo_flow_route_88_duration_20250327_2210.1" vType="car" speedFactor="1.05" vaporized=""/>
    <tripinfo id="flow_route_88_duration_20250327_2210.4" depart="13.00" departLane="430416184_0" departPos="183.20" departSpeed="0.00" departDelay="0.37" arrival="55.00" arrivalLane="186407684#0_1" arrivalPos="27.06" arrivalSpeed="10.58" duration="42.00" routeLength="161.50" waitingTime="7.00" waitingCount="2" stopTime="0.00" timeLoss="31.39" rerouteNo="0" devices="tripinfo_flow_route_88_duration_20250327_2210.4" vType="car" speedFactor="1.03" vaporized=""/>
    <tripinfo id="flow_route_86_duration_20250327_2210.1" depart="12.00" departLane="430416184_0" departPos="148.34" departSpeed="0.00" departDelay="0.00" arrival="56.00" arrivalLane="186407685_1" arrivalPos="8.18" arrivalSpeed="10.46" duration="44.00" routeLength="183.72" waitingTime="4.00" waitingCount="2" stopTime="0.00" timeLoss="32.73" rerouteNo="0" devices="tripinfo_flow_route_86_duration_20250327_2210.1" vType="car" speedFactor="1.09" vaporized=""/>
    <tripinfo id="flow_route_88_duration_20250327_2210.2" depart="7.00" departLane="430416184_0" departPos="76.50" departSpeed="0.00" departDelay="0.69" arrival="61.00" arrivalLane="186407684#0_1" arrivalPos="49.91" arrivalSpeed="12.39" duration="54.00" routeLength="291.04" waitingTime="4.00" waitingCount="1" stopTime="0.00" timeLoss="34.33" rerouteNo="0" devices="tripinfo_flow_route_88_duration_20250327_2210.2" vType="car" speedFactor="0.89" vaporized=""/>
    <tripinfo id="flow_route_88_duration_20250327_2210.9" depart="29.00" departLane="430416184_0" departPos="234.74" departSpeed="0.00" departDelay="0.59" arrival="61.00" arrivalLane="186407684#0_1" arrivalPos="21.27" arrivalSpeed="12.16" duration="32.00" routeLength="104.17" waitingTime="8.00" waitingCount="1" stopTime="0.00" timeLoss="24.27" rerouteNo="0" devices="tripinfo_flow_route_88_duration_20250327_2210.9" vType="car" speedFactor="1.01" vaporized=""/>
    <tripinfo id="flow_route_88_duration_20250327_2210.6" depart="19.00" departLane="430416184_0" departPos="87.27" departSpeed="0.00" departDelay="0.06" arrival="63.00" arrivalLane="186407684#0_1" arrivalPos="2.86" arrivalSpeed="10.64" duration="44.00" routeLength="233.22" waitingTime="0.00" waitingCount="0" stopTime="0.00" timeLoss="28.91" rerouteNo="0" devices="tripinfo_flow_route_88_duration_20250327_2210.6" vType="car" speedFactor="0.99" vaporized=""/>
    <tripinfo id="flow_route_88_duration_20250327_2210.8" depart="26.00" departLane="430416184_0" departPos="165.30" departSpeed="0.00" departDelay="0.74" arrival="63.00" arrivalLane="186407684#0_1" arrivalPos="14.80" arrivalSpeed="12.39" duration="37.00" routeLength="167.13" waitingTime="0.00" waitingCount="0" stopTime="0.00" timeLoss="25.40" rerouteNo="0" devices="tripinfo_flow_route_88_duration_20250327_2210.8" vType="car" speedFactor="1.02" vaporized=""/>
    <tripinfo id="flow_route_87_duration_20250327_2210.3" depart="23.00" departLane="430416184_0" departPos="37.41" departSpeed="0.00" departDelay="0.50" arrival="65.00" arrivalLane="1091883842_0" arrivalPos="127.22" arrivalSpeed="15.51" duration="42.00" routeLength="390.26" waitingTime="0.00" waitingCount="0" stopTime="0.00" timeLoss="16.71" rerouteNo="0" devices="tripinfo_flow_route_87_duration_20250327_2210.3" vType="car" speedFactor="0.94" vaporized=""/>
    <tripinfo id="flow_route_88_duration_20250327_2210.10" depart="32.00" departLane="430416184_0" departPos="172.42" departSpeed="0.00" departDelay="0.43" arrival="71.00" arrivalLane="186407684#0_1" arrivalPos="63.06" arrivalSpeed="13.73" duration="39.00" routeLength="208.27" waitingTime="0.00" waitingCount="0" stopTime="0.00" timeLoss="24.01" rerouteNo="0" devices="tripinfo_flow_route_88_duration_20250327_2210.10" vType="car" speedFactor="0.89" vaporized=""/>
    <tripinfo id="flow_route_88_duration_20250327_2210.5" depart="18.00" departLane="430416184_0" departPos="68.46" departSpeed="0.00" departDelay="2.22" arrival="73.00" arrivalLane="186407684#0_1" arrivalPos="78.23" arrivalSpeed="13.93" duration="55.00" routeLength="327.40" waitingTime="0.00" waitingCount="0" stopTime="0.00" timeLoss="34.66" rerouteNo="0" devices="tripinfo_flow_route_88_duration_20250327_2210.5" vType="car" speedFactor="1.12" vaporized=""/>
    <tripinfo id="flow_route_83_duration_20250327_2210.1" depart="20.00" departLane="423956929_0" departPos="5.53" departSpeed="0.00" departDelay="0.00" arrival="77.00" arrivalLane="186407685_0" arrivalPos="28.17" arrivalSpeed="7.40" duration="57.00" routeLength="217.20" waitingTime="24.00" waitingCount="1" stopTime="0.00" timeLoss="41.54" rerouteNo="0" devices="tripinfo_flow_route_83_duration_20250327_2210.1" vType="car" speedFactor="0.88" vaporized=""/>
    <tripinfo id="flow_route_83_duration_20250327_2210.2" depart="40.00" departLane="423956929_0" departPos="101.44" departSpeed="0.00" departDelay="0.00" arrival="79.00" arrivalLane="186407685_0" arrivalPos="26.88" arrivalSpeed="7.61" duration="39.00" routeLength="120.00" waitingTime="12.00" waitingCount="1" stopTime="0.00" timeLoss="30.60" rerouteNo="0" devices="tripinfo_flow_route_83_duration_20250327_2210.2" vType="car" speedFactor="0.93" vaporized=""/>
    <tripinfo id="flow_route_87_duration_20250327_2210.7" depart="53.00" departLane="430416184_0" departPos="196.27" departSpeed="0.00" departDelay="0.50" arrival="84.00" arrivalLane="1091883842_0" arrivalPos="39.44" arrivalSpeed="9.27" duration="31.00" routeLength="143.62" waitingTime="3.00" waitingCount="1" stopTime="0.00" timeLoss="21.34" rerouteNo="0" devices="tripinfo_flow_route_87_duration_20250327_2210.7" vType="car" speedFactor="0.97" vaporized=""/>
    <tripinfo id="flow_route_62_duration_20250327_2210.2" depart="40.00" departLane="409155823_0" departPos="24.55" departSpeed="0.00" departDelay="0.00" arrival="85.00" arrivalLane="1091883842_0" arrivalPos="119.16" arrivalSpeed="15.08" duration="45.00" routeLength="200.02" waitingTime="12.00" waitingCount="1" stopTime="0.00" timeLoss="32.57" rerouteNo="0" devices="tripinfo_flow_route_62_duration_20250327_2210.2" vType="car" speedFactor="1.13" vaporized=""/>
    <tripinfo id="flow_route_87_duration_20250327_2210.5" depart="38.00" departLane="430416184_0" departPos="48.70" departSpeed="0.00" departDelay="0.50" arrival="93.00" arrivalLane="1091883842_0" arrivalPos="91.48" arrivalSpeed="12.53" duration="55.00" routeLength="343.23" waitingTime="2.00" waitingCount="1" stopTime="0.00" timeLoss="32.88" rerouteNo="0" devices="tripinfo_flow_route_87_duration_20250327_2210.5" vType="car" speedFactor="0.92" vaporized=""/>
    <tripinfo id="flow_route_87_duration_20250327_2210.6" depart="45.00" departLane="430416184_0" departPos="98.04" departSpeed="0.00" departDelay="0.00" arrival="98.00" arrivalLane="1091883842_0" arrivalPos="184.27" arrivalSpeed="16.42" duration="53.00" routeLength="386.69" waitingTime="3.00" waitingCount="1" stopTime="0.00" timeLoss="28.82" rerouteNo="0" devices="tripinfo_flow_route_87_duration_20250327_2210.6" vType="car" speedFactor="1.15" vaporized=""/>
    <tripinfo id="flow_route_88_duration_20250327_2210.18" depart="58.00" departLane="430416184_0" departPos="238.74" departSpeed="0.00" departDelay="1.17" arrival="111.00" arrivalLane="186407684#0_1" arrivalPos="34.35" arrivalSpeed="9.65" duration="53.00" routeLength="113.24" waitingTime="28.00" waitingCount="1" stopTime="0.00" timeLoss="45.17" rerouteNo="0" devices="tripinfo_flow_route_88_duration_20250327_2210.18" vType="car" speedFactor="1.10" vaporized=""/>
    <tripinfo id="flow_route_88_duration_20250327_2210.7" depart="25.00" departLane="430416184_0" departPos="76.37" departSpeed="0.00" departDelay="2.90" arrival="113.00" arrivalLane="186407684#0_1" arrivalPos="29.20" arrivalSpeed="9.16" duration="88.00" routeLength="270.46" waitingTime="27.00" waitingCount="2" stopTime="0.00" timeLoss="70.39" rerouteNo="0" devices="tripinfo_flow_route_88_duration_20250327_2210.7" vType="car" speedFactor="0.94" vaporized=""/>
    <tripinfo id="flow_route_88_duration_20250327_2210.14" depart="46.00" departLane="430416184_0" departPos="164.01" departSpeed="0.00" departDelay="1.80" arrival="116.00" arrivalLane="186407684#0_1" arrivalPos="27.66" arrivalSpeed="10.13" duration="70.00" routeLength="181.28" waitingTime="24.00" waitingCount="1" stopTime="0.00" timeLoss="58.32" rerouteNo="0" devices="tripinfo_flow_route_88_duration_20250327_2210.14" vType="car" speedFactor="1.01" vaporized=""/>
    <tripinfo id="flow_route_86_duration_20250327_2210.2" depart="25.00" departLane="430416184_0" departPos="64.53" departSpeed="0.00" departDelay="1.00" arrival="119.00" arrivalLane="186407685_1" arrivalPos="72.84" arrivalSpeed="14.11" duration="94.00" routeLength="332.19" waitingTime="25.00" waitingCount="2" stopTime="0.00" timeLoss="73.21" rerouteNo="0" devices="tripinfo_flow_route_86_duration_20250327_2210.2" vType="car" speedFactor="1.16" vaporized=""/>
    <tripinfo id="flow_route_88_duration_20250327_2210.17" depart="54.00" departLane="430416184_0" departPos="177.89" departSpeed="0.00" departDelay="0.33" arrival="121.00" arrivalLane="186407684#0_1" arrivalPos="37.30" arrivalSpeed="12.07" duration="67.00" routeLength="177.04" waitingTime="24.00" waitingCount="2" stopTime="0.00" timeLoss="55.50" rerouteNo="0" devices="tripinfo_flow_route_88_duration_20250327_2210.17" vType="car" speedFactor="1.18" vaporized=""/>
    <tripinfo id="flow_route_88_duration_20250327_2210.12" depart="40.00" departLane="430416184_0" departPos="8.05" departSpeed="0.00" departDelay="2.12" arrival="126.00" arrivalLane="186407684#0_1" arrivalPos="51.12" arrivalSpeed="13.08" duration="86.00" routeLength="360.70" waitingTime="22.00" waitingCount="1" stopTime="0.00" timeLoss="62.68" rerouteNo="0" devices="tripinfo_flow_route_88_duration_20250327_2210.12" vType="car" speedFactor="0.95" vaporized=""/>
    <tripinfo id="flow_route_88_duration_20250327_2210.13" depart="43.00" departLane="430416184_0" departPos="51.76" departSpeed="0.00" departDelay="1.96" arrival="126.00" arrivalLane="186407684#0_1" arrivalPos="81.79" arrivalSpeed="15.26" duration="83.00" routeLength="347.67" waitingTime="23.00" waitingCount="1" stopTime="0.00" timeLoss="61.04" rerouteNo="0" devices="tripinfo_flow_route_88_duration_20250327_2210.13" vType="car" speedFactor="1.18" vaporized=""/>
    <tripinfo id="flow_route_88_duration_20250327_2210.15" depart="48.00" departLane="430416184_0" departPos="23.14" departSpeed="0.00" departDelay="0.65" arrival="127.00" arrivalLane="186407684#0_1" arrivalPos="15.92" arrivalSpeed="12.18" duration="79.00" routeLength="310.42" waitingTime="20.00" waitingCount="1" stopTime="0.00" timeLoss="59.06" rerouteNo="0" devices="tripinfo_flow_route_88_duration_20250327_2210.15" vType="car" speedFactor="0.99" vaporized=""/>
    <tripinfo id="flow_route_86_duration_20250327_2210.3" depart="36.00" departLane="430416184_0" departPos="89.01" departSpeed="0.00" departDelay="0.00" arrival="129.00" arrivalLane="186407685_1" arrivalPos="169.98" arrivalSpeed="16.43" duration="93.00" routeLength="404.85" waitingTime="24.00" waitingCount="1" stopTime="0.00" timeLoss="67.69" rerouteNo="0" devices="tripinfo_flow_route_86_duration_20250327_2210.3" vType="car" speedFactor="0.87" vaporized=""/>
    <tripinfo id="flow_route_88_duration_20250327_2210.16" depart="52.00" departLane="430416184_0" departPos="83.88" departSpeed="0.00" departDelay="1.49" arrival="129.00" arrivalLane="186407684#0_1" arrivalPos="63.62" arrivalSpeed="14.15" duration="77.00" routeLength="297.37" waitingTime="21.00" waitingCount="2" stopTime="0.00" timeLoss="57.77" rerouteNo="0" devices="tripinfo_flow_route_88_duration_20250327_2210.16" vType="car" speedFactor="1.02" vaporized=""/>
    <tripinfo id="flow_route_86_duration_20250327_2210.4" depart="48.00" departLane="430416184_0" departPos="13.55" departSpeed="0.00" departDelay="0.00" arrival="130.00" arrivalLane="186407685_1" arrivalPos="36.68" arrivalSpeed="14.55" duration="82.00" routeLength="347.02" waitingTime="21.00" waitingCount="2" stopTime="0.00" timeLoss="60.91" rerouteNo="0" devices="tripinfo_flow_route_86_duration_20250327_2210.4" vType="car" speedFactor="1.17" vaporized=""/>
</tripinfos>
