<?xml version="1.0" encoding="UTF-8"?>

<!-- generated on 2025-05-06 21:09:07 by Eclipse SUMO sumo Version 1.20.0
<configuration xmlns:xsi="http://www.w3.org/2001/XMLSchema-instance" xsi:noNamespaceSchemaLocation="http://sumo.dlr.de/xsd/sumoConfiguration.xsd">

    <input>
        <net-file value="osm.net.xml"/>
        <route-files value="xml/route_static_cluster_11648561419_11648561420_2271142975_4854142869_8.rou.xml"/>
    </input>

    <output>
        <tripinfo-output value="xml/tripinfo_static_cluster_11648561419_11648561420_2271142975_4854142869_8.xml"/>
    </output>

    <traci_server>
        <remote-port value="44429"/>
    </traci_server>

</configuration>
-->

<tripinfos xmlns:xsi="http://www.w3.org/2001/XMLSchema-instance" xsi:noNamespaceSchemaLocation="http://sumo.dlr.de/xsd/tripinfo_file.xsd">
    <tripinfo id="flow_route_97_duration_20250327_2240.0" depart="0.00" departLane="1328664748#0_0" departPos="149.74" departSpeed="0.00" departDelay="0.00" arrival="27.00" arrivalLane="135474719#0_0" arrivalPos="137.46" arrivalSpeed="15.89" duration="27.00" routeLength="222.45" waitingTime="0.00" waitingCount="0" stopTime="0.00" timeLoss="12.53" rerouteNo="0" devices="tripinfo_flow_route_97_duration_20250327_2240.0" vType="car" speedFactor="1.06" vaporized=""/>
    <tripinfo id="flow_route_98_duration_20250327_2240.0" depart="0.00" departLane="1328664748#0_0" departPos="103.72" departSpeed="0.00" departDelay="0.00" arrival="27.00" arrivalLane="177211987#1_0" arrivalPos="104.29" arrivalSpeed="15.20" duration="27.00" routeLength="249.04" waitingTime="0.00" waitingCount="0" stopTime="0.00" timeLoss="10.90" rerouteNo="0" devices="tripinfo_flow_route_98_duration_20250327_2240.0" vType="car" speedFactor="0.94" vaporized=""/>
    <tripinfo id="flow_route_99_duration_20250327_2240.0" depart="1.00" departLane="1328664748#0_0" departPos="68.32" departSpeed="0.00" departDelay="1.00" arrival="27.00" arrivalLane="1253188486#8_2" arrivalPos="11.16" arrivalSpeed="9.79" duration="26.00" routeLength="200.71" waitingTime="0.00" waitingCount="0" stopTime="0.00" timeLoss="13.32" rerouteNo="0" devices="tripinfo_flow_route_99_duration_20250327_2240.0" vType="car" speedFactor="1.01" vaporized=""/>
    <tripinfo id="flow_route_119_duration_20250327_2240.0" depart="0.00" departLane="134194079#0_0" departPos="151.34" departSpeed="0.00" departDelay="0.00" arrival="29.00" arrivalLane="1253188486#8_0" arrivalPos="1.48" arrivalSpeed="8.72" duration="29.00" routeLength="161.10" waitingTime="0.00" waitingCount="0" stopTime="0.00" timeLoss="18.35" rerouteNo="0" devices="tripinfo_flow_route_119_duration_20250327_2240.0" vType="car" speedFactor="1.09" vaporized=""/>
    <tripinfo id="flow_route_119_duration_20250327_2240.2" depart="11.00" departLane="134194079#0_0" departPos="225.54" departSpeed="0.00" departDelay="0.09" arrival="34.00" arrivalLane="1253188486#8_0" arrivalPos="74.03" arrivalSpeed="13.10" duration="23.00" routeLength="159.44" waitingTime="0.00" waitingCount="0" stopTime="0.00" timeLoss="11.72" rerouteNo="0" devices="tripinfo_flow_route_119_duration_20250327_2240.2" vType="car" speedFactor="0.93" vaporized=""/>
    <tripinfo id="flow_route_119_duration_20250327_2240.1" depart="6.00" departLane="134194079#0_0" departPos="261.87" departSpeed="0.00" departDelay="0.55" arrival="35.00" arrivalLane="1253188486#8_0" arrivalPos="230.38" arrivalSpeed="16.26" duration="29.00" routeLength="279.47" waitingTime="0.00" waitingCount="0" stopTime="0.00" timeLoss="10.43" rerouteNo="0" devices="tripinfo_flow_route_119_duration_20250327_2240.1" vType="car" speedFactor="1.05" vaporized=""/>
    <tripinfo id="flow_route_118_duration_20250327_2240.0" depart="0.00" departLane="134194079#0_0" departPos="13.63" departSpeed="0.00" departDelay="0.00" arrival="43.00" arrivalLane="1328664744#0_0" arrivalPos="165.30" arrivalSpeed="14.22" duration="43.00" routeLength="472.83" waitingTime="0.00" waitingCount="0" stopTime="0.00" timeLoss="9.72" rerouteNo="0" devices="tripinfo_flow_route_118_duration_20250327_2240.0" vType="car" speedFactor="0.86" vaporized=""/>
    <tripinfo id="flow_route_118_duration_20250327_2240.1" depart="8.00" departLane="134194079#0_0" departPos="9.56" departSpeed="0.00" departDelay="0.50" arrival="45.00" arrivalLane="1328664744#0_1" arrivalPos="120.76" arrivalSpeed="16.22" duration="37.00" routeLength="432.34" waitingTime="0.00" waitingCount="0" stopTime="0.00" timeLoss="10.65" rerouteNo="0" devices="tripinfo_flow_route_118_duration_20250327_2240.1" vType="car" speedFactor="0.99" vaporized=""/>
    <tripinfo id="flow_route_110_duration_20250327_2240.0" depart="0.00" departLane="1254519225#0.109_0" departPos="3.76" departSpeed="0.00" departDelay="0.00" arrival="63.00" arrivalLane="177211987#1_2" arrivalPos="6.38" arrivalSpeed="7.34" duration="63.00" routeLength="190.24" waitingTime="31.00" waitingCount="1" stopTime="0.00" timeLoss="48.44" rerouteNo="0" devices="tripinfo_flow_route_110_duration_20250327_2240.0" vType="car" speedFactor="0.83" vaporized=""/>
    <tripinfo id="flow_route_110_duration_20250327_2240.1" depart="30.00" departLane="1254519225#0.109_0" departPos="61.91" departSpeed="0.00" departDelay="0.00" arrival="69.00" arrivalLane="177211987#1_2" arrivalPos="40.81" arrivalSpeed="10.34" duration="39.00" routeLength="166.53" waitingTime="6.00" waitingCount="2" stopTime="0.00" timeLoss="27.13" rerouteNo="0" devices="tripinfo_flow_route_110_duration_20250327_2240.1" vType="car" speedFactor="0.93" vaporized=""/>
    <tripinfo id="flow_route_108_duration_20250327_2240.0" depart="0.00" departLane="1254519225#0.109_0" departPos="35.33" departSpeed="0.00" departDelay="0.00" arrival="71.00" arrivalLane="135474719#0_0" arrivalPos="75.82" arrivalSpeed="13.65" duration="71.00" routeLength="240.24" waitingTime="33.00" waitingCount="1" stopTime="0.00" timeLoss="55.86" rerouteNo="0" devices="tripinfo_flow_route_108_duration_20250327_2240.0" vType="car" speedFactor="1.08" vaporized=""/>
    <tripinfo id="flow_route_109_duration_20250327_2240.1" depart="8.00" departLane="1254519225#0.109_0" departPos="14.77" departSpeed="0.00" departDelay="0.50" arrival="73.00" arrivalLane="1328664744#0_0" arrivalPos="87.98" arrivalSpeed="13.78" duration="65.00" routeLength="247.44" waitingTime="27.00" waitingCount="1" stopTime="0.00" timeLoss="49.15" rerouteNo="0" devices="tripinfo_flow_route_109_duration_20250327_2240.1" vType="car" speedFactor="1.12" vaporized=""/>
    <tripinfo id="flow_route_109_duration_20250327_2240.4" depart="30.00" departLane="1254519225#0.109_0" departPos="11.17" departSpeed="0.00" departDelay="0.00" arrival="73.00" arrivalLane="1328664744#0_0" arrivalPos="6.18" arrivalSpeed="9.71" duration="43.00" routeLength="169.24" waitingTime="11.00" waitingCount="1" stopTime="0.00" timeLoss="31.77" rerouteNo="0" devices="tripinfo_flow_route_109_duration_20250327_2240.4" vType="car" speedFactor="1.13" vaporized=""/>
    <tripinfo id="flow_route_109_duration_20250327_2240.0" depart="0.00" departLane="1254519225#0.109_0" departPos="16.50" departSpeed="0.00" departDelay="0.00" arrival="74.00" arrivalLane="1328664744#0_0" arrivalPos="130.88" arrivalSpeed="15.43" duration="74.00" routeLength="288.61" waitingTime="32.00" waitingCount="1" stopTime="0.00" timeLoss="55.73" rerouteNo="0" devices="tripinfo_flow_route_109_duration_20250327_2240.0" vType="car" speedFactor="1.03" vaporized=""/>
    <tripinfo id="flow_route_109_duration_20250327_2240.5" depart="38.00" departLane="1254519225#0.109_0" departPos="21.95" departSpeed="0.00" departDelay="0.50" arrival="76.00" arrivalLane="1328664744#0_0" arrivalPos="17.75" arrivalSpeed="10.14" duration="38.00" routeLength="170.03" waitingTime="5.00" waitingCount="1" stopTime="0.00" timeLoss="26.50" rerouteNo="0" devices="tripinfo_flow_route_109_duration_20250327_2240.5" vType="car" speedFactor="0.99" vaporized=""/>
    <tripinfo id="flow_route_109_duration_20250327_2240.2" depart="15.00" departLane="1254519225#0.109_0" departPos="8.07" departSpeed="0.00" departDelay="0.00" arrival="79.00" arrivalLane="1328664744#0_0" arrivalPos="151.98" arrivalSpeed="15.54" duration="64.00" routeLength="318.14" waitingTime="22.00" waitingCount="1" stopTime="0.00" timeLoss="42.56" rerouteNo="0" devices="tripinfo_flow_route_109_duration_20250327_2240.2" vType="car" speedFactor="0.94" vaporized=""/>
    <tripinfo id="flow_route_109_duration_20250327_2240.3" depart="23.00" departLane="1254519225#0.109_0" departPos="58.34" departSpeed="0.00" departDelay="0.50" arrival="83.00" arrivalLane="1328664744#0_0" arrivalPos="158.75" arrivalSpeed="14.74" duration="60.00" routeLength="274.64" waitingTime="17.00" waitingCount="2" stopTime="0.00" timeLoss="39.74" rerouteNo="0" devices="tripinfo_flow_route_109_duration_20250327_2240.3" vType="car" speedFactor="0.89" vaporized=""/>
    <tripinfo id="flow_route_109_duration_20250327_2240.6" depart="45.00" departLane="1254519225#0.109_0" departPos="1.49" departSpeed="0.00" departDelay="0.00" arrival="84.00" arrivalLane="1328664744#0_0" arrivalPos="81.01" arrivalSpeed="14.33" duration="39.00" routeLength="253.76" waitingTime="0.00" waitingCount="0" stopTime="0.00" timeLoss="21.84" rerouteNo="0" devices="tripinfo_flow_route_109_duration_20250327_2240.6" vType="car" speedFactor="1.03" vaporized=""/>
    <tripinfo id="flow_route_109_duration_20250327_2240.7" depart="53.00" departLane="1254519225#0.109_0" departPos="35.79" departSpeed="0.00" departDelay="0.50" arrival="86.00" arrivalLane="1328664744#0_0" arrivalPos="101.11" arrivalSpeed="15.52" duration="33.00" routeLength="239.55" waitingTime="1.00" waitingCount="1" stopTime="0.00" timeLoss="17.84" rerouteNo="0" devices="tripinfo_flow_route_109_duration_20250327_2240.7" vType="car" speedFactor="1.04" vaporized=""/>
    <tripinfo id="flow_route_114_duration_20250327_2240.0" depart="0.00" departLane="1253188486#4_0" departPos="49.31" departSpeed="0.00" departDelay="0.00" arrival="94.00" arrivalLane="177211987#1_0" arrivalPos="36.23" arrivalSpeed="9.07" duration="94.00" routeLength="153.37" waitingTime="63.00" waitingCount="1" stopTime="0.00" timeLoss="83.42" rerouteNo="0" devices="tripinfo_flow_route_114_duration_20250327_2240.0" vType="car" speedFactor="0.89" vaporized=""/>
    <tripinfo id="flow_route_115_duration_20250327_2240.1" depart="20.00" departLane="1253188486#4_0" departPos="124.32" departSpeed="0.00" departDelay="0.00" arrival="96.00" arrivalLane="1328664744#0_2" arrivalPos="53.55" arrivalSpeed="11.72" duration="76.00" routeLength="114.63" waitingTime="52.00" waitingCount="1" stopTime="0.00" timeLoss="68.34" rerouteNo="0" devices="tripinfo_flow_route_115_duration_20250327_2240.1" vType="car" speedFactor="1.01" vaporized=""/>
    <tripinfo id="flow_route_113_duration_20250327_2240.3" depart="18.00" departLane="1253188486#4_0" departPos="87.55" departSpeed="0.00" departDelay="0.00" arrival="97.00" arrivalLane="1253188486#8_1" arrivalPos="41.21" arrivalSpeed="12.69" duration="79.00" routeLength="152.29" waitingTime="51.00" waitingCount="1" stopTime="0.00" timeLoss="69.17" rerouteNo="0" devices="tripinfo_flow_route_113_duration_20250327_2240.3" vType="car" speedFactor="1.02" vaporized=""/>
    <tripinfo id="flow_route_115_duration_20250327_2240.0" depart="0.00" departLane="1253188486#4_0" departPos="104.70" departSpeed="0.00" departDelay="0.00" arrival="99.00" arrivalLane="1328664744#0_2" arrivalPos="120.97" arrivalSpeed="15.35" duration="99.00" routeLength="201.67" waitingTime="68.00" waitingCount="1" stopTime="0.00" timeLoss="85.13" rerouteNo="0" devices="tripinfo_flow_route_115_duration_20250327_2240.0" vType="car" speedFactor="0.94" vaporized=""/>
    <tripinfo id="flow_route_113_duration_20250327_2240.2" depart="13.00" departLane="1253188486#4_0" departPos="4.57" departSpeed="0.00" departDelay="1.00" arrival="99.00" arrivalLane="1253188486#8_1" arrivalPos="39.04" arrivalSpeed="12.66" duration="86.00" routeLength="233.10" waitingTime="49.00" waitingCount="1" stopTime="0.00" timeLoss="71.38" rerouteNo="0" devices="tripinfo_flow_route_113_duration_20250327_2240.2" vType="car" speedFactor="0.88" vaporized=""/>
    <tripinfo id="flow_route_113_duration_20250327_2240.1" depart="6.00" departLane="1253188486#4_0" departPos="126.25" departSpeed="0.00" departDelay="0.00" arrival="102.00" arrivalLane="1253188486#8_1" arrivalPos="155.42" arrivalSpeed="16.17" duration="96.00" routeLength="227.80" waitingTime="65.00" waitingCount="1" stopTime="0.00" timeLoss="82.01" rerouteNo="0" devices="tripinfo_flow_route_113_duration_20250327_2240.1" vType="car" speedFactor="1.03" vaporized=""/>
    <tripinfo id="flow_route_115_duration_20250327_2240.2" depart="40.00" departLane="1253188486#4_0" departPos="59.69" departSpeed="0.00" departDelay="0.00" arrival="103.00" arrivalLane="1328664744#0_2" arrivalPos="93.89" arrivalSpeed="15.05" duration="63.00" routeLength="219.60" waitingTime="27.00" waitingCount="1" stopTime="0.00" timeLoss="48.95" rerouteNo="0" devices="tripinfo_flow_route_115_duration_20250327_2240.2" vType="car" speedFactor="1.18" vaporized=""/>
    <tripinfo id="flow_route_113_duration_20250327_2240.6" depart="36.00" departLane="1253188486#4_0" departPos="7.17" departSpeed="0.00" departDelay="0.00" arrival="104.00" arrivalLane="1253188486#8_0" arrivalPos="44.32" arrivalSpeed="13.12" duration="68.00" routeLength="235.78" waitingTime="29.00" waitingCount="1" stopTime="0.00" timeLoss="53.33" rerouteNo="0" devices="tripinfo_flow_route_113_duration_20250327_2240.6" vType="car" speedFactor="1.17" vaporized=""/>
    <tripinfo id="flow_route_113_duration_20250327_2240.0" depart="0.00" departLane="1253188486#4_0" departPos="134.10" departSpeed="0.00" departDelay="0.00" arrival="105.00" arrivalLane="1253188486#8_0" arrivalPos="182.35" arrivalSpeed="16.17" duration="105.00" routeLength="246.88" waitingTime="72.00" waitingCount="1" stopTime="0.00" timeLoss="89.63" rerouteNo="0" devices="tripinfo_flow_route_113_duration_20250327_2240.0" vType="car" speedFactor="1.05" vaporized=""/>
    <tripinfo id="flow_route_113_duration_20250327_2240.5" depart="30.00" departLane="1253188486#4_0" departPos="48.07" departSpeed="0.00" departDelay="0.00" arrival="105.00" arrivalLane="1253188486#8_2" arrivalPos="134.14" arrivalSpeed="16.29" duration="75.00" routeLength="284.70" waitingTime="35.00" waitingCount="1" stopTime="0.00" timeLoss="57.54" rerouteNo="0" devices="tripinfo_flow_route_113_duration_20250327_2240.5" vType="car" speedFactor="1.18" vaporized=""/>
    <tripinfo id="flow_route_113_duration_20250327_2240.9" depart="54.00" departLane="1253188486#4_0" departPos="52.51" departSpeed="0.00" departDelay="0.00" arrival="105.00" arrivalLane="1253188486#8_1" arrivalPos="72.70" arrivalSpeed="14.58" duration="51.00" routeLength="218.81" waitingTime="15.00" waitingCount="1" stopTime="0.00" timeLoss="37.60" rerouteNo="0" devices="tripinfo_flow_route_113_duration_20250327_2240.9" vType="car" speedFactor="1.00" vaporized=""/>
    <tripinfo id="flow_route_113_duration_20250327_2240.7" depart="42.00" departLane="1253188486#4_0" departPos="126.44" departSpeed="0.00" departDelay="0.00" arrival="108.00" arrivalLane="1253188486#8_0" arrivalPos="125.82" arrivalSpeed="16.32" duration="66.00" routeLength="198.01" waitingTime="37.00" waitingCount="1" stopTime="0.00" timeLoss="53.44" rerouteNo="0" devices="tripinfo_flow_route_113_duration_20250327_2240.7" vType="car" speedFactor="1.10" vaporized=""/>
    <tripinfo id="flow_route_113_duration_20250327_2240.4" depart="24.00" departLane="1253188486#4_0" departPos="75.44" departSpeed="0.00" departDelay="0.00" arrival="112.00" arrivalLane="1253188486#8_0" arrivalPos="235.51" arrivalSpeed="16.55" duration="88.00" routeLength="358.70" waitingTime="44.00" waitingCount="1" stopTime="0.00" timeLoss="66.32" rerouteNo="0" devices="tripinfo_flow_route_113_duration_20250327_2240.4" vType="car" speedFactor="0.87" vaporized=""/>
    <tripinfo id="flow_route_113_duration_20250327_2240.8" depart="48.00" departLane="1253188486#4_0" departPos="95.76" departSpeed="0.00" departDelay="0.00" arrival="112.00" arrivalLane="1253188486#8_1" arrivalPos="214.80" arrivalSpeed="16.45" duration="64.00" routeLength="317.67" waitingTime="25.00" waitingCount="1" stopTime="0.00" timeLoss="44.36" rerouteNo="0" devices="tripinfo_flow_route_113_duration_20250327_2240.8" vType="car" speedFactor="1.09" vaporized=""/>
    <tripinfo id="flow_route_97_duration_20250327_2240.1" depart="30.00" departLane="1328664748#0_0" departPos="14.90" departSpeed="0.00" departDelay="0.00" arrival="131.00" arrivalLane="135474719#0_0" arrivalPos="23.42" arrivalSpeed="8.08" duration="101.00" routeLength="243.24" waitingTime="66.00" waitingCount="1" stopTime="0.00" timeLoss="84.16" rerouteNo="0" devices="tripinfo_flow_route_97_duration_20250327_2240.1" vType="car" speedFactor="0.95" vaporized=""/>
    <tripinfo id="flow_route_119_duration_20250327_2240.4" depart="25.00" departLane="134194079#0_0" departPos="171.13" departSpeed="0.00" departDelay="3.18" arrival="134.00" arrivalLane="1253188486#8_0" arrivalPos="21.84" arrivalSpeed="7.90" duration="109.00" routeLength="161.66" waitingTime="73.00" waitingCount="1" stopTime="0.00" timeLoss="98.07" rerouteNo="0" devices="tripinfo_flow_route_119_duration_20250327_2240.4" vType="car" speedFactor="0.97" vaporized=""/>
    <tripinfo id="flow_route_118_duration_20250327_2240.2" depart="17.00" departLane="134194079#0_0" departPos="77.91" departSpeed="0.00" departDelay="2.00" arrival="137.00" arrivalLane="1328664744#0_0" arrivalPos="73.50" arrivalSpeed="12.35" duration="120.00" routeLength="316.74" waitingTime="77.00" waitingCount="1" stopTime="0.00" timeLoss="99.20" rerouteNo="0" devices="tripinfo_flow_route_118_duration_20250327_2240.2" vType="car" speedFactor="0.94" vaporized=""/>
    <tripinfo id="flow_route_118_duration_20250327_2240.3" depart="25.00" departLane="134194079#0_0" departPos="49.68" departSpeed="0.00" departDelay="2.50" arrival="142.00" arrivalLane="1328664744#0_2" arrivalPos="132.27" arrivalSpeed="13.32" duration="117.00" routeLength="403.74" waitingTime="67.00" waitingCount="1" stopTime="0.00" timeLoss="87.31" rerouteNo="0" devices="tripinfo_flow_route_118_duration_20250327_2240.3" vType="car" speedFactor="0.83" vaporized=""/>
    <tripinfo id="flow_route_119_duration_20250327_2240.7" depart="40.00" departLane="134194079#0_0" departPos="181.47" departSpeed="0.00" departDelay="1.82" arrival="142.00" arrivalLane="1253188486#8_0" arrivalPos="52.10" arrivalSpeed="11.09" duration="102.00" routeLength="181.58" waitingTime="69.00" waitingCount="1" stopTime="0.00" timeLoss="89.74" rerouteNo="0" devices="tripinfo_flow_route_119_duration_20250327_2240.7" vType="car" speedFactor="0.97" vaporized=""/>
    <tripinfo id="flow_route_119_duration_20250327_2240.6" depart="34.00" departLane="134194079#0_0" departPos="61.12" departSpeed="0.00" departDelay="1.28" arrival="146.00" arrivalLane="1253188486#8_0" arrivalPos="21.10" arrivalSpeed="10.25" duration="112.00" routeLength="270.93" waitingTime="60.00" waitingCount="1" stopTime="0.00" timeLoss="94.18" rerouteNo="0" devices="tripinfo_flow_route_119_duration_20250327_2240.6" vType="car" speedFactor="1.01" vaporized=""/>
    <tripinfo id="flow_route_118_duration_20250327_2240.5" depart="38.00" departLane="134194079#0_0" departPos="85.57" departSpeed="0.00" departDelay="0.50" arrival="146.00" arrivalLane="1328664744#0_2" arrivalPos="160.15" arrivalSpeed="16.54" duration="108.00" routeLength="395.73" waitingTime="58.00" waitingCount="1" stopTime="0.00" timeLoss="83.19" rerouteNo="0" devices="tripinfo_flow_route_118_duration_20250327_2240.5" vType="car" speedFactor="1.02" vaporized=""/>
    <tripinfo id="flow_route_118_duration_20250327_2240.4" depart="30.00" departLane="134194079#0_0" departPos="100.02" departSpeed="0.00" departDelay="0.00" arrival="147.00" arrivalLane="1328664744#0_1" arrivalPos="205.90" arrivalSpeed="16.25" duration="117.00" routeLength="427.03" waitingTime="63.00" waitingCount="1" stopTime="0.00" timeLoss="91.07" rerouteNo="0" devices="tripinfo_flow_route_118_duration_20250327_2240.4" vType="car" speedFactor="1.15" vaporized=""/>
    <tripinfo id="flow_route_119_duration_20250327_2240.5" depart="29.00" departLane="134194079#0_0" departPos="189.30" departSpeed="0.00" departDelay="1.73" arrival="148.00" arrivalLane="1253188486#8_0" arrivalPos="234.28" arrivalSpeed="16.53" duration="119.00" routeLength="355.93" waitingTime="74.00" waitingCount="1" stopTime="0.00" timeLoss="95.65" rerouteNo="0" devices="tripinfo_flow_route_119_duration_20250327_2240.5" vType="car" speedFactor="0.92" vaporized=""/>
    <tripinfo id="flow_route_118_duration_20250327_2240.6" depart="46.00" departLane="134194079#0_0" departPos="30.89" departSpeed="0.00" departDelay="1.00" arrival="150.00" arrivalLane="1328664744#0_1" arrivalPos="216.71" arrivalSpeed="15.63" duration="104.00" routeLength="506.96" waitingTime="47.00" waitingCount="1" stopTime="0.00" timeLoss="71.70" rerouteNo="0" devices="tripinfo_flow_route_118_duration_20250327_2240.6" vType="car" speedFactor="0.96" vaporized=""/>
    <tripinfo id="flow_route_118_duration_20250327_2240.7" depart="54.00" departLane="134194079#0_0" departPos="121.28" departSpeed="0.00" departDelay="1.50" arrival="150.00" arrivalLane="1328664744#0_2" arrivalPos="193.86" arrivalSpeed="16.30" duration="96.00" routeLength="393.73" waitingTime="46.00" waitingCount="1" stopTime="0.00" timeLoss="71.48" rerouteNo="0" devices="tripinfo_flow_route_118_duration_20250327_2240.7" vType="car" speedFactor="1.09" vaporized=""/>
    <tripinfo id="flow_route_119_duration_20250327_2240.3" depart="17.00" departLane="134194079#0_0" departPos="65.83" departSpeed="0.00" departDelay="0.64" arrival="152.00" arrivalLane="1253188486#8_0" arrivalPos="236.64" arrivalSpeed="16.11" duration="135.00" routeLength="481.76" waitingTime="73.00" waitingCount="1" stopTime="0.00" timeLoss="104.38" rerouteNo="0" devices="tripinfo_flow_route_119_duration_20250327_2240.3" vType="car" speedFactor="1.16" vaporized=""/>
    <tripinfo id="flow_route_119_duration_20250327_2240.8" depart="44.00" departLane="134194079#0_0" departPos="123.08" departSpeed="0.00" departDelay="0.37" arrival="153.00" arrivalLane="1253188486#8_0" arrivalPos="143.53" arrivalSpeed="16.08" duration="109.00" routeLength="331.40" waitingTime="61.00" waitingCount="1" stopTime="0.00" timeLoss="86.63" rerouteNo="0" devices="tripinfo_flow_route_119_duration_20250327_2240.8" vType="car" speedFactor="0.90" vaporized=""/>
    <tripinfo id="flow_route_119_duration_20250327_2240.9" depart="52.00" departLane="134194079#0_0" departPos="209.69" departSpeed="0.00" departDelay="2.91" arrival="156.00" arrivalLane="1253188486#8_0" arrivalPos="226.92" arrivalSpeed="16.38" duration="104.00" routeLength="328.18" waitingTime="61.00" waitingCount="1" stopTime="0.00" timeLoss="82.96" rerouteNo="0" devices="tripinfo_flow_route_119_duration_20250327_2240.9" vType="car" speedFactor="1.04" vaporized=""/>
    <tripinfo id="flow_route_119_duration_20250327_2240.10" depart="55.00" departLane="134194079#0_0" departPos="29.95" departSpeed="0.00" departDelay="0.46" arrival="160.00" arrivalLane="1253188486#8_0" arrivalPos="171.61" arrivalSpeed="16.20" duration="105.00" routeLength="452.61" waitingTime="47.00" waitingCount="1" stopTime="0.00" timeLoss="74.01" rerouteNo="0" devices="tripinfo_flow_route_119_duration_20250327_2240.10" vType="car" speedFactor="0.90" vaporized=""/>
</tripinfos>
