<?xml version="1.0" encoding="UTF-8"?>

<!-- generated on 2025-05-06 16:33:52 by Eclipse SUMO sumo Version 1.20.0
<configuration xmlns:xsi="http://www.w3.org/2001/XMLSchema-instance" xsi:noNamespaceSchemaLocation="http://sumo.dlr.de/xsd/sumoConfiguration.xsd">

    <input>
        <net-file value="osm.net.xml"/>
        <route-files value="xml/routes_ddpg_cluster_3839031475_3839031476_4110471700_4234582615.rou.xml"/>
    </input>

    <output>
        <tripinfo-output value="xml/tripinfo_42377.xml"/>
    </output>

    <traci_server>
        <remote-port value="57411"/>
    </traci_server>

</configuration>
-->

<tripinfos xmlns:xsi="http://www.w3.org/2001/XMLSchema-instance" xsi:noNamespaceSchemaLocation="http://sumo.dlr.de/xsd/tripinfo_file.xsd">
    <tripinfo id="flow_route_90_duration_20250327_1940.1" depart="4.00" departLane="380585338#0_0" departPos="166.11" departSpeed="0.00" departDelay="0.47" arrival="13.00" arrivalLane="136617981_0" arrivalPos="9.19" arrivalSpeed="6.28" duration="9.00" routeLength="30.15" waitingTime="0.00" waitingCount="0" stopTime="0.00" timeLoss="5.63" rerouteNo="0" devices="tripinfo_flow_route_90_duration_20250327_1940.1" vType="car" speedFactor="0.88" vaporized=""/>
    <tripinfo id="flow_route_85_duration_20250327_1940.0" depart="0.00" departLane="1091883842_0" departPos="162.60" departSpeed="0.00" departDelay="0.00" arrival="15.00" arrivalLane="133000063_0" arrivalPos="42.63" arrivalSpeed="9.78" duration="15.00" routeLength="74.77" waitingTime="0.00" waitingCount="0" stopTime="0.00" timeLoss="8.84" rerouteNo="0" devices="tripinfo_flow_route_85_duration_20250327_1940.0" vType="car" speedFactor="0.89" vaporized=""/>
    <tripinfo id="flow_route_80_duration_20250327_1940.1" depart="5.00" departLane="380344611#0_0" departPos="273.52" departSpeed="0.00" departDelay="0.39" arrival="24.00" arrivalLane="380593307#0_0" arrivalPos="118.94" arrivalSpeed="13.97" duration="19.00" routeLength="138.04" waitingTime="0.00" waitingCount="0" stopTime="0.00" timeLoss="9.15" rerouteNo="0" devices="tripinfo_flow_route_80_duration_20250327_1940.1" vType="car" speedFactor="0.94" vaporized=""/>
    <tripinfo id="flow_route_81_duration_20250327_1940.5" depart="9.00" departLane="380344611#0_0" departPos="263.18" departSpeed="0.00" departDelay="0.67" arrival="25.00" arrivalLane="133000063_2" arrivalPos="31.58" arrivalSpeed="10.51" duration="16.00" routeLength="84.27" waitingTime="0.00" waitingCount="0" stopTime="0.00" timeLoss="10.36" rerouteNo="0" devices="tripinfo_flow_route_81_duration_20250327_1940.5" vType="car" speedFactor="1.18" vaporized=""/>
    <tripinfo id="flow_route_79_duration_20250327_1940.0" depart="0.00" departLane="380344611#0_0" departPos="128.21" departSpeed="0.00" departDelay="0.00" arrival="27.00" arrivalLane="423956929_2" arrivalPos="91.18" arrivalSpeed="16.19" duration="27.00" routeLength="278.79" waitingTime="0.00" waitingCount="0" stopTime="0.00" timeLoss="10.19" rerouteNo="0" devices="tripinfo_flow_route_79_duration_20250327_1940.0" vType="car" speedFactor="1.08" vaporized=""/>
    <tripinfo id="flow_route_79_duration_20250327_1940.1" depart="5.00" departLane="380344611#0_0" departPos="116.65" departSpeed="0.00" departDelay="0.72" arrival="30.00" arrivalLane="423956929_1" arrivalPos="5.53" arrivalSpeed="15.37" duration="25.00" routeLength="204.71" waitingTime="0.00" waitingCount="0" stopTime="0.00" timeLoss="11.36" rerouteNo="0" devices="tripinfo_flow_route_79_duration_20250327_1940.1" vType="car" speedFactor="0.94" vaporized=""/>
    <tripinfo id="flow_route_80_duration_20250327_1940.0" depart="0.00" departLane="380344611#0_0" departPos="160.58" departSpeed="0.00" departDelay="0.00" arrival="31.00" arrivalLane="380593307#0_0" arrivalPos="102.42" arrivalSpeed="13.92" duration="31.00" routeLength="234.46" waitingTime="0.00" waitingCount="0" stopTime="0.00" timeLoss="16.04" rerouteNo="0" devices="tripinfo_flow_route_80_duration_20250327_1940.0" vType="car" speedFactor="1.03" vaporized=""/>
    <tripinfo id="flow_route_81_duration_20250327_1940.2" depart="4.00" departLane="380344611#0_0" departPos="216.79" departSpeed="0.00" departDelay="0.67" arrival="32.00" arrivalLane="133000063_2" arrivalPos="93.75" arrivalSpeed="14.29" duration="28.00" routeLength="192.83" waitingTime="0.00" waitingCount="0" stopTime="0.00" timeLoss="15.12" rerouteNo="0" devices="tripinfo_flow_route_81_duration_20250327_1940.2" vType="car" speedFactor="0.99" vaporized=""/>
    <tripinfo id="flow_route_90_duration_20250327_1940.0" depart="0.00" departLane="380585338#0_0" departPos="118.71" departSpeed="0.00" departDelay="0.00" arrival="39.00" arrivalLane="136617981_0" arrivalPos="211.18" arrivalSpeed="13.80" duration="39.00" routeLength="279.54" waitingTime="0.00" waitingCount="0" stopTime="0.00" timeLoss="18.25" rerouteNo="0" devices="tripinfo_flow_route_90_duration_20250327_1940.0" vType="car" speedFactor="0.86" vaporized=""/>
    <tripinfo id="flow_route_79_duration_20250327_1940.2" depart="9.00" departLane="380344611#0_0" departPos="155.05" departSpeed="0.00" departDelay="0.43" arrival="40.00" arrivalLane="423956929_0" arrivalPos="177.16" arrivalSpeed="15.10" duration="31.00" routeLength="337.94" waitingTime="0.00" waitingCount="0" stopTime="0.00" timeLoss="9.10" rerouteNo="0" devices="tripinfo_flow_route_79_duration_20250327_1940.2" vType="car" speedFactor="0.93" vaporized=""/>
    <tripinfo id="flow_route_81_duration_20250327_1940.8" depart="15.00" departLane="380344611#0_0" departPos="221.47" departSpeed="0.00" departDelay="1.67" arrival="43.00" arrivalLane="133000063_2" arrivalPos="150.80" arrivalSpeed="16.27" duration="28.00" routeLength="245.20" waitingTime="0.00" waitingCount="0" stopTime="0.00" timeLoss="12.09" rerouteNo="0" devices="tripinfo_flow_route_81_duration_20250327_1940.8" vType="car" speedFactor="1.04" vaporized=""/>
    <tripinfo id="flow_route_81_duration_20250327_1940.4" depart="7.00" departLane="380344611#0_0" departPos="169.07" departSpeed="0.00" departDelay="0.34" arrival="44.00" arrivalLane="133000063_2" arrivalPos="115.08" arrivalSpeed="14.62" duration="37.00" routeLength="261.88" waitingTime="0.00" waitingCount="0" stopTime="0.00" timeLoss="18.27" rerouteNo="0" devices="tripinfo_flow_route_81_duration_20250327_1940.4" vType="car" speedFactor="0.89" vaporized=""/>
    <tripinfo id="flow_route_89_duration_20250327_1940.2" depart="5.00" departLane="380585338#0_0" departPos="38.75" departSpeed="0.00" departDelay="0.20" arrival="50.00" arrivalLane="380593307#0_1" arrivalPos="22.46" arrivalSpeed="9.84" duration="45.00" routeLength="193.98" waitingTime="11.00" waitingCount="1" stopTime="0.00" timeLoss="32.93" rerouteNo="0" devices="tripinfo_flow_route_89_duration_20250327_1940.2" vType="car" speedFactor="1.02" vaporized=""/>
    <tripinfo id="flow_route_89_duration_20250327_1940.7" depart="23.00" departLane="380585338#0_0" departPos="77.54" departSpeed="0.00" departDelay="6.20" arrival="50.00" arrivalLane="380593307#0_1" arrivalPos="7.39" arrivalSpeed="9.33" duration="27.00" routeLength="140.12" waitingTime="0.00" waitingCount="0" stopTime="0.00" timeLoss="18.38" rerouteNo="0" devices="tripinfo_flow_route_89_duration_20250327_1940.7" vType="car" speedFactor="1.00" vaporized=""/>
    <tripinfo id="flow_route_89_duration_20250327_1940.4" depart="14.00" departLane="380585338#0_0" departPos="160.61" departSpeed="0.00" departDelay="4.40" arrival="51.00" arrivalLane="380593307#0_0" arrivalPos="54.49" arrivalSpeed="11.87" duration="37.00" routeLength="104.15" waitingTime="14.00" waitingCount="1" stopTime="0.00" timeLoss="30.22" rerouteNo="0" devices="tripinfo_flow_route_89_duration_20250327_1940.4" vType="car" speedFactor="0.99" vaporized=""/>
    <tripinfo id="flow_route_76_duration_20250327_1940.2" depart="32.00" departLane="133342692#0_0" departPos="100.05" departSpeed="0.00" departDelay="2.00" arrival="53.00" arrivalLane="133000063_1" arrivalPos="38.22" arrivalSpeed="11.39" duration="21.00" routeLength="145.09" waitingTime="0.00" waitingCount="0" stopTime="0.00" timeLoss="11.76" rerouteNo="0" devices="tripinfo_flow_route_76_duration_20250327_1940.2" vType="car" speedFactor="1.02" vaporized=""/>
    <tripinfo id="flow_route_77_duration_20250327_1940.0" depart="0.00" departLane="133342692#0_0" departPos="115.39" departSpeed="0.00" departDelay="0.00" arrival="54.00" arrivalLane="423956929_0" arrivalPos="132.19" arrivalSpeed="15.10" duration="54.00" routeLength="199.33" waitingTime="22.00" waitingCount="1" stopTime="0.00" timeLoss="40.16" rerouteNo="0" devices="tripinfo_flow_route_77_duration_20250327_1940.0" vType="car" speedFactor="0.94" vaporized=""/>
    <tripinfo id="flow_route_89_duration_20250327_1940.0" depart="0.00" departLane="380585338#0_0" departPos="55.91" departSpeed="0.00" departDelay="0.00" arrival="54.00" arrivalLane="380593307#0_0" arrivalPos="94.67" arrivalSpeed="13.72" duration="54.00" routeLength="249.03" waitingTime="15.00" waitingCount="1" stopTime="0.00" timeLoss="37.54" rerouteNo="0" devices="tripinfo_flow_route_89_duration_20250327_1940.0" vType="car" speedFactor="0.94" vaporized=""/>
    <tripinfo id="flow_route_90_duration_20250327_1940.3" depart="15.00" departLane="380585338#0_0" departPos="17.63" departSpeed="0.00" departDelay="4.41" arrival="55.00" arrivalLane="136617981_0" arrivalPos="22.67" arrivalSpeed="9.05" duration="40.00" routeLength="192.11" waitingTime="0.00" waitingCount="0" stopTime="0.00" timeLoss="27.04" rerouteNo="0" devices="tripinfo_flow_route_90_duration_20250327_1940.3" vType="car" speedFactor="0.97" vaporized=""/>
    <tripinfo id="flow_route_89_duration_20250327_1940.6" depart="23.00" departLane="380585338#0_0" departPos="36.03" departSpeed="0.00" departDelay="8.60" arrival="55.00" arrivalLane="380593307#0_2" arrivalPos="59.53" arrivalSpeed="12.71" duration="32.00" routeLength="233.76" waitingTime="0.00" waitingCount="0" stopTime="0.00" timeLoss="14.79" rerouteNo="0" devices="tripinfo_flow_route_89_duration_20250327_1940.6" vType="car" speedFactor="0.85" vaporized=""/>
    <tripinfo id="flow_route_76_duration_20250327_1940.1" depart="15.00" departLane="133342692#0_0" departPos="48.21" departSpeed="0.00" departDelay="0.00" arrival="56.00" arrivalLane="133000063_1" arrivalPos="98.81" arrivalSpeed="14.39" duration="41.00" routeLength="257.51" waitingTime="2.00" waitingCount="1" stopTime="0.00" timeLoss="24.91" rerouteNo="0" devices="tripinfo_flow_route_76_duration_20250327_1940.1" vType="car" speedFactor="1.09" vaporized=""/>
    <tripinfo id="flow_route_89_duration_20250327_1940.10" depart="35.00" departLane="380585338#0_0" departPos="62.00" departSpeed="0.00" departDelay="11.00" arrival="56.00" arrivalLane="380593307#0_1" arrivalPos="27.36" arrivalSpeed="16.58" duration="21.00" routeLength="175.63" waitingTime="0.00" waitingCount="0" stopTime="0.00" timeLoss="10.08" rerouteNo="0" devices="tripinfo_flow_route_89_duration_20250327_1940.10" vType="car" speedFactor="1.06" vaporized=""/>
    <tripinfo id="flow_route_76_duration_20250327_1940.0" depart="0.00" departLane="133342692#0_0" departPos="1.03" departSpeed="0.00" departDelay="0.00" arrival="57.00" arrivalLane="133000063_0" arrivalPos="153.47" arrivalSpeed="16.14" duration="57.00" routeLength="359.35" waitingTime="12.00" waitingCount="1" stopTime="0.00" timeLoss="35.02" rerouteNo="0" devices="tripinfo_flow_route_76_duration_20250327_1940.0" vType="car" speedFactor="1.06" vaporized=""/>
    <tripinfo id="flow_route_89_duration_20250327_1940.1" depart="4.00" departLane="380585338#0_0" departPos="52.40" departSpeed="0.00" departDelay="1.60" arrival="57.00" arrivalLane="380593307#0_2" arrivalPos="143.11" arrivalSpeed="16.29" duration="53.00" routeLength="300.98" waitingTime="11.00" waitingCount="1" stopTime="0.00" timeLoss="34.14" rerouteNo="0" devices="tripinfo_flow_route_89_duration_20250327_1940.1" vType="car" speedFactor="1.12" vaporized=""/>
    <tripinfo id="flow_route_77_duration_20250327_1940.1" depart="9.00" departLane="133342692#0_0" departPos="4.77" departSpeed="0.00" departDelay="0.43" arrival="57.00" arrivalLane="423956929_0" arrivalPos="107.62" arrivalSpeed="14.14" duration="48.00" routeLength="285.38" waitingTime="0.00" waitingCount="0" stopTime="0.00" timeLoss="28.58" rerouteNo="0" devices="tripinfo_flow_route_77_duration_20250327_1940.1" vType="car" speedFactor="0.95" vaporized=""/>
    <tripinfo id="flow_route_77_duration_20250327_1940.2" depart="19.00" departLane="133342692#0_0" departPos="161.98" departSpeed="0.00" departDelay="1.86" arrival="59.00" arrivalLane="423956929_0" arrivalPos="167.80" arrivalSpeed="16.41" duration="40.00" routeLength="188.35" waitingTime="14.00" waitingCount="1" stopTime="0.00" timeLoss="27.04" rerouteNo="0" devices="tripinfo_flow_route_77_duration_20250327_1940.2" vType="car" speedFactor="1.00" vaporized=""/>
    <tripinfo id="flow_route_89_duration_20250327_1940.5" depart="21.00" departLane="380585338#0_0" departPos="2.03" departSpeed="0.00" departDelay="9.00" arrival="60.00" arrivalLane="380593307#0_2" arrivalPos="106.79" arrivalSpeed="14.67" duration="39.00" routeLength="315.03" waitingTime="0.00" waitingCount="0" stopTime="0.00" timeLoss="17.33" rerouteNo="0" devices="tripinfo_flow_route_89_duration_20250327_1940.5" vType="car" speedFactor="0.90" vaporized=""/>
    <tripinfo id="flow_route_89_duration_20250327_1940.8" depart="27.00" departLane="380585338#0_0" departPos="128.69" departSpeed="0.00" departDelay="7.80" arrival="60.00" arrivalLane="380593307#0_2" arrivalPos="156.83" arrivalSpeed="16.21" duration="33.00" routeLength="238.42" waitingTime="0.00" waitingCount="0" stopTime="0.00" timeLoss="17.61" rerouteNo="0" devices="tripinfo_flow_route_89_duration_20250327_1940.8" vType="car" speedFactor="0.99" vaporized=""/>
    <tripinfo id="flow_route_89_duration_20250327_1940.3" depart="9.00" departLane="380585338#0_0" departPos="111.42" departSpeed="0.00" departDelay="1.80" arrival="61.00" arrivalLane="380593307#0_0" arrivalPos="162.33" arrivalSpeed="14.50" duration="52.00" routeLength="261.18" waitingTime="14.00" waitingCount="1" stopTime="0.00" timeLoss="33.42" rerouteNo="0" devices="tripinfo_flow_route_89_duration_20250327_1940.3" vType="car" speedFactor="0.87" vaporized=""/>
    <tripinfo id="flow_route_89_duration_20250327_1940.9" depart="30.00" departLane="380585338#0_0" departPos="77.61" departSpeed="0.00" departDelay="8.40" arrival="63.00" arrivalLane="380593307#0_1" arrivalPos="173.05" arrivalSpeed="16.51" duration="33.00" routeLength="305.70" waitingTime="0.00" waitingCount="0" stopTime="0.00" timeLoss="13.92" rerouteNo="0" devices="tripinfo_flow_route_89_duration_20250327_1940.9" vType="car" speedFactor="1.04" vaporized=""/>
    <tripinfo id="flow_route_90_duration_20250327_1940.5" depart="24.00" departLane="380585338#0_0" departPos="100.64" departSpeed="0.00" departDelay="6.36" arrival="64.00" arrivalLane="136617981_0" arrivalPos="187.99" arrivalSpeed="16.17" duration="40.00" routeLength="274.42" waitingTime="3.00" waitingCount="1" stopTime="0.00" timeLoss="22.90" rerouteNo="0" devices="tripinfo_flow_route_90_duration_20250327_1940.5" vType="car" speedFactor="1.14" vaporized=""/>
    <tripinfo id="flow_route_90_duration_20250327_1940.11" depart="58.00" departLane="380585338#0_0" departPos="164.28" departSpeed="0.00" departDelay="19.18" arrival="66.00" arrivalLane="136617981_0" arrivalPos="2.22" arrivalSpeed="6.14" duration="8.00" routeLength="25.01" waitingTime="0.00" waitingCount="0" stopTime="0.00" timeLoss="5.47" rerouteNo="0" devices="tripinfo_flow_route_90_duration_20250327_1940.11" vType="car" speedFactor="0.99" vaporized=""/>
    <tripinfo id="flow_route_90_duration_20250327_1940.2" depart="9.00" departLane="380585338#0_0" departPos="26.37" departSpeed="0.00" departDelay="1.94" arrival="68.00" arrivalLane="136617981_0" arrivalPos="272.07" arrivalSpeed="15.21" duration="59.00" routeLength="432.77" waitingTime="7.00" waitingCount="1" stopTime="0.00" timeLoss="29.56" rerouteNo="0" devices="tripinfo_flow_route_90_duration_20250327_1940.2" vType="car" speedFactor="0.92" vaporized=""/>
    <tripinfo id="flow_route_77_duration_20250327_1940.4" depart="35.00" departLane="133342692#0_0" departPos="80.32" departSpeed="0.00" departDelay="0.72" arrival="69.00" arrivalLane="423956929_0" arrivalPos="170.10" arrivalSpeed="14.59" duration="34.00" routeLength="272.31" waitingTime="0.00" waitingCount="0" stopTime="0.00" timeLoss="13.96" rerouteNo="0" devices="tripinfo_flow_route_77_duration_20250327_1940.4" vType="car" speedFactor="0.89" vaporized=""/>
    <tripinfo id="flow_route_78_duration_20250327_1940.2" depart="7.00" departLane="133342692#0_0" departPos="122.68" departSpeed="0.00" departDelay="1.55" arrival="70.00" arrivalLane="136617981_2" arrivalPos="47.60" arrivalSpeed="10.42" duration="63.00" routeLength="130.38" waitingTime="27.00" waitingCount="2" stopTime="0.00" timeLoss="53.75" rerouteNo="0" devices="tripinfo_flow_route_78_duration_20250327_1940.2" vType="car" speedFactor="1.01" vaporized=""/>
    <tripinfo id="flow_route_78_duration_20250327_1940.3" depart="11.00" departLane="133342692#0_0" departPos="123.77" departSpeed="0.00" departDelay="2.82" arrival="71.00" arrivalLane="136617981_2" arrivalPos="47.73" arrivalSpeed="10.40" duration="60.00" routeLength="129.42" waitingTime="24.00" waitingCount="2" stopTime="0.00" timeLoss="51.72" rerouteNo="0" devices="tripinfo_flow_route_78_duration_20250327_1940.3" vType="car" speedFactor="1.13" vaporized=""/>
    <tripinfo id="flow_route_77_duration_20250327_1940.3" depart="27.00" departLane="133342692#0_0" departPos="1.26" departSpeed="0.00" departDelay="1.29" arrival="71.00" arrivalLane="423956929_0" arrivalPos="174.53" arrivalSpeed="16.37" duration="44.00" routeLength="355.80" waitingTime="0.00" waitingCount="0" stopTime="0.00" timeLoss="21.03" rerouteNo="0" devices="tripinfo_flow_route_77_duration_20250327_1940.3" vType="car" speedFactor="1.01" vaporized=""/>
    <tripinfo id="flow_route_90_duration_20250327_1940.8" depart="48.00" departLane="380585338#0_0" departPos="73.67" departSpeed="0.00" departDelay="19.77" arrival="71.00" arrivalLane="136617981_0" arrivalPos="3.30" arrivalSpeed="6.82" duration="23.00" routeLength="116.71" waitingTime="0.00" waitingCount="0" stopTime="0.00" timeLoss="15.17" rerouteNo="0" devices="tripinfo_flow_route_90_duration_20250327_1940.8" vType="car" speedFactor="1.01" vaporized=""/>
    <tripinfo id="flow_route_90_duration_20250327_1940.6" depart="32.00" departLane="380585338#0_0" departPos="35.07" departSpeed="0.00" departDelay="10.83" arrival="72.00" arrivalLane="136617981_0" arrivalPos="138.15" arrivalSpeed="15.55" duration="40.00" routeLength="290.15" waitingTime="0.00" waitingCount="0" stopTime="0.00" timeLoss="21.66" rerouteNo="0" devices="tripinfo_flow_route_90_duration_20250327_1940.6" vType="car" speedFactor="1.02" vaporized=""/>
    <tripinfo id="flow_route_77_duration_20250327_1940.5" depart="43.00" departLane="133342692#0_0" departPos="46.00" departSpeed="0.00" departDelay="0.15" arrival="73.00" arrivalLane="423956929_0" arrivalPos="78.45" arrivalSpeed="12.99" duration="30.00" routeLength="214.98" waitingTime="0.00" waitingCount="0" stopTime="0.00" timeLoss="15.67" rerouteNo="0" devices="tripinfo_flow_route_77_duration_20250327_1940.5" vType="car" speedFactor="1.03" vaporized=""/>
    <tripinfo id="flow_route_90_duration_20250327_1940.4" depart="23.00" departLane="380585338#0_0" departPos="26.63" departSpeed="0.00" departDelay="8.88" arrival="74.00" arrivalLane="136617981_0" arrivalPos="198.25" arrivalSpeed="13.93" duration="51.00" routeLength="358.69" waitingTime="0.00" waitingCount="0" stopTime="0.00" timeLoss="24.37" rerouteNo="0" devices="tripinfo_flow_route_90_duration_20250327_1940.4" vType="car" speedFactor="0.85" vaporized=""/>
    <tripinfo id="flow_route_90_duration_20250327_1940.7" depart="36.00" departLane="380585338#0_0" departPos="112.87" departSpeed="0.00" departDelay="11.30" arrival="74.00" arrivalLane="136617981_0" arrivalPos="260.62" arrivalSpeed="15.89" duration="38.00" routeLength="334.82" waitingTime="0.00" waitingCount="0" stopTime="0.00" timeLoss="16.05" rerouteNo="0" devices="tripinfo_flow_route_90_duration_20250327_1940.7" vType="car" speedFactor="0.98" vaporized=""/>
    <tripinfo id="flow_route_78_duration_20250327_1940.0" depart="0.00" departLane="133342692#0_0" departPos="79.92" departSpeed="0.00" departDelay="0.00" arrival="75.00" arrivalLane="136617981_2" arrivalPos="12.89" arrivalSpeed="9.73" duration="75.00" routeLength="138.43" waitingTime="26.00" waitingCount="5" stopTime="0.00" timeLoss="65.46" rerouteNo="0" devices="tripinfo_flow_route_78_duration_20250327_1940.0" vType="car" speedFactor="1.01" vaporized=""/>
    <tripinfo id="flow_route_76_duration_20250327_1940.3" depart="45.00" departLane="133342692#0_0" departPos="25.10" departSpeed="0.00" departDelay="0.00" arrival="75.00" arrivalLane="133000063_0" arrivalPos="106.10" arrivalSpeed="16.49" duration="30.00" routeLength="287.92" waitingTime="0.00" waitingCount="0" stopTime="0.00" timeLoss="12.38" rerouteNo="0" devices="tripinfo_flow_route_76_duration_20250327_1940.3" vType="car" speedFactor="1.04" vaporized=""/>
    <tripinfo id="flow_route_78_duration_20250327_1940.5" depart="14.00" departLane="133342692#0_0" departPos="121.86" departSpeed="0.00" departDelay="0.37" arrival="77.00" arrivalLane="136617981_2" arrivalPos="85.80" arrivalSpeed="14.62" duration="63.00" routeLength="169.40" waitingTime="23.00" waitingCount="2" stopTime="0.00" timeLoss="50.69" rerouteNo="0" devices="tripinfo_flow_route_78_duration_20250327_1940.5" vType="car" speedFactor="0.96" vaporized=""/>
    <tripinfo id="flow_route_80_duration_20250327_1940.3" depart="14.00" departLane="380344611#0_0" departPos="129.24" departSpeed="0.00" departDelay="0.16" arrival="82.00" arrivalLane="380593307#0_0" arrivalPos="18.18" arrivalSpeed="6.72" duration="68.00" routeLength="181.56" waitingTime="32.00" waitingCount="1" stopTime="0.00" timeLoss="56.32" rerouteNo="0" devices="tripinfo_flow_route_80_duration_20250327_1940.3" vType="car" speedFactor="1.09" vaporized=""/>
    <tripinfo id="flow_route_78_duration_20250327_1940.1" depart="3.00" departLane="133342692#0_0" departPos="152.18" departSpeed="0.00" departDelay="0.27" arrival="83.00" arrivalLane="136617981_2" arrivalPos="266.14" arrivalSpeed="16.16" duration="80.00" routeLength="319.42" waitingTime="36.00" waitingCount="2" stopTime="0.00" timeLoss="59.40" rerouteNo="0" devices="tripinfo_flow_route_78_duration_20250327_1940.1" vType="car" speedFactor="1.05" vaporized=""/>
    <tripinfo id="flow_route_79_duration_20250327_1940.7" depart="34.00" departLane="380344611#0_0" departPos="282.03" departSpeed="0.00" departDelay="4.01" arrival="85.00" arrivalLane="423956929_0" arrivalPos="42.86" arrivalSpeed="10.88" duration="51.00" routeLength="76.64" waitingTime="36.00" waitingCount="1" stopTime="0.00" timeLoss="45.36" rerouteNo="0" devices="tripinfo_flow_route_79_duration_20250327_1940.7" vType="car" speedFactor="0.89" vaporized=""/>
    <tripinfo id="flow_route_80_duration_20250327_1940.2" depart="10.00" departLane="380344611#0_0" departPos="24.39" departSpeed="0.00" departDelay="0.77" arrival="86.00" arrivalLane="380593307#0_0" arrivalPos="11.63" arrivalSpeed="7.91" duration="76.00" routeLength="279.86" waitingTime="22.00" waitingCount="1" stopTime="0.00" timeLoss="58.47" rerouteNo="0" devices="tripinfo_flow_route_80_duration_20250327_1940.2" vType="car" speedFactor="1.15" vaporized=""/>
    <tripinfo id="flow_route_79_duration_20250327_1940.4" depart="19.00" departLane="380344611#0_0" departPos="155.75" departSpeed="0.00" departDelay="1.86" arrival="86.00" arrivalLane="423956929_0" arrivalPos="63.93" arrivalSpeed="12.53" duration="67.00" routeLength="224.00" waitingTime="33.00" waitingCount="1" stopTime="0.00" timeLoss="51.83" rerouteNo="0" devices="tripinfo_flow_route_79_duration_20250327_1940.4" vType="car" speedFactor="0.90" vaporized=""/>
    <tripinfo id="flow_route_79_duration_20250327_1940.9" depart="43.00" departLane="380344611#0_0" departPos="249.94" departSpeed="0.00" departDelay="4.44" arrival="86.00" arrivalLane="423956929_0" arrivalPos="14.55" arrivalSpeed="9.53" duration="43.00" routeLength="80.42" waitingTime="23.00" waitingCount="1" stopTime="0.00" timeLoss="37.67" rerouteNo="0" devices="tripinfo_flow_route_79_duration_20250327_1940.9" vType="car" speedFactor="0.92" vaporized=""/>
    <tripinfo id="flow_route_90_duration_20250327_1940.10" depart="55.00" departLane="380585338#0_0" departPos="144.59" departSpeed="0.00" departDelay="19.71" arrival="87.00" arrivalLane="136617981_0" arrivalPos="238.98" arrivalSpeed="15.28" duration="32.00" routeLength="281.47" waitingTime="0.00" waitingCount="0" stopTime="0.00" timeLoss="12.47" rerouteNo="0" devices="tripinfo_flow_route_90_duration_20250327_1940.10" vType="car" speedFactor="0.93" vaporized=""/>
    <tripinfo id="flow_route_78_duration_20250327_1940.6" depart="19.00" departLane="133342692#0_0" departPos="140.78" departSpeed="0.00" departDelay="2.64" arrival="89.00" arrivalLane="136617981_2" arrivalPos="249.98" arrivalSpeed="16.32" duration="70.00" routeLength="314.66" waitingTime="28.00" waitingCount="3" stopTime="0.00" timeLoss="50.42" rerouteNo="0" devices="tripinfo_flow_route_78_duration_20250327_1940.6" vType="car" speedFactor="1.17" vaporized=""/>
    <tripinfo id="flow_route_85_duration_20250327_1940.1" depart="20.00" departLane="1091883842_0" departPos="148.19" departSpeed="0.00" departDelay="5.00" arrival="90.00" arrivalLane="133000063_0" arrivalPos="70.80" arrivalSpeed="12.14" duration="70.00" routeLength="117.37" waitingTime="44.00" waitingCount="1" stopTime="0.00" timeLoss="60.43" rerouteNo="0" devices="tripinfo_flow_route_85_duration_20250327_1940.1" vType="car" speedFactor="0.88" vaporized=""/>
    <tripinfo id="flow_route_84_duration_20250327_1940.13" depart="28.00" departLane="1091883842_0" departPos="137.25" departSpeed="0.00" departDelay="3.63" arrival="90.00" arrivalLane="136617981_2" arrivalPos="55.36" arrivalSpeed="12.35" duration="62.00" routeLength="136.41" waitingTime="35.00" waitingCount="1" stopTime="0.00" timeLoss="53.44" rerouteNo="0" devices="tripinfo_flow_route_84_duration_20250327_1940.13" vType="car" speedFactor="1.03" vaporized=""/>
    <tripinfo id="flow_route_84_duration_20250327_1940.2" depart="6.00" departLane="1091883842_0" departPos="44.83" departSpeed="0.00" departDelay="2.25" arrival="91.00" arrivalLane="136617981_1" arrivalPos="67.09" arrivalSpeed="13.54" duration="85.00" routeLength="240.55" waitingTime="43.00" waitingCount="1" stopTime="0.00" timeLoss="69.31" rerouteNo="0" devices="tripinfo_flow_route_84_duration_20250327_1940.2" vType="car" speedFactor="0.93" vaporized=""/>
    <tripinfo id="flow_route_79_duration_20250327_1940.3" depart="13.00" departLane="380344611#0_0" departPos="6.76" departSpeed="0.00" departDelay="0.15" arrival="91.00" arrivalLane="423956929_2" arrivalPos="108.54" arrivalSpeed="14.58" duration="78.00" routeLength="417.60" waitingTime="27.00" waitingCount="1" stopTime="0.00" timeLoss="52.40" rerouteNo="0" devices="tripinfo_flow_route_79_duration_20250327_1940.3" vType="car" speedFactor="1.03" vaporized=""/>
    <tripinfo id="flow_route_84_duration_20250327_1940.1" depart="2.00" departLane="1091883842_0" departPos="117.64" departSpeed="0.00" departDelay="0.13" arrival="93.00" arrivalLane="136617981_0" arrivalPos="145.38" arrivalSpeed="16.43" duration="91.00" routeLength="246.03" waitingTime="55.00" waitingCount="1" stopTime="0.00" timeLoss="75.25" rerouteNo="0" devices="tripinfo_flow_route_84_duration_20250327_1940.1" vType="car" speedFactor="1.03" vaporized=""/>
    <tripinfo id="flow_route_84_duration_20250327_1940.10" depart="21.00" departLane="1091883842_0" departPos="76.49" departSpeed="0.00" departDelay="2.25" arrival="93.00" arrivalLane="136617981_0" arrivalPos="29.16" arrivalSpeed="11.27" duration="72.00" routeLength="170.96" waitingTime="38.00" waitingCount="1" stopTime="0.00" timeLoss="61.17" rerouteNo="0" devices="tripinfo_flow_route_84_duration_20250327_1940.10" vType="car" speedFactor="1.08" vaporized=""/>
    <tripinfo id="flow_route_84_duration_20250327_1940.3" depart="6.00" departLane="1091883842_0" departPos="16.53" departSpeed="0.00" departDelay="0.38" arrival="94.00" arrivalLane="136617981_2" arrivalPos="162.01" arrivalSpeed="15.92" duration="88.00" routeLength="363.76" waitingTime="43.00" waitingCount="1" stopTime="0.00" timeLoss="65.21" rerouteNo="0" devices="tripinfo_flow_route_84_duration_20250327_1940.3" vType="car" speedFactor="0.97" vaporized=""/>
    <tripinfo id="flow_route_84_duration_20250327_1940.8" depart="20.00" departLane="1091883842_0" departPos="64.22" departSpeed="0.00" departDelay="5.00" arrival="94.00" arrivalLane="136617981_2" arrivalPos="83.98" arrivalSpeed="14.26" duration="74.00" routeLength="238.05" waitingTime="35.00" waitingCount="1" stopTime="0.00" timeLoss="57.66" rerouteNo="0" devices="tripinfo_flow_route_84_duration_20250327_1940.8" vType="car" speedFactor="0.90" vaporized=""/>
    <tripinfo id="flow_route_84_duration_20250327_1940.9" depart="21.00" departLane="1091883842_0" departPos="168.84" departSpeed="0.00" departDelay="4.13" arrival="94.00" arrivalLane="136617981_0" arrivalPos="136.05" arrivalSpeed="16.31" duration="73.00" routeLength="185.50" waitingTime="47.00" waitingCount="1" stopTime="0.00" timeLoss="60.87" rerouteNo="0" devices="tripinfo_flow_route_84_duration_20250327_1940.9" vType="car" speedFactor="1.10" vaporized=""/>
    <tripinfo id="flow_route_85_duration_20250327_1940.2" depart="35.00" departLane="1091883842_0" departPos="137.47" departSpeed="0.00" departDelay="5.00" arrival="94.00" arrivalLane="133000063_0" arrivalPos="45.52" arrivalSpeed="10.34" duration="59.00" routeLength="102.81" waitingTime="34.00" waitingCount="1" stopTime="0.00" timeLoss="52.15" rerouteNo="0" devices="tripinfo_flow_route_85_duration_20250327_1940.2" vType="car" speedFactor="1.09" vaporized=""/>