<?xml version="1.0" encoding="UTF-8"?>

<!-- generated on 2025-05-06 21:09:05 by Eclipse SUMO sumo Version 1.20.0
<configuration xmlns:xsi="http://www.w3.org/2001/XMLSchema-instance" xsi:noNamespaceSchemaLocation="http://sumo.dlr.de/xsd/sumoConfiguration.xsd">

    <input>
        <net-file value="osm.net.xml"/>
        <route-files value="xml/route_rl_GS_cluster_1342409365_3839031467_8.rou.xml"/>
    </input>

    <output>
        <tripinfo-output value="xml/tripinfo_rl_GS_cluster_1342409365_3839031467_8.xml"/>
    </output>

    <traci_server>
        <remote-port value="47321"/>
    </traci_server>

</configuration>
-->

<tripinfos xmlns:xsi="http://www.w3.org/2001/XMLSchema-instance" xsi:noNamespaceSchemaLocation="http://sumo.dlr.de/xsd/tripinfo_file.xsd">
    <tripinfo id="flow_route_128_duration_20250327_2110.0" depart="0.00" departLane="134133272_0" departPos="226.49" departSpeed="0.00" departDelay="0.00" arrival="31.00" arrivalLane="380585338#0_0" arrivalPos="7.57" arrivalSpeed="5.61" duration="31.00" routeLength="279.28" waitingTime="0.00" waitingCount="0" stopTime="0.00" timeLoss="10.66" rerouteNo="0" devices="tripinfo_flow_route_128_duration_20250327_2110.0" vType="car" speedFactor="0.83" vaporized=""/>
    <tripinfo id="flow_route_92_duration_20250327_2110.3" depart="8.00" departLane="133000063_0" departPos="131.68" departSpeed="0.00" departDelay="0.18" arrival="46.00" arrivalLane="186409193_0" arrivalPos="13.83" arrivalSpeed="14.46" duration="38.00" routeLength="274.01" waitingTime="0.00" waitingCount="0" stopTime="0.00" timeLoss="20.12" rerouteNo="0" devices="tripinfo_flow_route_92_duration_20250327_2110.3" vType="car" speedFactor="0.99" vaporized=""/>
    <tripinfo id="flow_route_103_duration_20250327_2110.0" depart="1.00" departLane="1342963997_0" departPos="57.81" departSpeed="0.00" departDelay="1.00" arrival="49.00" arrivalLane="683079387#1_0" arrivalPos="6.02" arrivalSpeed="16.29" duration="48.00" routeLength="524.42" waitingTime="0.00" waitingCount="0" stopTime="0.00" timeLoss="15.62" rerouteNo="0" devices="tripinfo_flow_route_103_duration_20250327_2110.0" vType="car" speedFactor="1.03" vaporized=""/>
    <tripinfo id="flow_route_91_duration_20250327_2110.0" depart="0.00" departLane="133000063_0" departPos="128.34" departSpeed="0.00" departDelay="0.00" arrival="50.00" arrivalLane="683079387#1_1" arrivalPos="9.10" arrivalSpeed="16.42" duration="50.00" routeLength="599.49" waitingTime="0.00" waitingCount="0" stopTime="0.00" timeLoss="13.14" rerouteNo="0" devices="tripinfo_flow_route_91_duration_20250327_2110.0" vType="car" speedFactor="1.06" vaporized=""/>
    <tripinfo id="flow_route_92_duration_20250327_2110.1" depart="3.00" departLane="133000063_0" departPos="88.35" departSpeed="0.00" departDelay="0.39" arrival="52.00" arrivalLane="186409193_0" arrivalPos="39.94" arrivalSpeed="14.14" duration="49.00" routeLength="343.44" waitingTime="0.00" waitingCount="0" stopTime="0.00" timeLoss="23.92" rerouteNo="0" devices="tripinfo_flow_route_92_duration_20250327_2110.1" vType="car" speedFactor="0.86" vaporized=""/>
    <tripinfo id="flow_route_92_duration_20250327_2110.5" depart="16.00" departLane="133000063_0" departPos="99.91" departSpeed="0.00" departDelay="2.96" arrival="57.00" arrivalLane="186409193_0" arrivalPos="34.83" arrivalSpeed="15.23" duration="41.00" routeLength="326.78" waitingTime="0.00" waitingCount="0" stopTime="0.00" timeLoss="20.18" rerouteNo="0" devices="tripinfo_flow_route_92_duration_20250327_2110.5" vType="car" speedFactor="0.97" vaporized=""/>
    <tripinfo id="flow_route_92_duration_20250327_2110.0" depart="0.00" departLane="133000063_0" departPos="1.04" departSpeed="0.00" departDelay="0.00" arrival="60.00" arrivalLane="186409193_0" arrivalPos="41.62" arrivalSpeed="14.63" duration="60.00" routeLength="432.44" waitingTime="0.00" waitingCount="0" stopTime="0.00" timeLoss="31.44" rerouteNo="0" devices="tripinfo_flow_route_92_duration_20250327_2110.0" vType="car" speedFactor="0.94" vaporized=""/>
    <tripinfo id="flow_route_92_duration_20250327_2110.4" depart="12.00" departLane="133000063_0" departPos="28.93" departSpeed="0.00" departDelay="1.57" arrival="61.00" arrivalLane="186409193_0" arrivalPos="19.35" arrivalSpeed="13.89" duration="49.00" routeLength="382.29" waitingTime="0.00" waitingCount="0" stopTime="0.00" timeLoss="23.40" rerouteNo="0" devices="tripinfo_flow_route_92_duration_20250327_2110.4" vType="car" speedFactor="0.94" vaporized=""/>
    <tripinfo id="flow_route_93_duration_20250327_2110.0" depart="0.00" departLane="133000063_0" departPos="115.92" departSpeed="0.00" departDelay="0.00" arrival="67.00" arrivalLane="380585336_1" arrivalPos="19.16" arrivalSpeed="16.38" duration="67.00" routeLength="758.54" waitingTime="0.00" waitingCount="0" stopTime="0.00" timeLoss="21.26" rerouteNo="0" devices="tripinfo_flow_route_93_duration_20250327_2110.0" vType="car" speedFactor="1.01" vaporized=""/>
    <tripinfo id="flow_route_145_duration_20250327_2110.0" depart="0.00" departLane="683079388#0_0" departPos="22.61" departSpeed="0.00" departDelay="0.00" arrival="68.00" arrivalLane="380585336_0" arrivalPos="229.76" arrivalSpeed="15.56" duration="68.00" routeLength="831.39" waitingTime="0.00" waitingCount="0" stopTime="0.00" timeLoss="15.48" rerouteNo="0" devices="tripinfo_flow_route_145_duration_20250327_2110.0" vType="car" speedFactor="0.94" vaporized=""/>
    <tripinfo id="flow_route_91_duration_20250327_2110.1" depart="11.00" departLane="133000063_0" departPos="70.85" departSpeed="0.00" departDelay="1.00" arrival="70.00" arrivalLane="683079387#1_0" arrivalPos="0.30" arrivalSpeed="14.45" duration="59.00" routeLength="648.18" waitingTime="0.00" waitingCount="0" stopTime="0.00" timeLoss="14.43" rerouteNo="0" devices="tripinfo_flow_route_91_duration_20250327_2110.1" vType="car" speedFactor="0.88" vaporized=""/>
    <tripinfo id="flow_route_128_duration_20250327_2110.1" depart="30.00" departLane="134133272_0" departPos="182.30" departSpeed="0.00" departDelay="0.00" arrival="71.00" arrivalLane="380585338#0_0" arrivalPos="85.55" arrivalSpeed="12.41" duration="41.00" routeLength="401.46" waitingTime="0.00" waitingCount="0" stopTime="0.00" timeLoss="16.11" rerouteNo="0" devices="tripinfo_flow_route_128_duration_20250327_2110.1" vType="car" speedFactor="1.09" vaporized=""/>
    <tripinfo id="flow_route_102_duration_20250327_2110.0" depart="0.00" departLane="1342963997_0" departPos="83.70" departSpeed="0.00" departDelay="0.00" arrival="72.00" arrivalLane="380585336_1" arrivalPos="207.08" arrivalSpeed="16.46" duration="72.00" routeLength="834.32" waitingTime="0.00" waitingCount="0" stopTime="0.00" timeLoss="20.53" rerouteNo="0" devices="tripinfo_flow_route_102_duration_20250327_2110.0" vType="car" speedFactor="1.08" vaporized=""/>
    <tripinfo id="flow_route_93_duration_20250327_2110.6" depart="15.00" departLane="133000063_0" departPos="165.34" departSpeed="0.00" departDelay="2.15" arrival="79.00" arrivalLane="380585336_1" arrivalPos="37.51" arrivalSpeed="16.59" duration="64.00" routeLength="727.46" waitingTime="0.00" waitingCount="0" stopTime="0.00" timeLoss="19.33" rerouteNo="0" devices="tripinfo_flow_route_93_duration_20250327_2110.6" vType="car" speedFactor="1.01" vaporized=""/>
    <tripinfo id="flow_route_93_duration_20250327_2110.2" depart="5.00" departLane="133000063_0" departPos="161.74" departSpeed="0.00" departDelay="0.72" arrival="81.00" arrivalLane="380585336_1" arrivalPos="266.92" arrivalSpeed="16.23" duration="76.00" routeLength="960.47" waitingTime="0.00" waitingCount="0" stopTime="0.00" timeLoss="17.60" rerouteNo="0" devices="tripinfo_flow_route_93_duration_20250327_2110.2" vType="car" speedFactor="1.03" vaporized=""/>
    <tripinfo id="flow_route_102_duration_20250327_2110.1" depart="12.00" departLane="1342963997_0" departPos="43.34" departSpeed="0.00" departDelay="0.00" arrival="81.00" arrivalLane="380585336_1" arrivalPos="111.27" arrivalSpeed="16.10" duration="69.00" routeLength="778.88" waitingTime="0.00" waitingCount="0" stopTime="0.00" timeLoss="21.02" rerouteNo="0" devices="tripinfo_flow_route_102_duration_20250327_2110.1" vType="car" speedFactor="1.16" vaporized=""/>
    <tripinfo id="flow_route_93_duration_20250327_2110.5" depart="13.00" departLane="133000063_0" departPos="115.08" departSpeed="0.00" departDelay="2.29" arrival="82.00" arrivalLane="380585336_1" arrivalPos="54.51" arrivalSpeed="15.53" duration="69.00" routeLength="794.73" waitingTime="0.00" waitingCount="0" stopTime="0.00" timeLoss="18.16" rerouteNo="0" devices="tripinfo_flow_route_93_duration_20250327_2110.5" vType="car" speedFactor="0.94" vaporized=""/>
    <tripinfo id="flow_route_129_duration_20250327_2110.0" depart="0.00" departLane="134133272_0" departPos="105.80" departSpeed="0.00" departDelay="0.00" arrival="84.00" arrivalLane="683079387#1_0" arrivalPos="7.59" arrivalSpeed="16.56" duration="84.00" routeLength="945.90" waitingTime="1.00" waitingCount="1" stopTime="0.00" timeLoss="25.83" rerouteNo="0" devices="tripinfo_flow_route_129_duration_20250327_2110.0" vType="car" speedFactor="1.05" vaporized=""/>
    <tripinfo id="flow_route_129_duration_20250327_2110.1" depart="30.00" departLane="134133272_0" departPos="349.51" departSpeed="0.00" departDelay="0.00" arrival="84.00" arrivalLane="683079387#1_1" arrivalPos="4.34" arrivalSpeed="16.27" duration="54.00" routeLength="698.94" waitingTime="0.00" waitingCount="0" stopTime="0.00" timeLoss="11.04" rerouteNo="0" devices="tripinfo_flow_route_129_duration_20250327_2110.1" vType="car" speedFactor="1.04" vaporized=""/>
    <tripinfo id="flow_route_144_duration_20250327_2110.1" depart="12.00" departLane="683079388#0_0" departPos="20.96" departSpeed="0.00" departDelay="0.00" arrival="88.00" arrivalLane="380585338#0_1" arrivalPos="38.75" arrivalSpeed="8.89" duration="76.00" routeLength="597.53" waitingTime="17.00" waitingCount="1" stopTime="0.00" timeLoss="39.90" rerouteNo="0" devices="tripinfo_flow_route_144_duration_20250327_2110.1" vType="car" speedFactor="1.02" vaporized=""/>
    <tripinfo id="flow_route_144_duration_20250327_2110.0" depart="0.00" departLane="683079388#0_0" departPos="1.56" departSpeed="0.00" departDelay="0.00" arrival="89.00" arrivalLane="380585338#0_0" arrivalPos="42.98" arrivalSpeed="9.22" duration="89.00" routeLength="621.16" waitingTime="26.00" waitingCount="1" stopTime="0.00" timeLoss="46.91" rerouteNo="0" devices="tripinfo_flow_route_144_duration_20250327_2110.0" vType="car" speedFactor="0.89" vaporized=""/>
    <tripinfo id="flow_route_93_duration_20250327_2110.1" depart="3.00" departLane="133000063_0" departPos="52.89" departSpeed="0.00" departDelay="0.86" arrival="89.00" arrivalLane="380585336_1" arrivalPos="19.47" arrivalSpeed="15.18" duration="86.00" routeLength="821.87" waitingTime="0.00" waitingCount="0" stopTime="0.00" timeLoss="35.75" rerouteNo="0" devices="tripinfo_flow_route_93_duration_20250327_2110.1" vType="car" speedFactor="1.09" vaporized=""/>
    <tripinfo id="flow_route_93_duration_20250327_2110.4" depart="11.00" departLane="133000063_0" departPos="21.60" departSpeed="0.00" departDelay="2.43" arrival="90.00" arrivalLane="380585336_1" arrivalPos="67.04" arrivalSpeed="15.23" duration="79.00" routeLength="900.74" waitingTime="0.00" waitingCount="0" stopTime="0.00" timeLoss="20.81" rerouteNo="0" devices="tripinfo_flow_route_93_duration_20250327_2110.4" vType="car" speedFactor="0.93" vaporized=""/>
    <tripinfo id="flow_route_144_duration_20250327_2110.2" depart="25.00" departLane="683079388#0_0" departPos="10.06" departSpeed="0.00" departDelay="1.00" arrival="93.00" arrivalLane="380585338#0_0" arrivalPos="61.10" arrivalSpeed="11.45" duration="68.00" routeLength="630.77" waitingTime="5.00" waitingCount="1" stopTime="0.00" timeLoss="29.60" rerouteNo="0" devices="tripinfo_flow_route_144_duration_20250327_2110.2" vType="car" speedFactor="1.02" vaporized=""/>
    <tripinfo id="flow_route_144_duration_20250327_2110.3" depart="36.00" departLane="683079388#0_0" departPos="9.60" departSpeed="0.00" departDelay="0.00" arrival="96.00" arrivalLane="380585338#0_1" arrivalPos="123.86" arrivalSpeed="13.95" duration="60.00" routeLength="694.01" waitingTime="0.00" waitingCount="0" stopTime="0.00" timeLoss="10.95" rerouteNo="0" devices="tripinfo_flow_route_144_duration_20250327_2110.3" vType="car" speedFactor="0.85" vaporized=""/>
    <tripinfo id="flow_route_93_duration_20250327_2110.3" depart="8.00" departLane="133000063_0" departPos="51.98" departSpeed="0.00" departDelay="1.57" arrival="100.00" arrivalLane="380585336_1" arrivalPos="167.10" arrivalSpeed="16.53" duration="92.00" routeLength="970.42" waitingTime="0.00" waitingCount="0" stopTime="0.00" timeLoss="33.12" rerouteNo="0" devices="tripinfo_flow_route_93_duration_20250327_2110.3" vType="car" speedFactor="1.12" vaporized=""/>
    <tripinfo id="flow_route_92_duration_20250327_2110.2" depart="8.00" departLane="133000063_0" departPos="5.58" departSpeed="0.00" departDelay="2.78" arrival="106.00" arrivalLane="186409193_0" arrivalPos="48.16" arrivalSpeed="15.84" duration="98.00" routeLength="434.43" waitingTime="36.00" waitingCount="1" stopTime="0.00" timeLoss="71.39" rerouteNo="0" devices="tripinfo_flow_route_92_duration_20250327_2110.2" vType="car" speedFactor="1.05" vaporized=""/>
    <tripinfo id="flow_route_144_duration_20250327_2110.4" depart="48.00" departLane="683079388#0_0" departPos="0.02" departSpeed="0.00" departDelay="0.00" arrival="106.00" arrivalLane="380585338#0_0" arrivalPos="138.57" arrivalSpeed="15.38" duration="58.00" routeLength="718.28" waitingTime="0.00" waitingCount="0" stopTime="0.00" timeLoss="11.22" rerouteNo="0" devices="tripinfo_flow_route_144_duration_20250327_2110.4" vType="car" speedFactor="0.94" vaporized=""/>
    <tripinfo id="flow_route_145_duration_20250327_2110.1" depart="20.00" departLane="683079388#0_0" departPos="8.10" departSpeed="0.00" departDelay="0.00" arrival="108.00" arrivalLane="380585336_0" arrivalPos="28.22" arrivalSpeed="9.50" duration="88.00" routeLength="644.36" waitingTime="26.00" waitingCount="1" stopTime="0.00" timeLoss="47.59" rerouteNo="0" devices="tripinfo_flow_route_145_duration_20250327_2110.1" vType="car" speedFactor="0.93" vaporized=""/>
    <tripinfo id="flow_route_92_duration_20250327_2110.6" depart="20.00" departLane="133000063_0" departPos="30.83" departSpeed="0.00" departDelay="4.35" arrival="111.00" arrivalLane="186409193_0" arrivalPos="28.78" arrivalSpeed="13.54" duration="91.00" routeLength="389.81" waitingTime="35.00" waitingCount="1" stopTime="0.00" timeLoss="61.94" rerouteNo="0" devices="tripinfo_flow_route_92_duration_20250327_2110.6" vType="car" speedFactor="0.83" vaporized=""/>
    <tripinfo id="flow_route_92_duration_20250327_2110.9" depart="37.00" departLane="133000063_0" departPos="67.29" departSpeed="0.00" departDelay="13.53" arrival="111.00" arrivalLane="186409193_0" arrivalPos="2.74" arrivalSpeed="12.27" duration="74.00" routeLength="327.31" waitingTime="21.00" waitingCount="1" stopTime="0.00" timeLoss="53.29" rerouteNo="0" devices="tripinfo_flow_route_92_duration_20250327_2110.9" vType="car" speedFactor="1.01" vaporized=""/>
    <tripinfo id="flow_route_102_duration_20250327_2110.3" depart="36.00" departLane="1342963997_0" departPos="158.37" departSpeed="0.00" departDelay="0.00" arrival="113.00" arrivalLane="380585336_1" arrivalPos="52.37" arrivalSpeed="14.40" duration="77.00" routeLength="604.95" waitingTime="8.00" waitingCount="2" stopTime="0.00" timeLoss="35.11" rerouteNo="0" devices="tripinfo_flow_route_102_duration_20250327_2110.3" vType="car" speedFactor="0.88" vaporized=""/>
    <tripinfo id="flow_route_92_duration_20250327_2110.8" depart="33.00" departLane="133000063_0" departPos="120.48" departSpeed="0.00" departDelay="12.14" arrival="114.00" arrivalLane="186409193_0" arrivalPos="19.81" arrivalSpeed="13.43" duration="81.00" routeLength="291.19" waitingTime="32.00" waitingCount="1" stopTime="0.00" timeLoss="62.64" rerouteNo="0" devices="tripinfo_flow_route_92_duration_20250327_2110.8" vType="car" speedFactor="1.18" vaporized=""/>
    <tripinfo id="flow_route_102_duration_20250327_2110.2" depart="24.00" departLane="1342963997_0" departPos="121.86" departSpeed="0.00" departDelay="0.00" arrival="116.00" arrivalLane="380585336_1" arrivalPos="304.17" arrivalSpeed="16.43" duration="92.00" routeLength="893.26" waitingTime="11.00" waitingCount="1" stopTime="0.00" timeLoss="37.43" rerouteNo="0" devices="tripinfo_flow_route_102_duration_20250327_2110.2" vType="car" speedFactor="0.99" vaporized=""/>
    <tripinfo id="flow_route_102_duration_20250327_2110.4" depart="48.00" departLane="1342963997_0" departPos="60.84" departSpeed="0.00" departDelay="0.00" arrival="118.00" arrivalLane="380585336_2" arrivalPos="145.72" arrivalSpeed="16.41" duration="70.00" routeLength="795.82" waitingTime="0.00" waitingCount="0" stopTime="0.00" timeLoss="21.35" rerouteNo="0" devices="tripinfo_flow_route_102_duration_20250327_2110.4" vType="car" speedFactor="0.99" vaporized=""/>
    <tripinfo id="flow_route_92_duration_20250327_2110.7" depart="27.00" departLane="133000063_0" departPos="71.85" departSpeed="0.00" departDelay="8.74" arrival="119.00" arrivalLane="186409193_0" arrivalPos="8.87" arrivalSpeed="12.01" duration="92.00" routeLength="328.88" waitingTime="25.00" waitingCount="2" stopTime="0.00" timeLoss="69.76" rerouteNo="0" devices="tripinfo_flow_route_92_duration_20250327_2110.7" vType="car" speedFactor="0.92" vaporized=""/>
    <tripinfo id="flow_route_91_duration_20250327_2110.2" depart="28.00" departLane="133000063_0" departPos="4.11" departSpeed="0.00" departDelay="8.00" arrival="123.00" arrivalLane="683079387#1_1" arrivalPos="5.58" arrivalSpeed="15.49" duration="95.00" routeLength="720.21" waitingTime="11.00" waitingCount="1" stopTime="0.00" timeLoss="49.14" rerouteNo="0" devices="tripinfo_flow_route_91_duration_20250327_2110.2" vType="car" speedFactor="0.95" vaporized=""/>
    <tripinfo id="flow_route_91_duration_20250327_2110.3" depart="57.00" departLane="133000063_0" departPos="26.41" departSpeed="0.00" departDelay="27.00" arrival="125.00" arrivalLane="683079387#1_1" arrivalPos="6.38" arrivalSpeed="16.18" duration="68.00" routeLength="698.70" waitingTime="1.00" waitingCount="1" stopTime="0.00" timeLoss="25.59" rerouteNo="0" devices="tripinfo_flow_route_91_duration_20250327_2110.3" vType="car" speedFactor="1.03" vaporized=""/>
    <tripinfo id="flow_route_92_duration_20250327_2110.12" depart="61.00" departLane="133000063_0" departPos="99.82" departSpeed="0.00" departDelay="29.70" arrival="126.00" arrivalLane="186409193_0" arrivalPos="17.31" arrivalSpeed="13.64" duration="65.00" routeLength="309.35" waitingTime="5.00" waitingCount="1" stopTime="0.00" timeLoss="45.03" rerouteNo="0" devices="tripinfo_flow_route_92_duration_20250327_2110.12" vType="car" speedFactor="1.04" vaporized=""/>
    <tripinfo id="flow_route_92_duration_20250327_2110.10" depart="47.00" departLane="133000063_0" departPos="83.14" departSpeed="0.00" departDelay="20.92" arrival="129.00" arrivalLane="186409193_0" arrivalPos="34.18" arrivalSpeed="13.60" duration="82.00" routeLength="342.90" waitingTime="14.00" waitingCount="2" stopTime="0.00" timeLoss="60.97" rerouteNo="0" devices="tripinfo_flow_route_92_duration_20250327_2110.10" vType="car" speedFactor="1.18" vaporized=""/>
    <tripinfo id="flow_route_92_duration_20250327_2110.11" depart="57.00" departLane="133000063_0" departPos="35.74" departSpeed="0.00" departDelay="28.31" arrival="133.00" arrivalLane="186409193_0" arrivalPos="6.12" arrivalSpeed="12.69" duration="76.00" routeLength="362.24" waitingTime="0.00" waitingCount="0" stopTime="0.00" timeLoss="51.31" rerouteNo="0" devices="tripinfo_flow_route_92_duration_20250327_2110.11" vType="car" speedFactor="0.90" vaporized=""/>
    <tripinfo id="flow_route_91_duration_20250327_2110.4" depart="77.00" departLane="133000063_0" departPos="5.96" departSpeed="0.00" departDelay="37.00" arrival="133.00" arrivalLane="683079387#1_1" arrivalPos="3.52" arrivalSpeed="16.11" duration="56.00" routeLength="716.28" waitingTime="0.00" waitingCount="0" stopTime="0.00" timeLoss="12.04" rerouteNo="0" devices="tripinfo_flow_route_91_duration_20250327_2110.4" vType="car" speedFactor="1.10" vaporized=""/>
    <tripinfo id="flow_route_92_duration_20250327_2110.15" depart="81.00" departLane="133000063_0" departPos="78.49" departSpeed="0.00" departDelay="41.88" arrival="133.00" arrivalLane="186409193_0" arrivalPos="38.75" arrivalSpeed="14.76" duration="52.00" routeLength="352.12" waitingTime="0.00" waitingCount="0" stopTime="0.00" timeLoss="30.10" rerouteNo="0" devices="tripinfo_flow_route_92_duration_20250327_2110.15" vType="car" speedFactor="1.00" vaporized=""/>
    <tripinfo id="flow_route_145_duration_20250327_2110.2" depart="40.00" departLane="683079388#0_0" departPos="7.16" departSpeed="0.00" departDelay="0.00" arrival="133.00" arrivalLane="380585336_0" arrivalPos="181.55" arrivalSpeed="16.50" duration="93.00" routeLength="798.63" waitingTime="13.00" waitingCount="2" stopTime="0.00" timeLoss="44.06" rerouteNo="0" devices="tripinfo_flow_route_145_duration_20250327_2110.2" vType="car" speedFactor="1.00" vaporized=""/>
    <tripinfo id="flow_route_92_duration_20250327_2110.13" depart="63.00" departLane="133000063_0" departPos="16.83" departSpeed="0.00" departDelay="29.10" arrival="138.00" arrivalLane="186409193_0" arrivalPos="27.24" arrivalSpeed="14.90" duration="75.00" routeLength="402.27" waitingTime="0.00" waitingCount="0" stopTime="0.00" timeLoss="50.05" rerouteNo="0" devices="tripinfo_flow_route_92_duration_20250327_2110.13" vType="car" speedFactor="1.00" vaporized=""/>
    <tripinfo id="flow_route_92_duration_20250327_2110.14" depart="73.00" departLane="133000063_0" departPos="38.00" departSpeed="0.00" departDelay="36.49" arrival="141.00" arrivalLane="186409193_0" arrivalPos="28.04" arrivalSpeed="14.01" duration="68.00" routeLength="381.90" waitingTime="0.00" waitingCount="0" stopTime="0.00" timeLoss="40.45" rerouteNo="0" devices="tripinfo_flow_route_92_duration_20250327_2110.14" vType="car" speedFactor="0.85" vaporized=""/>
    <tripinfo id="flow_route_93_duration_20250327_2110.8" depart="24.00" departLane="133000063_0" departPos="49.96" departSpeed="0.00" departDelay="6.86" arrival="144.00" arrivalLane="380585336_1" arrivalPos="77.26" arrivalSpeed="14.17" duration="120.00" routeLength="882.59" waitingTime="14.00" waitingCount="3" stopTime="0.00" timeLoss="59.92" rerouteNo="0" devices="tripinfo_flow_route_93_duration_20250327_2110.8" vType="car" speedFactor="0.87" vaporized=""/>
    <tripinfo id="flow_route_93_duration_20250327_2110.10" depart="35.00" departLane="133000063_0" departPos="48.44" departSpeed="0.00" departDelay="13.58" arrival="145.00" arrivalLane="380585336_1" arrivalPos="238.97" arrivalSpeed="16.57" duration="110.00" routeLength="1045.83" waitingTime="21.00" waitingCount="1" stopTime="0.00" timeLoss="46.04" rerouteNo="0" devices="tripinfo_flow_route_93_duration_20250327_2110.10" vType="car" speedFactor="1.15" vaporized=""/>
    <tripinfo id="flow_route_93_duration_20250327_2110.11" depart="39.00" departLane="133000063_0" departPos="26.45" departSpeed="0.00" departDelay="15.44" arrival="160.00" arrivalLane="380585336_1" arrivalPos="33.71" arrivalSpeed="16.18" duration="121.00" routeLength="862.55" waitingTime="5.00" waitingCount="1" stopTime="0.00" timeLoss="68.24" rerouteNo="0" devices="tripinfo_flow_route_93_duration_20250327_2110.11" vType="car" speedFactor="1.17" vaporized=""/>
    <tripinfo id="flow_route_93_duration_20250327_2110.15" depart="61.00" departLane="133000063_0" departPos="22.30" departSpeed="0.00" departDelay="28.87" arrival="162.00" arrivalLane="380585336_2" arrivalPos="144.47" arrivalSpeed="16.11" duration="101.00" routeLength="977.46" waitingTime="0.00" waitingCount="0" stopTime="0.00" timeLoss="42.10" rerouteNo="0" devices="tripinfo_flow_route_93_duration_20250327_2110.15" vType="car" speedFactor="1.09" vaporized=""/>
    <tripinfo id="flow_route_93_duration_20250327_2110.9" depart="31.00" departLane="133000063_0" departPos="98.81" departSpeed="0.00" departDelay="11.72" arrival="163.00" arrivalLane="380585336_1" arrivalPos="391.07" arrivalSpeed="16.20" duration="132.00" routeLength="1147.55" waitingTime="20.00" waitingCount="2" stopTime="0.00" timeLoss="62.15" rerouteNo="0" devices="tripinfo_flow_route_93_duration_20250327_2110.9" vType="car" speedFactor="1.13" vaporized=""/>
    <tripinfo id="flow_route_93_duration_20250327_2110.12" depart="46.00" departLane="133000063_0" departPos="2.52" departSpeed="0.00" departDelay="20.30" arrival="164.00" arrivalLane="380585336_2" arrivalPos="216.08" arrivalSpeed="16.00" duration="118.00" routeLength="1068.85" waitingTime="1.00" waitingCount="1" stopTime="0.00" timeLoss="51.60" rerouteNo="0" devices="tripinfo_flow_route_93_duration_20250327_2110.12" vType="car" speedFactor="0.97" vaporized=""/>
    <tripinfo id="flow_route_93_duration_20250327_2110.14" depart="57.00" departLane="133000063_0" departPos="76.91" departSpeed="0.00" departDelay="27.01" arrival="167.00" arrivalLane="380585336_0" arrivalPos="389.72" arrivalSpeed="15.69" duration="110.00" routeLength="1168.10" waitingTime="2.00" waitingCount="1" stopTime="0.00" timeLoss="36.24" rerouteNo="0" devices="tripinfo_flow_route_93_duration_20250327_2110.14" vType="car" speedFactor="0.96" vaporized=""/>
    <tripinfo id="flow_route_93_duration_20250327_2110.17" depart="74.00" departLane="133000063_0" departPos="97.93" departSpeed="0.00" departDelay="37.59" arrival="168.00" arrivalLane="380585336_1" arrivalPos="17.95" arrivalSpeed="16.37" duration="94.00" routeLength="775.30" waitingTime="0.00" waitingCount="0" stopTime="0.00" timeLoss="47.20" rerouteNo="0" devices="tripinfo_flow_route_93_duration_20250327_2110.17" vType="car" speedFactor="1.17" vaporized=""/>
    <tripinfo id="flow_route_93_duration_20250327_2110.16" depart="70.00" departLane="133000063_0" departPos="80.23" departSpeed="0.00" departDelay="35.73" arrival="175.00" arrivalLane="380585336_0" arrivalPos="329.08" arrivalSpeed="14.66" duration="105.00" routeLength="1104.14" waitingTime="0.00" waitingCount="0" stopTime="0.00" timeLoss="31.54" rerouteNo="0" devices="tripinfo_flow_route_93_duration_20250327_2110.16" vType="car" speedFactor="0.90" vaporized=""/>
    <tripinfo id="flow_route_93_duration_20250327_2110.7" depart="19.00" departLane="133000063_0" departPos="4.79" departSpeed="0.00" departDelay="4.01" arrival="177.00" arrivalLane="380585336_0" arrivalPos="393.99" arrivalSpeed="14.51" duration="158.00" routeLength="1244.49" waitingTime="14.00" waitingCount="2" stopTime="0.00" timeLoss="73.84" rerouteNo="0" devices="tripinfo_flow_route_93_duration_20250327_2110.7" vType="car" speedFactor="0.89" vaporized=""/>
    <tripinfo id="flow_route_92_duration_20250327_2110.19" depart="106.00" departLane="133000063_0" departPos="99.13" departSpeed="0.00" departDelay="56.45" arrival="178.00" arrivalLane="186409193_0" arrivalPos="0.68" arrivalSpeed="12.94" duration="72.00" routeLength="293.42" waitingTime="31.00" waitingCount="1" stopTime="0.00" timeLoss="51.75" rerouteNo="0" devices="tripinfo_flow_route_92_duration_20250327_2110.19" vType="car" speedFactor="0.91" vaporized=""/>
    <tripinfo id="flow_route_93_duration_20250327_2110.21" depart="92.00" departLane="133000063_0" departPos="93.99" departSpeed="0.00" departDelay="47.02" arrival="184.00" arrivalLane="380585336_0" arrivalPos="398.09" arrivalSpeed="16.20" duration="92.00" routeLength="1159.39" waitingTime="0.00" waitingCount="0" stopTime="0.00" timeLoss="21.27" rerouteNo="0" devices="tripinfo_flow_route_93_duration_20250327_2110.21" vType="car" speedFactor="1.08" vaporized=""/>
    <tripinfo id="flow_route_93_duration_20250327_2110.13" depart="51.00" departLane="133000063_0" departPos="70.94" departSpeed="0.00" departDelay="23.15" arrival="186.00" arrivalLane="380585336_0" arrivalPos="411.59" arrivalSpeed="16.11" duration="135.00" routeLength="1195.95" waitingTime="10.00" waitingCount="1" stopTime="0.00" timeLoss="62.70" rerouteNo="0" devices="tripinfo_flow_route_93_duration_20250327_2110.13" vType="car" speedFactor="1.10" vaporized=""/>
    <tripinfo id="flow_route_92_duration_20250327_2110.16" depart="87.00" departLane="133000063_0" departPos="32.83" departSpeed="0.00" departDelay="45.27" arrival="194.00" arrivalLane="186409193_0" arrivalPos="34.62" arrivalSpeed="14.39" duration="107.00" routeLength="393.66" waitingTime="37.00" waitingCount="1" stopTime="0.00" timeLoss="82.64" rerouteNo="0" devices="tripinfo_flow_route_92_duration_20250327_2110.16" vType="car" speedFactor="1.14" vaporized=""/>
    <tripinfo id="flow_route_92_duration_20250327_2110.18" depart="97.00" departLane="133000063_0" departPos="32.38" departSpeed="0.00" departDelay="50.06" arrival="198.00" arrivalLane="186409193_0" arrivalPos="51.83" arrivalSpeed="14.41" duration="101.00" routeLength="411.31" waitingTime="22.00" waitingCount="2" stopTime="0.00" timeLoss="75.80" rerouteNo="0" devices="tripinfo_flow_route_92_duration_20250327_2110.18" vType="car" speedFactor="1.12" vaporized=""/>
    <tripinfo id="flow_route_91_duration_20250327_2110.5" depart="105.00" departLane="133000063_0" departPos="2.29" departSpeed="0.00" departDelay="55.00" arrival="198.00" arrivalLane="683079387#1_0" arrivalPos="9.38" arrivalSpeed="14.44" duration="93.00" routeLength="725.82" waitingTime="23.00" waitingCount="1" stopTime="0.00" timeLoss="43.44" rerouteNo="0" devices="tripinfo_flow_route_91_duration_20250327_2110.5" vType="car" speedFactor="0.88" vaporized=""/>