<?xml version="1.0" encoding="UTF-8"?>

<!-- generated on 2025-05-06 21:09:08 by Eclipse SUMO sumo Version 1.20.0
<configuration xmlns:xsi="http://www.w3.org/2001/XMLSchema-instance" xsi:noNamespaceSchemaLocation="http://sumo.dlr.de/xsd/sumoConfiguration.xsd">

    <input>
        <net-file value="osm.net.xml"/>
        <route-files value="xml/route_static_cluster_11648745684_256036885_3839031483_8.rou.xml"/>
    </input>

    <output>
        <tripinfo-output value="xml/tripinfo_static_cluster_11648745684_256036885_3839031483_8.xml"/>
    </output>

    <traci_server>
        <remote-port value="60505"/>
    </traci_server>

</configuration>
-->

<tripinfos xmlns:xsi="http://www.w3.org/2001/XMLSchema-instance" xsi:noNamespaceSchemaLocation="http://sumo.dlr.de/xsd/tripinfo_file.xsd">
    <tripinfo id="flow_route_72_duration_20250327_2050.0" depart="0.00" departLane="1369578052#0_0" departPos="161.40" departSpeed="0.00" departDelay="0.00" arrival="15.00" arrivalLane="133342692#0_0" arrivalPos="42.43" arrivalSpeed="11.65" duration="15.00" routeLength="81.12" waitingTime="0.00" waitingCount="0" stopTime="0.00" timeLoss="8.08" rerouteNo="0" devices="tripinfo_flow_route_72_duration_20250327_2050.0" vType="car" speedFactor="0.89" vaporized=""/>
    <tripinfo id="flow_route_68_duration_20250327_2050.0" depart="0.00" departLane="1253209803#0_0" departPos="143.52" departSpeed="0.00" departDelay="0.00" arrival="29.00" arrivalLane="-138002002#2_1" arrivalPos="90.53" arrivalSpeed="16.38" duration="29.00" routeLength="298.33" waitingTime="0.00" waitingCount="0" stopTime="0.00" timeLoss="11.03" rerouteNo="0" devices="tripinfo_flow_route_68_duration_20250327_2050.0" vType="car" speedFactor="1.08" vaporized=""/>
    <tripinfo id="flow_route_70_duration_20250327_2050.0" depart="0.00" departLane="1253209803#0_0" departPos="83.97" departSpeed="0.00" departDelay="0.00" arrival="32.00" arrivalLane="133342692#0_2" arrivalPos="7.48" arrivalSpeed="9.61" duration="32.00" routeLength="271.18" waitingTime="0.00" waitingCount="0" stopTime="0.00" timeLoss="13.72" rerouteNo="0" devices="tripinfo_flow_route_70_duration_20250327_2050.0" vType="car" speedFactor="0.83" vaporized=""/>
    <tripinfo id="flow_route_68_duration_20250327_2050.1" depart="10.00" departLane="1253209803#0_0" departPos="212.10" departSpeed="0.00" departDelay="0.00" arrival="32.00" arrivalLane="-138002002#2_0" arrivalPos="30.94" arrivalSpeed="16.35" duration="22.00" routeLength="170.16" waitingTime="0.00" waitingCount="0" stopTime="0.00" timeLoss="10.81" rerouteNo="0" devices="tripinfo_flow_route_68_duration_20250327_2050.1" vType="car" speedFactor="1.16" vaporized=""/>
    <tripinfo id="flow_route_69_duration_20250327_2050.0" depart="0.00" departLane="1253209803#0_0" departPos="179.76" departSpeed="0.00" departDelay="0.00" arrival="34.00" arrivalLane="380585337#0_0" arrivalPos="14.31" arrivalSpeed="16.34" duration="34.00" routeLength="299.43" waitingTime="0.00" waitingCount="0" stopTime="0.00" timeLoss="14.42" rerouteNo="0" devices="tripinfo_flow_route_69_duration_20250327_2050.0" vType="car" speedFactor="1.03" vaporized=""/>
    <tripinfo id="flow_route_63_duration_20250327_2050.1" depart="14.00" departLane="133131666#1_0" departPos="4.07" departSpeed="0.00" departDelay="5.43" arrival="38.00" arrivalLane="133342692#0_1" arrivalPos="21.50" arrivalSpeed="14.14" duration="24.00" routeLength="201.15" waitingTime="0.00" waitingCount="0" stopTime="0.00" timeLoss="10.20" rerouteNo="0" devices="tripinfo_flow_route_63_duration_20250327_2050.1" vType="car" speedFactor="0.88" vaporized=""/>
    <tripinfo id="flow_route_65_duration_20250327_2050.0" depart="6.00" departLane="133131666#1_0" departPos="5.26" departSpeed="0.00" departDelay="6.00" arrival="41.00" arrivalLane="138002016#0_2" arrivalPos="14.48" arrivalSpeed="8.02" duration="35.00" routeLength="193.68" waitingTime="1.00" waitingCount="1" stopTime="0.00" timeLoss="22.25" rerouteNo="0" devices="tripinfo_flow_route_65_duration_20250327_2050.0" vType="car" speedFactor="1.01" vaporized=""/>
    <tripinfo id="flow_route_64_duration_20250327_2050.2" depart="10.00" departLane="133131666#1_0" departPos="18.02" departSpeed="0.00" departDelay="2.94" arrival="45.00" arrivalLane="-138002002#2_0" arrivalPos="29.31" arrivalSpeed="8.58" duration="35.00" routeLength="176.84" waitingTime="4.00" waitingCount="1" stopTime="0.00" timeLoss="23.19" rerouteNo="0" devices="tripinfo_flow_route_64_duration_20250327_2050.2" vType="car" speedFactor="1.12" vaporized=""/>
    <tripinfo id="flow_route_64_duration_20250327_2050.4" depart="25.00" departLane="133131666#1_0" departPos="21.57" departSpeed="0.00" departDelay="10.88" arrival="51.00" arrivalLane="-138002002#2_0" arrivalPos="27.97" arrivalSpeed="8.31" duration="26.00" routeLength="171.95" waitingTime="0.00" waitingCount="0" stopTime="0.00" timeLoss="12.19" rerouteNo="0" devices="tripinfo_flow_route_64_duration_20250327_2050.4" vType="car" speedFactor="0.83" vaporized=""/>
    <tripinfo id="flow_route_63_duration_20250327_2050.0" depart="0.00" departLane="133131666#1_0" departPos="14.94" departSpeed="0.00" departDelay="0.00" arrival="52.00" arrivalLane="133342692#0_0" arrivalPos="152.76" arrivalSpeed="16.41" duration="52.00" routeLength="321.54" waitingTime="10.00" waitingCount="1" stopTime="0.00" timeLoss="32.10" rerouteNo="0" devices="tripinfo_flow_route_63_duration_20250327_2050.0" vType="car" speedFactor="1.06" vaporized=""/>
    <tripinfo id="flow_route_64_duration_20250327_2050.0" depart="2.00" departLane="133131666#1_0" departPos="6.82" departSpeed="0.00" departDelay="2.00" arrival="52.00" arrivalLane="-138002002#2_0" arrivalPos="131.25" arrivalSpeed="14.39" duration="50.00" routeLength="289.98" waitingTime="8.00" waitingCount="1" stopTime="0.00" timeLoss="30.05" rerouteNo="0" devices="tripinfo_flow_route_64_duration_20250327_2050.0" vType="car" speedFactor="0.94" vaporized=""/>
    <tripinfo id="flow_route_63_duration_20250327_2050.2" depart="30.00" departLane="133131666#1_0" departPos="3.41" departSpeed="0.00" departDelay="12.86" arrival="53.00" arrivalLane="133342692#0_1" arrivalPos="35.52" arrivalSpeed="16.36" duration="23.00" routeLength="215.83" waitingTime="0.00" waitingCount="0" stopTime="0.00" timeLoss="9.39" rerouteNo="0" devices="tripinfo_flow_route_63_duration_20250327_2050.2" vType="car" speedFactor="1.13" vaporized=""/>
    <tripinfo id="flow_route_65_duration_20250327_2050.1" depart="21.00" departLane="133131666#1_0" departPos="11.38" departSpeed="0.00" departDelay="12.43" arrival="55.00" arrivalLane="138002016#0_2" arrivalPos="130.95" arrivalSpeed="15.36" duration="34.00" routeLength="304.03" waitingTime="0.00" waitingCount="0" stopTime="0.00" timeLoss="13.96" rerouteNo="0" devices="tripinfo_flow_route_65_duration_20250327_2050.1" vType="car" speedFactor="0.94" vaporized=""/>
    <tripinfo id="flow_route_64_duration_20250327_2050.1" depart="10.00" departLane="133131666#1_0" departPos="5.36" departSpeed="0.00" departDelay="6.47" arrival="57.00" arrivalLane="-138002002#2_0" arrivalPos="151.85" arrivalSpeed="16.10" duration="47.00" routeLength="312.04" waitingTime="2.00" waitingCount="1" stopTime="0.00" timeLoss="26.70" rerouteNo="0" devices="tripinfo_flow_route_64_duration_20250327_2050.1" vType="car" speedFactor="1.03" vaporized=""/>
    <tripinfo id="flow_route_64_duration_20250327_2050.3" depart="23.00" departLane="133131666#1_0" departPos="2.32" departSpeed="0.00" departDelay="12.41" arrival="61.00" arrivalLane="-138002002#2_0" arrivalPos="109.83" arrivalSpeed="13.82" duration="38.00" routeLength="273.06" waitingTime="0.00" waitingCount="0" stopTime="0.00" timeLoss="19.92" rerouteNo="0" devices="tripinfo_flow_route_64_duration_20250327_2050.3" vType="car" speedFactor="1.01" vaporized=""/>
    <tripinfo id="flow_route_65_duration_20250327_2050.2" depart="38.00" departLane="133131666#1_0" departPos="20.39" departSpeed="0.00" departDelay="20.86" arrival="62.00" arrivalLane="138002016#0_2" arrivalPos="14.91" arrivalSpeed="12.33" duration="24.00" routeLength="178.98" waitingTime="0.00" waitingCount="0" stopTime="0.00" timeLoss="12.55" rerouteNo="0" devices="tripinfo_flow_route_65_duration_20250327_2050.2" vType="car" speedFactor="1.18" vaporized=""/>
    <tripinfo id="flow_route_64_duration_20250327_2050.5" depart="35.00" departLane="133131666#1_0" departPos="0.32" departSpeed="0.00" departDelay="17.36" arrival="66.00" arrivalLane="-138002002#2_0" arrivalPos="33.28" arrivalSpeed="9.70" duration="31.00" routeLength="198.51" waitingTime="0.00" waitingCount="0" stopTime="0.00" timeLoss="17.00" rerouteNo="0" devices="tripinfo_flow_route_64_duration_20250327_2050.5" vType="car" speedFactor="0.93" vaporized=""/>
    <tripinfo id="flow_route_75_duration_20250327_2050.0" depart="0.00" departLane="380593307#0_0" departPos="8.02" departSpeed="0.00" departDelay="0.00" arrival="75.00" arrivalLane="-138002002#2_1" arrivalPos="1.11" arrivalSpeed="6.29" duration="75.00" routeLength="196.85" waitingTime="44.00" waitingCount="1" stopTime="0.00" timeLoss="62.58" rerouteNo="0" devices="tripinfo_flow_route_75_duration_20250327_2050.0" vType="car" speedFactor="1.09" vaporized=""/>
    <tripinfo id="flow_route_64_duration_20250327_2050.6" depart="42.00" departLane="133131666#1_0" departPos="7.18" departSpeed="0.00" departDelay="20.83" arrival="75.00" arrivalLane="-138002002#2_0" arrivalPos="107.77" arrivalSpeed="14.62" duration="33.00" routeLength="266.14" waitingTime="0.00" waitingCount="0" stopTime="0.00" timeLoss="15.74" rerouteNo="0" devices="tripinfo_flow_route_64_duration_20250327_2050.6" vType="car" speedFactor="0.99" vaporized=""/>
    <tripinfo id="flow_route_75_duration_20250327_2050.1" depart="8.00" departLane="380593307#0_0" departPos="22.46" departSpeed="0.00" departDelay="0.50" arrival="78.00" arrivalLane="-138002002#2_1" arrivalPos="5.49" arrivalSpeed="8.45" duration="70.00" routeLength="186.79" waitingTime="39.00" waitingCount="1" stopTime="0.00" timeLoss="56.89" rerouteNo="0" devices="tripinfo_flow_route_75_duration_20250327_2050.1" vType="car" speedFactor="0.93" vaporized=""/>
    <tripinfo id="flow_route_74_duration_20250327_2050.2" depart="18.00" departLane="380593307#0_0" departPos="61.08" departSpeed="0.00" departDelay="0.86" arrival="85.00" arrivalLane="138002016#0_0" arrivalPos="25.47" arrivalSpeed="8.44" duration="67.00" routeLength="147.07" waitingTime="35.00" waitingCount="1" stopTime="0.00" timeLoss="57.21" rerouteNo="0" devices="tripinfo_flow_route_74_duration_20250327_2050.2" vType="car" speedFactor="1.15" vaporized=""/>
    <tripinfo id="flow_route_75_duration_20250327_2050.2" depart="15.00" departLane="380593307#0_0" departPos="11.63" departSpeed="0.00" departDelay="0.00" arrival="86.00" arrivalLane="-138002002#2_1" arrivalPos="51.37" arrivalSpeed="11.67" duration="71.00" routeLength="243.50" waitingTime="32.00" waitingCount="1" stopTime="0.00" timeLoss="53.71" rerouteNo="0" devices="tripinfo_flow_route_75_duration_20250327_2050.2" vType="car" speedFactor="0.92" vaporized=""/>
    <tripinfo id="flow_route_73_duration_20250327_2050.0" depart="0.00" departLane="380593307#0_0" departPos="55.90" departSpeed="0.00" departDelay="0.00" arrival="88.00" arrivalLane="380585337#0_1" arrivalPos="13.23" arrivalSpeed="15.40" duration="88.00" routeLength="294.01" waitingTime="48.00" waitingCount="1" stopTime="0.00" timeLoss="68.41" rerouteNo="0" devices="tripinfo_flow_route_73_duration_20250327_2050.0" vType="car" speedFactor="0.94" vaporized=""/>
    <tripinfo id="flow_route_73_duration_20250327_2050.1" depart="6.00" departLane="380593307#0_0" departPos="52.39" departSpeed="0.00" departDelay="0.55" arrival="90.00" arrivalLane="380585337#0_1" arrivalPos="13.21" arrivalSpeed="16.45" duration="84.00" routeLength="297.50" waitingTime="41.00" waitingCount="1" stopTime="0.00" timeLoss="65.23" rerouteNo="0" devices="tripinfo_flow_route_73_duration_20250327_2050.1" vType="car" speedFactor="1.05" vaporized=""/>
    <tripinfo id="flow_route_73_duration_20250327_2050.2" depart="12.00" departLane="380593307#0_0" departPos="100.71" departSpeed="0.00" departDelay="1.09" arrival="90.00" arrivalLane="380585337#0_0" arrivalPos="16.78" arrivalSpeed="15.92" duration="78.00" routeLength="252.75" waitingTime="41.00" waitingCount="1" stopTime="0.00" timeLoss="61.84" rerouteNo="0" devices="tripinfo_flow_route_73_duration_20250327_2050.2" vType="car" speedFactor="0.97" vaporized=""/>
    <tripinfo id="flow_route_73_duration_20250327_2050.3" depart="17.00" departLane="380593307#0_0" departPos="98.46" departSpeed="0.00" departDelay="0.64" arrival="91.00" arrivalLane="380585337#0_0" arrivalPos="7.61" arrivalSpeed="15.59" duration="74.00" routeLength="245.83" waitingTime="38.00" waitingCount="1" stopTime="0.00" timeLoss="58.19" rerouteNo="0" devices="tripinfo_flow_route_73_duration_20250327_2050.3" vType="car" speedFactor="0.95" vaporized=""/>
    <tripinfo id="flow_route_73_duration_20250327_2050.4" depart="25.00" departLane="380593307#0_0" departPos="71.37" departSpeed="0.00" departDelay="3.18" arrival="91.00" arrivalLane="380585337#0_1" arrivalPos="10.12" arrivalSpeed="16.56" duration="66.00" routeLength="275.43" waitingTime="28.00" waitingCount="1" stopTime="0.00" timeLoss="49.10" rerouteNo="0" devices="tripinfo_flow_route_73_duration_20250327_2050.4" vType="car" speedFactor="1.02" vaporized=""/>
    <tripinfo id="flow_route_75_duration_20250327_2050.3" depart="25.00" departLane="380593307#0_0" departPos="59.53" departSpeed="0.00" departDelay="2.50" arrival="91.00" arrivalLane="-138002002#2_1" arrivalPos="55.77" arrivalSpeed="12.52" duration="66.00" routeLength="200.00" waitingTime="25.00" waitingCount="1" stopTime="0.00" timeLoss="52.98" rerouteNo="0" devices="tripinfo_flow_route_75_duration_20250327_2050.3" vType="car" speedFactor="1.18" vaporized=""/>
    <tripinfo id="flow_route_74_duration_20250327_2050.0" depart="0.00" departLane="380593307#0_0" departPos="118.68" departSpeed="0.00" departDelay="0.00" arrival="93.00" arrivalLane="138002016#0_0" arrivalPos="237.21" arrivalSpeed="14.25" duration="93.00" routeLength="301.22" waitingTime="52.00" waitingCount="1" stopTime="0.00" timeLoss="70.88" rerouteNo="0" devices="tripinfo_flow_route_74_duration_20250327_2050.0" vType="car" speedFactor="0.86" vaporized=""/>
    <tripinfo id="flow_route_73_duration_20250327_2050.6" depart="34.00" departLane="380593307#0_0" departPos="111.31" departSpeed="0.00" departDelay="1.28" arrival="93.00" arrivalLane="380585337#0_1" arrivalPos="14.38" arrivalSpeed="13.76" duration="59.00" routeLength="239.75" waitingTime="24.00" waitingCount="1" stopTime="0.00" timeLoss="42.16" rerouteNo="0" devices="tripinfo_flow_route_73_duration_20250327_2050.6" vType="car" speedFactor="0.85" vaporized=""/>
    <tripinfo id="flow_route_75_duration_20250327_2050.6" depart="49.00" departLane="380593307#0_0" departPos="6.01" departSpeed="0.00" departDelay="4.00" arrival="93.00" arrivalLane="-138002002#2_1" arrivalPos="35.98" arrivalSpeed="11.89" duration="44.00" routeLength="233.73" waitingTime="5.00" waitingCount="1" stopTime="0.00" timeLoss="29.06" rerouteNo="0" devices="tripinfo_flow_route_75_duration_20250327_2050.6" vType="car" speedFactor="1.04" vaporized=""/>
    <tripinfo id="flow_route_73_duration_20250327_2050.5" depart="29.00" departLane="380593307#0_0" departPos="7.39" departSpeed="0.00" departDelay="1.73" arrival="94.00" arrivalLane="380585337#0_1" arrivalPos="3.02" arrivalSpeed="16.26" duration="65.00" routeLength="332.30" waitingTime="19.00" waitingCount="1" stopTime="0.00" timeLoss="44.84" rerouteNo="0" devices="tripinfo_flow_route_73_duration_20250327_2050.5" vType="car" speedFactor="1.04" vaporized=""/>
    <tripinfo id="flow_route_75_duration_20250327_2050.4" depart="30.00" departLane="380593307#0_0" departPos="102.27" departSpeed="0.00" departDelay="0.00" arrival="96.00" arrivalLane="-138002002#2_1" arrivalPos="155.75" arrivalSpeed="14.61" duration="66.00" routeLength="257.23" waitingTime="26.00" waitingCount="1" stopTime="0.00" timeLoss="47.24" rerouteNo="0" devices="tripinfo_flow_route_75_duration_20250327_2050.4" vType="car" speedFactor="0.88" vaporized=""/>
    <tripinfo id="flow_route_74_duration_20250327_2050.5" depart="44.00" departLane="380593307#0_0" departPos="16.96" departSpeed="0.00" departDelay="1.15" arrival="96.00" arrivalLane="138002016#0_0" arrivalPos="50.18" arrivalSpeed="10.16" duration="52.00" routeLength="215.90" waitingTime="12.00" waitingCount="1" stopTime="0.00" timeLoss="35.98" rerouteNo="0" devices="tripinfo_flow_route_74_duration_20250327_2050.5" vType="car" speedFactor="0.88" vaporized=""/>
    <tripinfo id="flow_route_75_duration_20250327_2050.5" depart="41.00" departLane="380593307#0_0" departPos="36.03" departSpeed="0.00" departDelay="3.50" arrival="97.00" arrivalLane="-138002002#2_1" arrivalPos="121.33" arrivalSpeed="16.04" duration="56.00" routeLength="289.06" waitingTime="12.00" waitingCount="1" stopTime="0.00" timeLoss="38.20" rerouteNo="0" devices="tripinfo_flow_route_75_duration_20250327_2050.5" vType="car" speedFactor="1.14" vaporized=""/>
    <tripinfo id="flow_route_75_duration_20250327_2050.7" depart="58.00" departLane="380593307#0_0" departPos="2.31" departSpeed="0.00" departDelay="5.50" arrival="97.00" arrivalLane="-138002002#2_1" arrivalPos="42.43" arrivalSpeed="12.29" duration="39.00" routeLength="243.88" waitingTime="0.00" waitingCount="0" stopTime="0.00" timeLoss="23.36" rerouteNo="0" devices="tripinfo_flow_route_75_duration_20250327_2050.7" vType="car" speedFactor="1.03" vaporized=""/>
    <tripinfo id="flow_route_73_duration_20250327_2050.7" depart="41.00" departLane="380593307#0_0" departPos="26.62" departSpeed="0.00" departDelay="2.82" arrival="98.00" arrivalLane="380585337#0_1" arrivalPos="20.65" arrivalSpeed="15.72" duration="57.00" routeLength="330.71" waitingTime="12.00" waitingCount="1" stopTime="0.00" timeLoss="35.80" rerouteNo="0" devices="tripinfo_flow_route_73_duration_20250327_2050.7" vType="car" speedFactor="0.97" vaporized=""/>
    <tripinfo id="flow_route_74_duration_20250327_2050.4" depart="38.00" departLane="380593307#0_0" departPos="84.45" departSpeed="0.00" departDelay="3.72" arrival="99.00" arrivalLane="138002016#0_0" arrivalPos="174.85" arrivalSpeed="16.60" duration="61.00" routeLength="273.09" waitingTime="20.00" waitingCount="1" stopTime="0.00" timeLoss="43.21" rerouteNo="0" devices="tripinfo_flow_route_74_duration_20250327_2050.4" vType="car" speedFactor="1.10" vaporized=""/>
    <tripinfo id="flow_route_74_duration_20250327_2050.3" depart="28.00" departLane="380593307#0_0" departPos="24.51" departSpeed="0.00" departDelay="2.29" arrival="100.00" arrivalLane="138002016#0_0" arrivalPos="148.45" arrivalSpeed="16.39" duration="72.00" routeLength="306.64" waitingTime="20.00" waitingCount="1" stopTime="0.00" timeLoss="52.57" rerouteNo="0" devices="tripinfo_flow_route_74_duration_20250327_2050.3" vType="car" speedFactor="1.09" vaporized=""/>
    <tripinfo id="flow_route_73_duration_20250327_2050.8" depart="45.00" departLane="380593307#0_0" departPos="55.70" departSpeed="0.00" departDelay="1.37" arrival="100.00" arrivalLane="380585337#0_1" arrivalPos="19.15" arrivalSpeed="15.06" duration="55.00" routeLength="300.13" waitingTime="10.00" waitingCount="2" stopTime="0.00" timeLoss="34.19" rerouteNo="0" devices="tripinfo_flow_route_73_duration_20250327_2050.8" vType="car" speedFactor="0.91" vaporized=""/>
    <tripinfo id="flow_route_73_duration_20250327_2050.9" depart="52.00" departLane="380593307#0_0" departPos="19.04" departSpeed="0.00" departDelay="2.91" arrival="100.00" arrivalLane="380585337#0_1" arrivalPos="2.90" arrivalSpeed="15.52" duration="48.00" routeLength="320.54" waitingTime="3.00" waitingCount="1" stopTime="0.00" timeLoss="27.50" rerouteNo="0" devices="tripinfo_flow_route_73_duration_20250327_2050.9" vType="car" speedFactor="0.96" vaporized=""/>
    <tripinfo id="flow_route_73_duration_20250327_2050.10" depart="60.00" departLane="380593307#0_0" departPos="35.06" departSpeed="0.00" departDelay="5.46" arrival="102.00" arrivalLane="380585337#0_1" arrivalPos="5.60" arrivalSpeed="16.18" duration="42.00" routeLength="307.22" waitingTime="0.00" waitingCount="0" stopTime="0.00" timeLoss="22.83" rerouteNo="0" devices="tripinfo_flow_route_73_duration_20250327_2050.10" vType="car" speedFactor="1.00" vaporized=""/>
    <tripinfo id="flow_route_74_duration_20250327_2050.1" depart="9.00" departLane="380593307#0_0" departPos="38.74" departSpeed="0.00" departDelay="0.43" arrival="104.00" arrivalLane="138002016#0_0" arrivalPos="307.06" arrivalSpeed="15.49" duration="95.00" routeLength="451.01" waitingTime="37.00" waitingCount="1" stopTime="0.00" timeLoss="64.65" rerouteNo="0" devices="tripinfo_flow_route_74_duration_20250327_2050.1" vType="car" speedFactor="0.94" vaporized=""/>
    <tripinfo id="flow_route_68_duration_20250327_2050.2" depart="20.00" departLane="1253209803#0_0" departPos="195.27" departSpeed="0.00" departDelay="0.00" arrival="109.00" arrivalLane="-138002002#2_0" arrivalPos="39.12" arrivalSpeed="10.31" duration="89.00" routeLength="195.17" waitingTime="55.00" waitingCount="1" stopTime="0.00" timeLoss="77.01" rerouteNo="0" devices="tripinfo_flow_route_68_duration_20250327_2050.2" vType="car" speedFactor="1.01" vaporized=""/>
    <tripinfo id="flow_route_72_duration_20250327_2050.1" depart="10.00" departLane="1369578052#0_0" departPos="131.90" departSpeed="0.00" departDelay="0.00" arrival="112.00" arrivalLane="133342692#0_0" arrivalPos="98.00" arrivalSpeed="13.49" duration="102.00" routeLength="166.18" waitingTime="73.00" waitingCount="1" stopTime="0.00" timeLoss="90.98" rerouteNo="0" devices="tripinfo_flow_route_72_duration_20250327_2050.1" vType="car" speedFactor="1.02" vaporized=""/>
    <tripinfo id="flow_route_68_duration_20250327_2050.3" depart="30.00" departLane="1253209803#0_0" departPos="109.38" departSpeed="0.00" departDelay="0.00" arrival="112.00" arrivalLane="-138002002#2_0" arrivalPos="71.96" arrivalSpeed="12.41" duration="82.00" routeLength="313.90" waitingTime="39.00" waitingCount="1" stopTime="0.00" timeLoss="62.90" rerouteNo="0" devices="tripinfo_flow_route_68_duration_20250327_2050.3" vType="car" speedFactor="1.09" vaporized=""/>
    <tripinfo id="flow_route_71_duration_20250327_2050.1" depart="12.00" departLane="1369578052#0_0" departPos="31.04" departSpeed="0.00" departDelay="0.00" arrival="116.00" arrivalLane="138002016#0_1" arrivalPos="97.98" arrivalSpeed="14.37" duration="104.00" routeLength="284.62" waitingTime="60.00" waitingCount="1" stopTime="0.00" timeLoss="84.20" rerouteNo="0" devices="tripinfo_flow_route_71_duration_20250327_2050.1" vType="car" speedFactor="0.89" vaporized=""/>
    <tripinfo id="flow_route_74_duration_20250327_2050.6" depart="55.00" departLane="380593307#0_0" departPos="45.88" departSpeed="0.00" departDelay="3.57" arrival="116.00" arrivalLane="138002016#0_0" arrivalPos="312.71" arrivalSpeed="15.99" duration="61.00" routeLength="449.52" waitingTime="5.00" waitingCount="1" stopTime="0.00" timeLoss="32.09" rerouteNo="0" devices="tripinfo_flow_route_74_duration_20250327_2050.6" vType="car" speedFactor="0.98" vaporized=""/>
    <tripinfo id="flow_route_72_duration_20250327_2050.4" depart="40.00" departLane="1369578052#0_0" departPos="155.51" departSpeed="0.00" departDelay="0.00" arrival="117.00" arrivalLane="133342692#0_0" arrivalPos="83.57" arrivalSpeed="13.27" duration="77.00" routeLength="128.14" waitingTime="53.00" waitingCount="1" stopTime="0.00" timeLoss="68.46" rerouteNo="0" devices="tripinfo_flow_route_72_duration_20250327_2050.4" vType="car" speedFactor="1.12" vaporized=""/>
    <tripinfo id="flow_route_72_duration_20250327_2050.2" depart="20.00" departLane="1369578052#0_0" departPos="71.84" departSpeed="0.00" departDelay="0.00" arrival="118.00" arrivalLane="133342692#0_0" arrivalPos="116.36" arrivalSpeed="14.98" duration="98.00" routeLength="244.60" waitingTime="59.00" waitingCount="1" stopTime="0.00" timeLoss="81.80" rerouteNo="0" devices="tripinfo_flow_route_72_duration_20250327_2050.2" vType="car" speedFactor="1.17" vaporized=""/>
    <tripinfo id="flow_route_71_duration_20250327_2050.2" depart="24.00" departLane="1369578052#0_0" departPos="161.07" departSpeed="0.00" departDelay="0.00" arrival="120.00" arrivalLane="138002016#0_0" arrivalPos="156.84" arrivalSpeed="16.57" duration="96.00" routeLength="213.45" waitingTime="63.00" waitingCount="1" stopTime="0.00" timeLoss="82.45" rerouteNo="0" devices="tripinfo_flow_route_71_duration_20250327_2050.2" vType="car" speedFactor="1.10" vaporized=""/>
    <tripinfo id="flow_route_70_duration_20250327_2050.5" depart="38.00" departLane="1253209803#0_0" departPos="288.61" departSpeed="0.00" departDelay="0.50" arrival="120.00" arrivalLane="133342692#0_2" arrivalPos="0.15" arrivalSpeed="6.46" duration="82.00" routeLength="59.21" waitingTime="59.00" waitingCount="2" stopTime="0.00" timeLoss="77.27" rerouteNo="0" devices="tripinfo_flow_route_70_duration_20250327_2050.5" vType="car" speedFactor="0.90" vaporized=""/>
    <tripinfo id="flow_route_68_duration_20250327_2050.5" depart="50.00" departLane="1253209803#0_0" departPos="2.33" departSpeed="0.00" departDelay="0.00" arrival="120.00" arrivalLane="-138002002#2_0" arrivalPos="136.51" arrivalSpeed="15.59" duration="70.00" routeLength="485.51" waitingTime="16.00" waitingCount="1" stopTime="0.00" timeLoss="39.98" rerouteNo="0" devices="tripinfo_flow_route_68_duration_20250327_2050.5" vType="car" speedFactor="0.94" vaporized=""/>
    <tripinfo id="flow_route_68_duration_20250327_2050.4" depart="41.00" departLane="1253209803#0_0" departPos="141.75" departSpeed="0.00" departDelay="1.00" arrival="121.00" arrivalLane="-138002002#2_0" arrivalPos="183.61" arrivalSpeed="16.13" duration="80.00" routeLength="393.18" waitingTime="30.00" waitingCount="1" stopTime="0.00" timeLoss="56.16" rerouteNo="0" devices="tripinfo_flow_route_68_duration_20250327_2050.4" vType="car" speedFactor="1.08" vaporized=""/>
    <tripinfo id="flow_route_71_duration_20250327_2050.0" depart="0.00" departLane="1369578052#0_0" departPos="11.11" departSpeed="0.00" departDelay="0.00" arrival="122.00" arrivalLane="138002016#0_0" arrivalPos="236.62" arrivalSpeed="16.34" duration="122.00" routeLength="443.19" waitingTime="71.00" waitingCount="1" stopTime="0.00" timeLoss="94.81" rerouteNo="0" devices="tripinfo_flow_route_71_duration_20250327_2050.0" vType="car" speedFactor="1.05" vaporized=""/>
    <tripinfo id="flow_route_72_duration_20250327_2050.5" depart="50.00" departLane="1369578052#0_0" departPos="108.47" departSpeed="0.00" departDelay="0.00" arrival="123.00" arrivalLane="133342692#0_0" arrivalPos="114.20" arrivalSpeed="14.94" duration="73.00" routeLength="205.81" waitingTime="39.00" waitingCount="1" stopTime="0.00" timeLoss="59.29" rerouteNo="0" devices="tripinfo_flow_route_72_duration_20250327_2050.5" vType="car" speedFactor="1.06" vaporized=""/>
    <tripinfo id="flow_route_71_duration_20250327_2050.4" depart="48.00" departLane="1369578052#0_0" departPos="15.59" departSpeed="0.00" departDelay="0.00" arrival="124.00" arrivalLane="138002016#0_1" arrivalPos="181.01" arrivalSpeed="16.59" duration="76.00" routeLength="383.10" waitingTime="28.00" waitingCount="1" stopTime="0.00" timeLoss="52.80" rerouteNo="0" devices="tripinfo_flow_route_71_duration_20250327_2050.4" vType="car" speedFactor="1.02" vaporized=""/>
    <tripinfo id="flow_route_72_duration_20250327_2050.3" depart="30.00" departLane="1369578052#0_0" departPos="79.42" departSpeed="0.00" departDelay="0.00" arrival="125.00" arrivalLane="133342692#0_0" arrivalPos="167.71" arrivalSpeed="14.68" duration="95.00" routeLength="288.37" waitingTime="52.00" waitingCount="1" stopTime="0.00" timeLoss="74.28" rerouteNo="0" devices="tripinfo_flow_route_72_duration_20250327_2050.3" vType="car" speedFactor="0.90" vaporized=""/>
    <tripinfo id="flow_route_71_duration_20250327_2050.3" depart="36.00" departLane="1369578052#0_0" departPos="147.09" departSpeed="0.00" departDelay="0.00" arrival="129.00" arrivalLane="138002016#0_1" arrivalPos="287.59" arrivalSpeed="16.33" duration="93.00" routeLength="358.18" waitingTime="53.00" waitingCount="1" stopTime="0.00" timeLoss="71.02" rerouteNo="0" devices="tripinfo_flow_route_71_duration_20250327_2050.3" vType="car" speedFactor="1.00" vaporized=""/>
    <tripinfo id="flow_route_70_duration_20250327_2050.1" depart="8.00" departLane="1253209803#0_0" departPos="105.17" departSpeed="0.00" departDelay="0.50" arrival="132.00" arrivalLane="133342692#0_2" arrivalPos="164.01" arrivalSpeed="16.15" duration="124.00" routeLength="406.50" waitingTime="69.00" waitingCount="2" stopTime="0.00" timeLoss="98.25" rerouteNo="0" devices="tripinfo_flow_route_70_duration_20250327_2050.1" vType="car" speedFactor="0.99" vaporized=""/>
    <tripinfo id="flow_route_70_duration_20250327_2050.4" depart="30.00" departLane="1253209803#0_0" departPos="210.57" departSpeed="0.00" departDelay="0.00" arrival="133.00" arrivalLane="133342692#0_2" arrivalPos="115.79" arrivalSpeed="14.68" duration="103.00" routeLength="252.89" waitingTime="58.00" waitingCount="2" stopTime="0.00" timeLoss="86.52" rerouteNo="0" devices="tripinfo_flow_route_70_duration_20250327_2050.4" vType="car" speedFactor="1.00" vaporized=""/>
    <tripinfo id="flow_route_70_duration_20250327_2050.7" depart="53.00" departLane="1253209803#0_0" departPos="287.25" departSpeed="0.00" departDelay="0.50" arrival="135.00" arrivalLane="133342692#0_2" arrivalPos="99.30" arrivalSpeed="14.16" duration="82.00" routeLength="159.72" waitingTime="55.00" waitingCount="2" stopTime="0.00" timeLoss="71.69" rerouteNo="0" devices="tripinfo_flow_route_70_duration_20250327_2050.7" vType="car" speedFactor="1.09" vaporized=""/>