<?xml version="1.0" encoding="UTF-8"?>

<!-- generated on 2025-05-06 21:09:04 by Eclipse SUMO sumo Version 1.20.0
<configuration xmlns:xsi="http://www.w3.org/2001/XMLSchema-instance" xsi:noNamespaceSchemaLocation="http://sumo.dlr.de/xsd/sumoConfiguration.xsd">

    <input>
        <net-file value="osm.net.xml"/>
        <route-files value="xml/route_rl_cluster_2271368471_4779869278_8.rou.xml"/>
    </input>

    <output>
        <tripinfo-output value="xml/tripinfo_rl_cluster_2271368471_4779869278_8.xml"/>
    </output>

    <traci_server>
        <remote-port value="33679"/>
    </traci_server>

</configuration>
-->

<tripinfos xmlns:xsi="http://www.w3.org/2001/XMLSchema-instance" xsi:noNamespaceSchemaLocation="http://sumo.dlr.de/xsd/tripinfo_file.xsd">
    <tripinfo id="flow_route_36_duration_20250327_2210.0" depart="0.00" departLane="485211947#0_0" departPos="162.24" departSpeed="0.00" departDelay="0.00" arrival="23.00" arrivalLane="137415945#0_0" arrivalPos="6.94" arrivalSpeed="15.19" duration="23.00" routeLength="189.23" waitingTime="0.00" waitingCount="0" stopTime="0.00" timeLoss="10.24" rerouteNo="0" devices="tripinfo_flow_route_36_duration_20250327_2210.0" vType="car" speedFactor="0.94" vaporized=""/>
    <tripinfo id="flow_route_35_duration_20250327_2210.0" depart="0.00" departLane="485211947#0_0" departPos="11.17" departSpeed="0.00" departDelay="0.00" arrival="33.00" arrivalLane="1369578054_0" arrivalPos="74.16" arrivalSpeed="12.63" duration="33.00" routeLength="260.46" waitingTime="0.00" waitingCount="0" stopTime="0.00" timeLoss="14.52" rerouteNo="0" devices="tripinfo_flow_route_35_duration_20250327_2210.0" vType="car" speedFactor="0.89" vaporized=""/>
    <tripinfo id="flow_route_37_duration_20250327_2210.0" depart="0.00" departLane="485211947#0_0" departPos="59.66" departSpeed="0.00" departDelay="0.00" arrival="33.00" arrivalLane="-430406005#1_1" arrivalPos="133.07" arrivalSpeed="16.05" duration="33.00" routeLength="286.39" waitingTime="0.00" waitingCount="0" stopTime="0.00" timeLoss="12.84" rerouteNo="0" devices="tripinfo_flow_route_37_duration_20250327_2210.0" vType="car" speedFactor="0.86" vaporized=""/>
    <tripinfo id="flow_route_36_duration_20250327_2210.1" depart="12.00" departLane="485211947#0_0" departPos="177.25" departSpeed="0.00" departDelay="0.00" arrival="33.00" arrivalLane="137415945#0_0" arrivalPos="9.73" arrivalSpeed="16.60" duration="21.00" routeLength="177.02" waitingTime="0.00" waitingCount="0" stopTime="0.00" timeLoss="9.47" rerouteNo="0" devices="tripinfo_flow_route_36_duration_20250327_2210.1" vType="car" speedFactor="1.05" vaporized=""/>
    <tripinfo id="flow_route_30_duration_20250327_2210.0" depart="0.00" departLane="1235147073.116_0" departPos="7.14" departSpeed="0.00" departDelay="0.00" arrival="47.00" arrivalLane="133126030#0_0" arrivalPos="8.43" arrivalSpeed="7.43" duration="47.00" routeLength="175.81" waitingTime="17.00" waitingCount="1" stopTime="0.00" timeLoss="36.11" rerouteNo="0" devices="tripinfo_flow_route_30_duration_20250327_2210.0" vType="car" speedFactor="1.01" vaporized=""/>
    <tripinfo id="flow_route_31_duration_20250327_2210.0" depart="2.00" departLane="1235147073.116_0" departPos="0.71" departSpeed="0.00" departDelay="2.00" arrival="55.00" arrivalLane="-430406005#1_0" arrivalPos="87.77" arrivalSpeed="12.34" duration="53.00" routeLength="250.02" waitingTime="16.00" waitingCount="1" stopTime="0.00" timeLoss="37.16" rerouteNo="0" devices="tripinfo_flow_route_31_duration_20250327_2210.0" vType="car" speedFactor="1.08" vaporized=""/>
    <tripinfo id="flow_route_31_duration_20250327_2210.1" depart="20.00" departLane="1235147073.116_0" departPos="1.92" departSpeed="0.00" departDelay="0.00" arrival="55.00" arrivalLane="-430406005#1_0" arrivalPos="59.17" arrivalSpeed="11.79" duration="35.00" routeLength="220.21" waitingTime="0.00" waitingCount="0" stopTime="0.00" timeLoss="20.62" rerouteNo="0" devices="tripinfo_flow_route_31_duration_20250327_2210.1" vType="car" speedFactor="0.99" vaporized=""/>
    <tripinfo id="flow_route_32_duration_20250327_2210.1" depart="12.00" departLane="1235147073.116_0" departPos="2.44" departSpeed="0.00" departDelay="0.00" arrival="57.00" arrivalLane="1369578054_1" arrivalPos="90.42" arrivalSpeed="13.98" duration="45.00" routeLength="267.71" waitingTime="5.00" waitingCount="1" stopTime="0.00" timeLoss="27.47" rerouteNo="0" devices="tripinfo_flow_route_32_duration_20250327_2210.1" vType="car" speedFactor="1.03" vaporized=""/>
    <tripinfo id="flow_route_32_duration_20250327_2210.0" depart="8.00" departLane="1235147073.116_0" departPos="6.07" departSpeed="0.00" departDelay="8.00" arrival="60.00" arrivalLane="1369578054_1" arrivalPos="176.77" arrivalSpeed="16.20" duration="52.00" routeLength="350.43" waitingTime="8.00" waitingCount="1" stopTime="0.00" timeLoss="29.73" rerouteNo="0" devices="tripinfo_flow_route_32_duration_20250327_2210.0" vType="car" speedFactor="1.03" vaporized=""/>
    <tripinfo id="flow_route_32_duration_20250327_2210.3" depart="36.00" departLane="1235147073.116_0" departPos="2.32" departSpeed="0.00" departDelay="0.00" arrival="64.00" arrivalLane="1369578054_1" arrivalPos="54.94" arrivalSpeed="12.95" duration="28.00" routeLength="232.35" waitingTime="0.00" waitingCount="0" stopTime="0.00" timeLoss="10.93" rerouteNo="0" devices="tripinfo_flow_route_32_duration_20250327_2210.3" vType="car" speedFactor="0.89" vaporized=""/>
    <tripinfo id="flow_route_31_duration_20250327_2210.2" depart="40.00" departLane="1235147073.116_0" departPos="14.21" departSpeed="0.00" departDelay="0.00" arrival="67.00" arrivalLane="-430406005#1_0" arrivalPos="49.80" arrivalSpeed="10.83" duration="27.00" routeLength="198.55" waitingTime="0.00" waitingCount="0" stopTime="0.00" timeLoss="12.48" rerouteNo="0" devices="tripinfo_flow_route_31_duration_20250327_2210.2" vType="car" speedFactor="0.87" vaporized=""/>
    <tripinfo id="flow_route_32_duration_20250327_2210.2" depart="26.00" departLane="1235147073.116_0" departPos="3.70" departSpeed="0.00" departDelay="2.00" arrival="72.00" arrivalLane="1369578054_0" arrivalPos="289.02" arrivalSpeed="14.37" duration="46.00" routeLength="465.05" waitingTime="0.00" waitingCount="0" stopTime="0.00" timeLoss="13.02" rerouteNo="0" devices="tripinfo_flow_route_32_duration_20250327_2210.2" vType="car" speedFactor="0.88" vaporized=""/>
    <tripinfo id="flow_route_32_duration_20250327_2210.4" depart="48.00" departLane="1235147073.116_0" departPos="8.68" departSpeed="0.00" departDelay="0.00" arrival="79.00" arrivalLane="1369578054_1" arrivalPos="101.58" arrivalSpeed="15.56" duration="31.00" routeLength="272.63" waitingTime="0.00" waitingCount="0" stopTime="0.00" timeLoss="13.84" rerouteNo="0" devices="tripinfo_flow_route_32_duration_20250327_2210.4" vType="car" speedFactor="1.13" vaporized=""/>
    <tripinfo id="flow_route_33_duration_20250327_2210.1" depart="15.00" departLane="133126008#0_0" departPos="122.27" departSpeed="0.00" departDelay="0.00" arrival="84.00" arrivalLane="1369578054_1" arrivalPos="8.94" arrivalSpeed="8.53" duration="69.00" routeLength="100.02" waitingTime="43.00" waitingCount="1" stopTime="0.00" timeLoss="62.63" rerouteNo="0" devices="tripinfo_flow_route_33_duration_20250327_2210.1" vType="car" speedFactor="1.12" vaporized=""/>
    <tripinfo id="flow_route_33_duration_20250327_2210.0" depart="0.00" departLane="133126008#0_0" departPos="101.07" departSpeed="0.00" departDelay="0.00" arrival="85.00" arrivalLane="1369578054_0" arrivalPos="13.07" arrivalSpeed="8.84" duration="85.00" routeLength="125.36" waitingTime="57.00" waitingCount="1" stopTime="0.00" timeLoss="76.79" rerouteNo="0" devices="tripinfo_flow_route_33_duration_20250327_2210.0" vType="car" speedFactor="0.83" vaporized=""/>
    <tripinfo id="flow_route_29_duration_20250327_2210.0" depart="0.00" departLane="-422986370#2_0" departPos="201.60" departSpeed="0.00" departDelay="0.00" arrival="94.00" arrivalLane="137415945#0_0" arrivalPos="9.07" arrivalSpeed="14.86" duration="94.00" routeLength="253.29" waitingTime="55.00" waitingCount="1" stopTime="0.00" timeLoss="76.30" rerouteNo="0" devices="tripinfo_flow_route_29_duration_20250327_2210.0" vType="car" speedFactor="0.94" vaporized=""/>
    <tripinfo id="flow_route_28_duration_20250327_2210.0" depart="0.00" departLane="-422986370#2_0" departPos="1.81" departSpeed="0.00" departDelay="0.00" arrival="95.00" arrivalLane="-430406005#1_1" arrivalPos="159.13" arrivalSpeed="16.47" duration="95.00" routeLength="491.75" waitingTime="43.00" waitingCount="1" stopTime="0.00" timeLoss="65.13" rerouteNo="0" devices="tripinfo_flow_route_28_duration_20250327_2210.0" vType="car" speedFactor="1.06" vaporized=""/>
    <tripinfo id="flow_route_34_duration_20250327_2210.0" depart="0.00" departLane="133126008#0_0" departPos="47.21" departSpeed="0.00" departDelay="0.00" arrival="95.00" arrivalLane="133126030#0_0" arrivalPos="137.72" arrivalSpeed="14.50" duration="95.00" routeLength="278.03" waitingTime="55.00" waitingCount="1" stopTime="0.00" timeLoss="77.39" rerouteNo="0" devices="tripinfo_flow_route_34_duration_20250327_2210.0" vType="car" speedFactor="1.05" vaporized=""/>
    <tripinfo id="flow_route_29_duration_20250327_2210.1" depart="30.00" departLane="-422986370#2_0" departPos="280.10" departSpeed="0.00" departDelay="0.00" arrival="95.00" arrivalLane="137415945#0_0" arrivalPos="1.13" arrivalSpeed="15.30" duration="65.00" routeLength="166.86" waitingTime="39.00" waitingCount="1" stopTime="0.00" timeLoss="53.86" rerouteNo="0" devices="tripinfo_flow_route_29_duration_20250327_2210.1" vType="car" speedFactor="1.16" vaporized=""/>
    <tripinfo id="flow_route_28_duration_20250327_2210.1" depart="30.00" departLane="-422986370#2_0" departPos="207.17" departSpeed="0.00" departDelay="0.00" arrival="97.00" arrivalLane="-430406005#1_1" arrivalPos="144.96" arrivalSpeed="16.53" duration="67.00" routeLength="272.22" waitingTime="27.00" waitingCount="1" stopTime="0.00" timeLoss="49.27" rerouteNo="0" devices="tripinfo_flow_route_28_duration_20250327_2210.1" vType="car" speedFactor="0.94" vaporized=""/>
    <tripinfo id="flow_route_33_duration_20250327_2210.2" depart="31.00" departLane="133126008#0_0" departPos="87.91" departSpeed="0.00" departDelay="1.00" arrival="100.00" arrivalLane="1369578054_1" arrivalPos="200.20" arrivalSpeed="16.15" duration="69.00" routeLength="325.64" waitingTime="25.00" waitingCount="1" stopTime="0.00" timeLoss="49.12" rerouteNo="0" devices="tripinfo_flow_route_33_duration_20250327_2210.2" vType="car" speedFactor="1.02" vaporized=""/>
    <tripinfo id="flow_route_33_duration_20250327_2210.3" depart="45.00" departLane="133126008#0_0" departPos="56.02" departSpeed="0.00" departDelay="0.00" arrival="108.00" arrivalLane="1369578054_0" arrivalPos="297.32" arrivalSpeed="15.67" duration="63.00" routeLength="454.67" waitingTime="11.00" waitingCount="1" stopTime="0.00" timeLoss="34.22" rerouteNo="0" devices="tripinfo_flow_route_33_duration_20250327_2210.3" vType="car" speedFactor="0.95" vaporized=""/>
    <tripinfo id="flow_route_35_duration_20250327_2210.2" depart="20.00" departLane="485211947#0_0" departPos="76.22" departSpeed="0.00" departDelay="0.00" arrival="121.00" arrivalLane="1369578054_0" arrivalPos="38.77" arrivalSpeed="8.53" duration="101.00" routeLength="160.01" waitingTime="72.00" waitingCount="1" stopTime="0.00" timeLoss="89.75" rerouteNo="0" devices="tripinfo_flow_route_35_duration_20250327_2210.2" vType="car" speedFactor="0.93" vaporized=""/>
    <tripinfo id="flow_route_37_duration_20250327_2210.1" depart="32.00" departLane="485211947#0_0" departPos="176.93" departSpeed="0.00" departDelay="2.00" arrival="129.00" arrivalLane="-430406005#1_1" arrivalPos="106.48" arrivalSpeed="14.33" duration="97.00" routeLength="142.53" waitingTime="74.00" waitingCount="1" stopTime="0.00" timeLoss="86.84" rerouteNo="0" devices="tripinfo_flow_route_37_duration_20250327_2210.1" vType="car" speedFactor="0.97" vaporized=""/>
    <tripinfo id="flow_route_36_duration_20250327_2210.2" depart="24.00" departLane="485211947#0_0" departPos="31.12" departSpeed="0.00" departDelay="0.00" arrival="130.00" arrivalLane="137415945#0_0" arrivalPos="3.36" arrivalSpeed="15.48" duration="106.00" routeLength="316.77" waitingTime="64.00" waitingCount="1" stopTime="0.00" timeLoss="85.68" rerouteNo="0" devices="tripinfo_flow_route_36_duration_20250327_2210.2" vType="car" speedFactor="0.94" vaporized=""/>
    <tripinfo id="flow_route_35_duration_20250327_2210.5" depart="50.00" departLane="485211947#0_0" departPos="8.68" departSpeed="0.00" departDelay="0.00" arrival="131.00" arrivalLane="1369578054_0" arrivalPos="54.13" arrivalSpeed="12.45" duration="81.00" routeLength="242.91" waitingTime="44.00" waitingCount="1" stopTime="0.00" timeLoss="65.38" rerouteNo="0" devices="tripinfo_flow_route_35_duration_20250327_2210.5" vType="car" speedFactor="1.18" vaporized=""/>
    <tripinfo id="flow_route_35_duration_20250327_2210.1" depart="11.00" departLane="485211947#0_0" departPos="6.01" departSpeed="0.00" departDelay="1.00" arrival="133.00" arrivalLane="1369578054_0" arrivalPos="163.10" arrivalSpeed="16.58" duration="122.00" routeLength="354.55" waitingTime="71.00" waitingCount="1" stopTime="0.00" timeLoss="99.27" rerouteNo="0" devices="tripinfo_flow_route_35_duration_20250327_2210.1" vType="car" speedFactor="1.09" vaporized=""/>
    <tripinfo id="flow_route_36_duration_20250327_2210.3" depart="36.00" departLane="485211947#0_0" departPos="5.16" departSpeed="0.00" departDelay="0.00" arrival="133.00" arrivalLane="137415945#0_1" arrivalPos="8.17" arrivalSpeed="13.54" duration="97.00" routeLength="347.54" waitingTime="51.00" waitingCount="1" stopTime="0.00" timeLoss="71.30" rerouteNo="0" devices="tripinfo_flow_route_36_duration_20250327_2210.3" vType="car" speedFactor="0.83" vaporized=""/>
    <tripinfo id="flow_route_36_duration_20250327_2210.4" depart="48.00" departLane="485211947#0_0" departPos="38.39" departSpeed="0.00" departDelay="0.00" arrival="134.00" arrivalLane="137415945#0_1" arrivalPos="1.10" arrivalSpeed="15.49" duration="86.00" routeLength="307.24" waitingTime="44.00" waitingCount="1" stopTime="0.00" timeLoss="66.21" rerouteNo="0" devices="tripinfo_flow_route_36_duration_20250327_2210.4" vType="car" speedFactor="0.93" vaporized=""/>
    <tripinfo id="flow_route_35_duration_20250327_2210.4" depart="41.00" departLane="485211947#0_0" departPos="33.16" departSpeed="0.00" departDelay="1.00" arrival="137.00" arrivalLane="1369578054_0" arrivalPos="163.83" arrivalSpeed="15.03" duration="96.00" routeLength="328.13" waitingTime="50.00" waitingCount="1" stopTime="0.00" timeLoss="73.68" rerouteNo="0" devices="tripinfo_flow_route_35_duration_20250327_2210.4" vType="car" speedFactor="0.92" vaporized=""/>
    <tripinfo id="flow_route_35_duration_20250327_2210.3" depart="32.00" departLane="485211947#0_0" departPos="31.20" departSpeed="0.00" departDelay="2.00" arrival="138.00" arrivalLane="1369578054_0" arrivalPos="214.41" arrivalSpeed="16.19" duration="106.00" routeLength="380.67" waitingTime="60.00" waitingCount="1" stopTime="0.00" timeLoss="82.05" rerouteNo="0" devices="tripinfo_flow_route_35_duration_20250327_2210.3" vType="car" speedFactor="1.01" vaporized=""/>
</tripinfos>
