<?xml version="1.0" encoding="UTF-8"?>

<!-- generated on 2025-05-06 21:09:04 by Eclipse SUMO sumo Version 1.20.0
<configuration xmlns:xsi="http://www.w3.org/2001/XMLSchema-instance" xsi:noNamespaceSchemaLocation="http://sumo.dlr.de/xsd/sumoConfiguration.xsd">

    <input>
        <net-file value="osm.net.xml"/>
        <route-files value="xml/route_rl_cluster3839130731_cluster_11644940326_11644940327_11648561426_8.rou.xml"/>
    </input>

    <output>
        <tripinfo-output value="xml/tripinfo_rl_cluster3839130731_cluster_11644940326_11644940327_11648561426_8.xml"/>
    </output>

    <traci_server>
        <remote-port value="58085"/>
    </traci_server>

</configuration>
-->

<tripinfos xmlns:xsi="http://www.w3.org/2001/XMLSchema-instance" xsi:noNamespaceSchemaLocation="http://sumo.dlr.de/xsd/tripinfo_file.xsd">
    <tripinfo id="flow_route_123_duration_20250327_1930.3" depart="10.00" departLane="189240000#0-AddedOnRampEdge_0" departPos="91.06" departSpeed="0.00" departDelay="0.00" arrival="22.00" arrivalLane="1254519229#0_0" arrivalPos="10.29" arrivalSpeed="9.92" duration="12.00" routeLength="61.56" waitingTime="0.00" waitingCount="0" stopTime="0.00" timeLoss="7.71" rerouteNo="0" devices="tripinfo_flow_route_123_duration_20250327_1930.3" vType="car" speedFactor="1.16" vaporized=""/>
    <tripinfo id="flow_route_123_duration_20250327_1930.1" depart="4.00" departLane="189240000#0-AddedOnRampEdge_0" departPos="59.81" departSpeed="0.00" departDelay="0.67" arrival="24.00" arrivalLane="1254519229#0_1" arrivalPos="40.82" arrivalSpeed="13.92" duration="20.00" routeLength="126.85" waitingTime="0.00" waitingCount="0" stopTime="0.00" timeLoss="11.28" rerouteNo="0" devices="tripinfo_flow_route_123_duration_20250327_1930.1" vType="car" speedFactor="1.09" vaporized=""/>
    <tripinfo id="flow_route_123_duration_20250327_1930.0" depart="0.00" departLane="189240000#0-AddedOnRampEdge_0" departPos="5.69" departSpeed="0.00" departDelay="0.00" arrival="27.00" arrivalLane="1254519229#0_1" arrivalPos="19.69" arrivalSpeed="12.65" duration="27.00" routeLength="159.84" waitingTime="0.00" waitingCount="0" stopTime="0.00" timeLoss="15.42" rerouteNo="0" devices="tripinfo_flow_route_123_duration_20250327_1930.0" vType="car" speedFactor="0.89" vaporized=""/>
    <tripinfo id="flow_route_123_duration_20250327_1930.2" depart="7.00" departLane="189240000#0-AddedOnRampEdge_0" departPos="22.35" departSpeed="0.00" departDelay="0.33" arrival="32.00" arrivalLane="1254519229#0_1" arrivalPos="43.31" arrivalSpeed="15.05" duration="25.00" routeLength="166.80" waitingTime="1.00" waitingCount="1" stopTime="0.00" timeLoss="14.62" rerouteNo="0" devices="tripinfo_flow_route_123_duration_20250327_1930.2" vType="car" speedFactor="1.12" vaporized=""/>
    <tripinfo id="flow_route_94_duration_20250327_1930.1" depart="8.00" departLane="1341093416#0_0" departPos="82.74" departSpeed="0.00" departDelay="0.50" arrival="33.00" arrivalLane="799091563#0_1" arrivalPos="12.31" arrivalSpeed="16.47" duration="25.00" routeLength="235.92" waitingTime="0.00" waitingCount="0" stopTime="0.00" timeLoss="10.27" rerouteNo="0" devices="tripinfo_flow_route_94_duration_20250327_1930.1" vType="car" speedFactor="0.99" vaporized=""/>
    <tripinfo id="flow_route_94_duration_20250327_1930.2" depart="15.00" departLane="1341093416#0_0" departPos="196.20" departSpeed="0.00" departDelay="0.00" arrival="34.00" arrivalLane="799091563#0_0" arrivalPos="33.80" arrivalSpeed="14.82" duration="19.00" routeLength="143.95" waitingTime="0.00" waitingCount="0" stopTime="0.00" timeLoss="9.55" rerouteNo="0" devices="tripinfo_flow_route_94_duration_20250327_1930.2" vType="car" speedFactor="0.89" vaporized=""/>
    <tripinfo id="flow_route_123_duration_20250327_1930.5" depart="17.00" departLane="189240000#0-AddedOnRampEdge_0" departPos="88.28" departSpeed="0.00" departDelay="0.34" arrival="34.00" arrivalLane="1254519229#0_0" arrivalPos="55.03" arrivalSpeed="12.70" duration="17.00" routeLength="109.08" waitingTime="0.00" waitingCount="0" stopTime="0.00" timeLoss="8.47" rerouteNo="0" devices="tripinfo_flow_route_123_duration_20250327_1930.5" vType="car" speedFactor="0.87" vaporized=""/>
    <tripinfo id="flow_route_124_duration_20250327_1930.0" depart="0.00" departLane="189240000#0-AddedOnRampEdge_0" departPos="82.66" departSpeed="0.00" departDelay="0.00" arrival="36.00" arrivalLane="1254519225#0.109_3" arrivalPos="34.02" arrivalSpeed="15.36" duration="36.00" routeLength="196.39" waitingTime="4.00" waitingCount="1" stopTime="0.00" timeLoss="21.54" rerouteNo="0" devices="tripinfo_flow_route_124_duration_20250327_1930.0" vType="car" speedFactor="0.94" vaporized=""/>
    <tripinfo id="flow_route_94_duration_20250327_1930.0" depart="0.00" departLane="1341093416#0_0" departPos="204.30" departSpeed="0.00" departDelay="0.00" arrival="37.00" arrivalLane="799091563#0_0" arrivalPos="338.33" arrivalSpeed="16.50" duration="37.00" routeLength="440.38" waitingTime="0.00" waitingCount="0" stopTime="0.00" timeLoss="10.22" rerouteNo="0" devices="tripinfo_flow_route_94_duration_20250327_1930.0" vType="car" speedFactor="1.06" vaporized=""/>
    <tripinfo id="flow_route_123_duration_20250327_1930.4" depart="14.00" departLane="189240000#0-AddedOnRampEdge_0" departPos="76.63" departSpeed="0.00" departDelay="0.67" arrival="37.00" arrivalLane="1254519229#0_0" arrivalPos="45.48" arrivalSpeed="12.33" duration="23.00" routeLength="111.18" waitingTime="2.00" waitingCount="1" stopTime="0.00" timeLoss="15.22" rerouteNo="0" devices="tripinfo_flow_route_123_duration_20250327_1930.4" vType="car" speedFactor="0.97" vaporized=""/>
    <tripinfo id="flow_route_124_duration_20250327_1930.1" depart="4.00" departLane="189240000#0-AddedOnRampEdge_0" departPos="28.99" departSpeed="0.00" departDelay="1.14" arrival="39.00" arrivalLane="1254519225#0.109_3" arrivalPos="42.65" arrivalSpeed="13.82" duration="35.00" routeLength="258.69" waitingTime="0.00" waitingCount="0" stopTime="0.00" timeLoss="15.03" rerouteNo="0" devices="tripinfo_flow_route_124_duration_20250327_1930.1" vType="car" speedFactor="0.86" vaporized=""/>
    <tripinfo id="flow_route_96_duration_20250327_1930.0" depart="0.00" departLane="1341093416#0_0" departPos="184.53" departSpeed="0.00" departDelay="0.00" arrival="41.00" arrivalLane="1254519229#0_1" arrivalPos="3.62" arrivalSpeed="4.77" duration="41.00" routeLength="114.10" waitingTime="13.00" waitingCount="1" stopTime="0.00" timeLoss="32.89" rerouteNo="0" devices="tripinfo_flow_route_96_duration_20250327_1930.0" vType="car" speedFactor="1.01" vaporized=""/>
    <tripinfo id="flow_route_95_duration_20250327_1930.0" depart="0.00" departLane="1341093416#0_0" departPos="1.65" departSpeed="0.00" departDelay="0.00" arrival="46.00" arrivalLane="1254519225#0.109_0" arrivalPos="44.45" arrivalSpeed="15.23" duration="46.00" routeLength="425.17" waitingTime="0.00" waitingCount="0" stopTime="0.00" timeLoss="18.55" rerouteNo="0" devices="tripinfo_flow_route_95_duration_20250327_1930.0" vType="car" speedFactor="0.94" vaporized=""/>
    <tripinfo id="flow_route_96_duration_20250327_1930.1" depart="9.00" departLane="1341093416#0_0" departPos="262.29" departSpeed="0.00" departDelay="0.43" arrival="46.00" arrivalLane="1254519229#0_1" arrivalPos="60.83" arrivalSpeed="9.60" duration="37.00" routeLength="93.55" waitingTime="15.00" waitingCount="1" stopTime="0.00" timeLoss="29.88" rerouteNo="0" devices="tripinfo_flow_route_96_duration_20250327_1930.1" vType="car" speedFactor="0.93" vaporized=""/>
    <tripinfo id="flow_route_111_duration_20250327_1930.0" depart="0.00" departLane="1253188486#8_0" departPos="138.93" departSpeed="0.00" departDelay="0.00" arrival="52.00" arrivalLane="1254519229#0_1" arrivalPos="3.47" arrivalSpeed="7.85" duration="52.00" routeLength="140.76" waitingTime="23.00" waitingCount="2" stopTime="0.00" timeLoss="43.07" rerouteNo="0" devices="tripinfo_flow_route_111_duration_20250327_1930.0" vType="car" speedFactor="0.83" vaporized=""/>
    <tripinfo id="flow_route_96_duration_20250327_1930.2" depart="19.00" departLane="1341093416#0_0" departPos="261.83" departSpeed="0.00" departDelay="1.86" arrival="52.00" arrivalLane="1254519229#0_1" arrivalPos="76.38" arrivalSpeed="11.68" duration="33.00" routeLength="109.57" waitingTime="9.00" waitingCount="1" stopTime="0.00" timeLoss="24.80" rerouteNo="0" devices="tripinfo_flow_route_96_duration_20250327_1930.2" vType="car" speedFactor="0.92" vaporized=""/>
    <tripinfo id="flow_route_124_duration_20250327_1930.2" depart="6.00" departLane="189240000#0-AddedOnRampEdge_0" departPos="37.44" departSpeed="0.00" departDelay="0.29" arrival="54.00" arrivalLane="1254519225#0.109_3" arrivalPos="55.38" arrivalSpeed="15.81" duration="48.00" routeLength="262.97" waitingTime="7.00" waitingCount="1" stopTime="0.00" timeLoss="30.61" rerouteNo="0" devices="tripinfo_flow_route_124_duration_20250327_1930.2" vType="car" speedFactor="1.05" vaporized=""/>
    <tripinfo id="flow_route_111_duration_20250327_1930.5" depart="24.00" departLane="1253188486#8_0" departPos="150.91" departSpeed="0.00" departDelay="0.93" arrival="54.00" arrivalLane="1254519229#0_0" arrivalPos="16.90" arrivalSpeed="9.54" duration="30.00" routeLength="142.21" waitingTime="0.00" waitingCount="0" stopTime="0.00" timeLoss="21.04" rerouteNo="0" devices="tripinfo_flow_route_111_duration_20250327_1930.5" vType="car" speedFactor="1.18" vaporized=""/>
    <tripinfo id="flow_route_111_duration_20250327_1930.1" depart="5.00" departLane="1253188486#8_0" departPos="202.24" departSpeed="0.00" departDelay="0.39" arrival="55.00" arrivalLane="1254519229#0_0" arrivalPos="74.72" arrivalSpeed="11.91" duration="50.00" routeLength="148.70" waitingTime="19.00" waitingCount="1" stopTime="0.00" timeLoss="41.02" rerouteNo="0" devices="tripinfo_flow_route_111_duration_20250327_1930.1" vType="car" speedFactor="1.03" vaporized=""/>
    <tripinfo id="flow_route_111_duration_20250327_1930.3" depart="14.00" departLane="1253188486#8_0" departPos="59.22" departSpeed="0.00" departDelay="0.16" arrival="55.00" arrivalLane="1254519229#0_1" arrivalPos="13.36" arrivalSpeed="9.73" duration="41.00" routeLength="230.36" waitingTime="2.00" waitingCount="1" stopTime="0.00" timeLoss="26.70" rerouteNo="0" devices="tripinfo_flow_route_111_duration_20250327_1930.3" vType="car" speedFactor="1.01" vaporized=""/>
    <tripinfo id="flow_route_124_duration_20250327_1930.5" depart="15.00" departLane="189240000#0-AddedOnRampEdge_0" departPos="56.29" departSpeed="0.00" departDelay="0.72" arrival="55.00" arrivalLane="1254519225#0.109_3" arrivalPos="41.68" arrivalSpeed="13.73" duration="40.00" routeLength="230.42" waitingTime="4.00" waitingCount="1" stopTime="0.00" timeLoss="21.51" rerouteNo="0" devices="tripinfo_flow_route_124_duration_20250327_1930.5" vType="car" speedFactor="0.83" vaporized=""/>
    <tripinfo id="flow_route_111_duration_20250327_1930.2" depart="10.00" departLane="1253188486#8_0" departPos="30.76" departSpeed="0.00" departDelay="0.77" arrival="56.00" arrivalLane="1254519229#0_0" arrivalPos="54.51" arrivalSpeed="11.09" duration="46.00" routeLength="299.97" waitingTime="2.00" waitingCount="1" stopTime="0.00" timeLoss="27.41" rerouteNo="0" devices="tripinfo_flow_route_111_duration_20250327_1930.2" vType="car" speedFactor="0.94" vaporized=""/>
    <tripinfo id="flow_route_111_duration_20250327_1930.7" depart="33.00" departLane="1253188486#8_0" departPos="100.85" departSpeed="0.00" departDelay="0.70" arrival="56.00" arrivalLane="1254519229#0_0" arrivalPos="23.58" arrivalSpeed="14.53" duration="23.00" routeLength="198.94" waitingTime="0.00" waitingCount="0" stopTime="0.00" timeLoss="10.93" rerouteNo="0" devices="tripinfo_flow_route_111_duration_20250327_1930.7" vType="car" speedFactor="0.88" vaporized=""/>
    <tripinfo id="flow_route_112_duration_20250327_1930.1" depart="10.00" departLane="1253188486#8_0" departPos="100.92" departSpeed="0.00" departDelay="0.00" arrival="57.00" arrivalLane="799091563#0_0" arrivalPos="125.80" arrivalSpeed="15.06" duration="47.00" routeLength="279.59" waitingTime="7.00" waitingCount="1" stopTime="0.00" timeLoss="27.84" rerouteNo="0" devices="tripinfo_flow_route_112_duration_20250327_1930.1" vType="car" speedFactor="0.94" vaporized=""/>
    <tripinfo id="flow_route_111_duration_20250327_1930.4" depart="19.00" departLane="1253188486#8_0" departPos="44.98" departSpeed="0.00" departDelay="0.54" arrival="57.00" arrivalLane="1254519229#0_1" arrivalPos="13.40" arrivalSpeed="9.35" duration="38.00" routeLength="244.63" waitingTime="0.00" waitingCount="0" stopTime="0.00" timeLoss="23.09" rerouteNo="0" devices="tripinfo_flow_route_111_duration_20250327_1930.4" vType="car" speedFactor="1.13" vaporized=""/>
    <tripinfo id="flow_route_112_duration_20250327_1930.2" depart="24.00" departLane="1253188486#8_0" departPos="103.83" departSpeed="0.00" departDelay="4.00" arrival="58.00" arrivalLane="799091563#0_0" arrivalPos="105.88" arrivalSpeed="13.49" duration="34.00" routeLength="256.76" waitingTime="0.00" waitingCount="0" stopTime="0.00" timeLoss="16.70" rerouteNo="0" devices="tripinfo_flow_route_112_duration_20250327_1930.2" vType="car" speedFactor="1.01" vaporized=""/>
    <tripinfo id="flow_route_111_duration_20250327_1930.6" depart="28.00" departLane="1253188486#8_0" departPos="25.69" departSpeed="0.00" departDelay="0.31" arrival="60.00" arrivalLane="1254519229#0_1" arrivalPos="24.09" arrivalSpeed="11.47" duration="32.00" routeLength="274.62" waitingTime="0.00" waitingCount="0" stopTime="0.00" timeLoss="15.09" rerouteNo="0" devices="tripinfo_flow_route_111_duration_20250327_1930.6" vType="car" speedFactor="1.09" vaporized=""/>
    <tripinfo id="flow_route_112_duration_20250327_1930.5" depart="50.00" departLane="1253188486#8_0" departPos="223.05" departSpeed="0.00" departDelay="0.00" arrival="60.00" arrivalLane="799091563#0_0" arrivalPos="4.43" arrivalSpeed="5.97" duration="10.00" routeLength="36.09" waitingTime="0.00" waitingCount="0" stopTime="0.00" timeLoss="7.07" rerouteNo="0" devices="tripinfo_flow_route_112_duration_20250327_1930.5" vType="car" speedFactor="0.97" vaporized=""/>
    <tripinfo id="flow_route_104_duration_20250327_1930.0" depart="0.00" departLane="189240001_0" departPos="36.52" departSpeed="0.00" departDelay="0.00" arrival="62.00" arrivalLane="1254519225#0.109_0" arrivalPos="30.66" arrivalSpeed="15.79" duration="62.00" routeLength="198.30" waitingTime="29.00" waitingCount="2" stopTime="0.00" timeLoss="49.42" rerouteNo="0" devices="tripinfo_flow_route_104_duration_20250327_1930.0" vType="car" speedFactor="1.08" vaporized=""/>
    <tripinfo id="flow_route_104_duration_20250327_1930.1" depart="20.00" departLane="189240001_0" departPos="14.02" departSpeed="0.00" departDelay="0.00" arrival="63.00" arrivalLane="1254519225#0.109_0" arrivalPos="9.47" arrivalSpeed="15.44" duration="43.00" routeLength="199.61" waitingTime="7.00" waitingCount="2" stopTime="0.00" timeLoss="30.30" rerouteNo="0" devices="tripinfo_flow_route_104_duration_20250327_1930.1" vType="car" speedFactor="1.18" vaporized=""/>
    <tripinfo id="flow_route_112_duration_20250327_1930.0" depart="0.00" departLane="1253188486#8_0" departPos="64.90" departSpeed="0.00" departDelay="0.00" arrival="64.00" arrivalLane="799091563#0_0" arrivalPos="282.23" arrivalSpeed="16.30" duration="64.00" routeLength="472.04" waitingTime="13.00" waitingCount="1" stopTime="0.00" timeLoss="34.41" rerouteNo="0" devices="tripinfo_flow_route_112_duration_20250327_1930.0" vType="car" speedFactor="1.05" vaporized=""/>
    <tripinfo id="flow_route_111_duration_20250327_1930.8" depart="37.00" departLane="1253188486#8_0" departPos="30.50" departSpeed="0.00" departDelay="0.08" arrival="64.00" arrivalLane="1254519229#0_1" arrivalPos="22.38" arrivalSpeed="15.90" duration="27.00" routeLength="268.10" waitingTime="0.00" waitingCount="0" stopTime="0.00" timeLoss="10.81" rerouteNo="0" devices="tripinfo_flow_route_111_duration_20250327_1930.8" vType="car" speedFactor="1.02" vaporized=""/>
    <tripinfo id="flow_route_111_duration_20250327_1930.11" depart="51.00" departLane="1253188486#8_0" departPos="208.86" departSpeed="0.00" departDelay="0.24" arrival="64.00" arrivalLane="1254519229#0_0" arrivalPos="9.10" arrivalSpeed="10.52" duration="13.00" routeLength="76.46" waitingTime="0.00" waitingCount="0" stopTime="0.00" timeLoss="8.31" rerouteNo="0" devices="tripinfo_flow_route_111_duration_20250327_1930.11" vType="car" speedFactor="1.06" vaporized=""/>
    <tripinfo id="flow_route_104_duration_20250327_1930.2" depart="40.00" departLane="189240001_0" departPos="27.00" departSpeed="0.00" departDelay="0.00" arrival="65.00" arrivalLane="1254519225#0.109_0" arrivalPos="24.37" arrivalSpeed="15.44" duration="25.00" routeLength="201.54" waitingTime="0.00" waitingCount="0" stopTime="0.00" timeLoss="12.77" rerouteNo="0" devices="tripinfo_flow_route_104_duration_20250327_1930.2" vType="car" speedFactor="1.14" vaporized=""/>
    <tripinfo id="flow_route_111_duration_20250327_1930.9" depart="42.00" departLane="1253188486#8_0" departPos="140.66" departSpeed="0.00" departDelay="0.47" arrival="65.00" arrivalLane="1254519229#0_1" arrivalPos="54.18" arrivalSpeed="16.54" duration="23.00" routeLength="189.73" waitingTime="0.00" waitingCount="0" stopTime="0.00" timeLoss="10.89" rerouteNo="0" devices="tripinfo_flow_route_111_duration_20250327_1930.9" vType="car" speedFactor="1.02" vaporized=""/>
    <tripinfo id="flow_route_112_duration_20250327_1930.3" depart="30.00" departLane="1253188486#8_0" departPos="111.82" departSpeed="0.00" departDelay="0.00" arrival="68.00" arrivalLane="799091563#0_0" arrivalPos="187.08" arrivalSpeed="16.21" duration="38.00" routeLength="329.97" waitingTime="0.00" waitingCount="0" stopTime="0.00" timeLoss="16.42" rerouteNo="0" devices="tripinfo_flow_route_112_duration_20250327_1930.3" vType="car" speedFactor="1.09" vaporized=""/>
    <tripinfo id="flow_route_111_duration_20250327_1930.10" depart="47.00" departLane="1253188486#8_0" departPos="83.13" departSpeed="0.00" departDelay="0.85" arrival="70.00" arrivalLane="1254519229#0_0" arrivalPos="13.33" arrivalSpeed="16.28" duration="23.00" routeLength="206.41" waitingTime="0.00" waitingCount="0" stopTime="0.00" timeLoss="10.39" rerouteNo="0" devices="tripinfo_flow_route_111_duration_20250327_1930.10" vType="car" speedFactor="1.04" vaporized=""/>
    <tripinfo id="flow_route_94_duration_20250327_1930.6" depart="47.00" departLane="1341093416#0_0" departPos="218.79" departSpeed="0.00" departDelay="2.00" arrival="83.00" arrivalLane="799091563#0_2" arrivalPos="5.55" arrivalSpeed="7.08" duration="36.00" routeLength="93.11" waitingTime="13.00" waitingCount="1" stopTime="0.00" timeLoss="30.21" rerouteNo="0" devices="tripinfo_flow_route_94_duration_20250327_1930.6" vType="car" speedFactor="0.91" vaporized=""/>
    <tripinfo id="flow_route_94_duration_20250327_1930.3" depart="23.00" departLane="1341093416#0_0" departPos="96.47" departSpeed="0.00" departDelay="0.50" arrival="85.00" arrivalLane="799091563#0_1" arrivalPos="17.79" arrivalSpeed="9.06" duration="62.00" routeLength="227.67" waitingTime="26.00" waitingCount="1" stopTime="0.00" timeLoss="47.86" rerouteNo="0" devices="tripinfo_flow_route_94_duration_20250327_1930.3" vType="car" speedFactor="1.02" vaporized=""/>
    <tripinfo id="flow_route_123_duration_20250327_1930.9" depart="30.00" departLane="189240000#0-AddedOnRampEdge_0" departPos="82.50" departSpeed="0.00" departDelay="0.00" arrival="85.00" arrivalLane="1254519229#0_1" arrivalPos="33.83" arrivalSpeed="9.39" duration="55.00" routeLength="97.17" waitingTime="32.00" waitingCount="1" stopTime="0.00" timeLoss="48.68" rerouteNo="0" devices="tripinfo_flow_route_123_duration_20250327_1930.9" vType="car" speedFactor="1.00" vaporized=""/>
    <tripinfo id="flow_route_123_duration_20250327_1930.6" depart="20.00" departLane="189240000#0-AddedOnRampEdge_0" departPos="32.01" departSpeed="0.00" departDelay="0.00" arrival="87.00" arrivalLane="1254519229#0_0" arrivalPos="43.51" arrivalSpeed="9.82" duration="67.00" routeLength="153.83" waitingTime="36.00" waitingCount="1" stopTime="0.00" timeLoss="57.19" rerouteNo="0" devices="tripinfo_flow_route_123_duration_20250327_1930.6" vType="car" speedFactor="1.17" vaporized=""/>
    <tripinfo id="flow_route_123_duration_20250327_1930.7" depart="24.00" departLane="189240000#0-AddedOnRampEdge_0" departPos="36.80" departSpeed="0.00" departDelay="0.67" arrival="89.00" arrivalLane="1254519229#0_1" arrivalPos="54.00" arrivalSpeed="11.76" duration="65.00" routeLength="163.05" waitingTime="30.00" waitingCount="2" stopTime="0.00" timeLoss="54.59" rerouteNo="0" devices="tripinfo_flow_route_123_duration_20250327_1930.7" vType="car" speedFactor="1.10" vaporized=""/>
    <tripinfo id="flow_route_123_duration_20250327_1930.10" depart="34.00" departLane="189240000#0-AddedOnRampEdge_0" departPos="66.04" departSpeed="0.00" departDelay="0.67" arrival="89.00" arrivalLane="1254519229#0_0" arrivalPos="27.28" arrivalSpeed="10.31" duration="55.00" routeLength="103.57" waitingTime="28.00" waitingCount="1" stopTime="0.00" timeLoss="46.96" rerouteNo="0" devices="tripinfo_flow_route_123_duration_20250327_1930.10" vType="car" speedFactor="0.85" vaporized=""/>
    <tripinfo id="flow_route_94_duration_20250327_1930.5" depart="38.00" departLane="1341093416#0_0" departPos="101.89" departSpeed="0.00" departDelay="0.50" arrival="90.00" arrivalLane="799091563#0_1" arrivalPos="53.60" arrivalSpeed="11.64" duration="52.00" routeLength="258.06" waitingTime="12.00" waitingCount="1" stopTime="0.00" timeLoss="36.20" rerouteNo="0" devices="tripinfo_flow_route_94_duration_20250327_1930.5" vType="car" speedFactor="1.00" vaporized=""/>
    <tripinfo id="flow_route_112_duration_20250327_1930.4" depart="40.00" departLane="1253188486#8_0" departPos="105.71" departSpeed="0.00" departDelay="0.00" arrival="90.00" arrivalLane="799091563#0_0" arrivalPos="371.45" arrivalSpeed="15.92" duration="50.00" routeLength="520.45" waitingTime="0.00" waitingCount="0" stopTime="0.00" timeLoss="16.83" rerouteNo="0" devices="tripinfo_flow_route_112_duration_20250327_1930.4" vType="car" speedFactor="0.97" vaporized=""/>
    <tripinfo id="flow_route_96_duration_20250327_1930.4" depart="35.00" departLane="1341093416#0_0" departPos="181.46" departSpeed="0.00" departDelay="0.72" arrival="94.00" arrivalLane="1254519229#0_1" arrivalPos="8.08" arrivalSpeed="5.03" duration="59.00" routeLength="121.62" waitingTime="26.00" waitingCount="2" stopTime="0.00" timeLoss="50.11" rerouteNo="0" devices="tripinfo_flow_route_96_duration_20250327_1930.4" vType="car" speedFactor="0.85" vaporized=""/>
    <tripinfo id="flow_route_95_duration_20250327_1930.2" depart="42.00" departLane="1341093416#0_0" departPos="162.51" departSpeed="0.00" departDelay="2.00" arrival="94.00" arrivalLane="1254519225#0.109_0" arrivalPos="2.66" arrivalSpeed="13.31" duration="52.00" routeLength="222.52" waitingTime="16.00" waitingCount="1" stopTime="0.00" timeLoss="36.74" rerouteNo="0" devices="tripinfo_flow_route_95_duration_20250327_1930.2" vType="car" speedFactor="0.90" vaporized=""/>
    <tripinfo id="flow_route_95_duration_20250327_1930.1" depart="20.00" departLane="1341093416#0_0" departPos="18.36" departSpeed="0.00" departDelay="0.00" arrival="95.00" arrivalLane="1254519225#0.109_0" arrivalPos="40.03" arrivalSpeed="14.51" duration="75.00" routeLength="404.04" waitingTime="24.00" waitingCount="1" stopTime="0.00" timeLoss="49.18" rerouteNo="0" devices="tripinfo_flow_route_95_duration_20250327_1930.1" vType="car" speedFactor="0.93" vaporized=""/>
    <tripinfo id="flow_route_123_duration_20250327_1930.11" depart="37.00" departLane="189240000#0-AddedOnRampEdge_0" departPos="67.34" departSpeed="0.00" departDelay="0.34" arrival="95.00" arrivalLane="1254519229#0_0" arrivalPos="56.67" arrivalSpeed="12.62" duration="58.00" routeLength="131.66" waitingTime="28.00" waitingCount="1" stopTime="0.00" timeLoss="48.93" rerouteNo="0" devices="tripinfo_flow_route_123_duration_20250327_1930.11" vType="car" speedFactor="1.10" vaporized=""/>
    <tripinfo id="flow_route_105_duration_20250327_1930.0" depart="1.00" departLane="189240001_0" departPos="25.23" departSpeed="0.00" departDelay="1.00" arrival="96.00" arrivalLane="799091563#0_2" arrivalPos="224.02" arrivalSpeed="16.52" duration="95.00" routeLength="308.35" waitingTime="50.00" waitingCount="2" stopTime="0.00" timeLoss="76.15" rerouteNo="0" devices="tripinfo_flow_route_105_duration_20250327_1930.0" vType="car" speedFactor="1.03" vaporized=""/>
    <tripinfo id="flow_route_96_duration_20250327_1930.3" depart="26.00" departLane="1341093416#0_0" departPos="160.41" departSpeed="0.00" departDelay="0.29" arrival="97.00" arrivalLane="1254519229#0_1" arrivalPos="40.81" arrivalSpeed="7.88" duration="71.00" routeLength="175.41" waitingTime="33.00" waitingCount="2" stopTime="0.00" timeLoss="58.97" rerouteNo="0" devices="tripinfo_flow_route_96_duration_20250327_1930.3" vType="car" speedFactor="0.90" vaporized=""/>
    <tripinfo id="flow_route_96_duration_20250327_1930.5" depart="43.00" departLane="1341093416#0_0" departPos="175.79" departSpeed="0.00" departDelay="0.15" arrival="97.00" arrivalLane="1254519229#0_1" arrivalPos="8.19" arrivalSpeed="6.30" duration="54.00" routeLength="127.41" waitingTime="18.00" waitingCount="2" stopTime="0.00" timeLoss="44.92" rerouteNo="0" devices="tripinfo_flow_route_96_duration_20250327_1930.5" vType="car" speedFactor="0.99" vaporized=""/>
    <tripinfo id="flow_route_124_duration_20250327_1930.3" depart="9.00" departLane="189240000#0-AddedOnRampEdge_0" departPos="2.82" departSpeed="0.00" departDelay="0.43" arrival="103.00" arrivalLane="1254519225#0.109_3" arrivalPos="9.93" arrivalSpeed="14.03" duration="94.00" routeLength="252.14" waitingTime="44.00" waitingCount="3" stopTime="0.00" timeLoss="74.68" rerouteNo="0" devices="tripinfo_flow_route_124_duration_20250327_1930.3" vType="car" speedFactor="0.88" vaporized=""/>
    <tripinfo id="flow_route_124_duration_20250327_1930.6" depart="18.00" departLane="189240000#0-AddedOnRampEdge_0" departPos="54.76" departSpeed="0.00" departDelay="0.86" arrival="105.00" arrivalLane="1254519225#0.109_3" arrivalPos="19.20" arrivalSpeed="14.88" duration="87.00" routeLength="209.47" waitingTime="38.00" waitingCount="4" stopTime="0.00" timeLoss="72.24" rerouteNo="0" devices="tripinfo_flow_route_124_duration_20250327_1930.6" vType="car" speedFactor="0.95" vaporized=""/>
    <tripinfo id="flow_route_96_duration_20250327_1930.6" depart="55.00" departLane="1341093416#0_0" departPos="42.05" departSpeed="0.00" departDelay="3.57" arrival="106.00" arrivalLane="1254519229#0_1" arrivalPos="65.20" arrivalSpeed="12.26" duration="51.00" routeLength="318.16" waitingTime="2.00" waitingCount="1" stopTime="0.00" timeLoss="30.31" rerouteNo="0" devices="tripinfo_flow_route_96_duration_20250327_1930.6" vType="car" speedFactor="0.96" vaporized=""/>
    <tripinfo id="flow_route_94_duration_20250327_1930.4" depart="30.00" departLane="1341093416#0_0" departPos="194.88" departSpeed="0.00" departDelay="0.00" arrival="108.00" arrivalLane="799091563#0_0" arrivalPos="351.21" arrivalSpeed="16.28" duration="78.00" routeLength="462.68" waitingTime="25.00" waitingCount="1" stopTime="0.00" timeLoss="49.30" rerouteNo="0" devices="tripinfo_flow_route_94_duration_20250327_1930.4" vType="car" speedFactor="1.04" vaporized=""/>
    <tripinfo id="flow_route_124_duration_20250327_1930.4" depart="12.00" departLane="189240000#0-AddedOnRampEdge_0" departPos="21.07" departSpeed="0.00" departDelay="0.57" arrival="109.00" arrivalLane="1254519225#0.109_3" arrivalPos="16.48" arrivalSpeed="14.79" duration="97.00" routeLength="240.44" waitingTime="37.00" waitingCount="4" stopTime="0.00" timeLoss="80.76" rerouteNo="0" devices="tripinfo_flow_route_124_duration_20250327_1930.4" vType="car" speedFactor="1.02" vaporized=""/>
    <tripinfo id="flow_route_124_duration_20250327_1930.9" depart="27.00" departLane="189240000#0-AddedOnRampEdge_0" departPos="92.22" departSpeed="0.00" departDelay="1.29" arrival="109.00" arrivalLane="1254519225#0.109_3" arrivalPos="51.50" arrivalSpeed="16.12" duration="82.00" routeLength="204.31" waitingTime="40.00" waitingCount="3" stopTime="0.00" timeLoss="68.27" rerouteNo="0" devices="tripinfo_flow_route_124_duration_20250327_1930.9" vType="car" speedFactor="1.03" vaporized=""/>
    <tripinfo id="flow_route_94_duration_20250327_1930.7" depart="55.00" departLane="1341093416#0_0" departPos="122.43" departSpeed="0.00" departDelay="2.50" arrival="110.00" arrivalLane="799091563#0_2" arrivalPos="355.48" arrivalSpeed="16.41" duration="55.00" routeLength="539.40" waitingTime="0.00" waitingCount="0" stopTime="0.00" timeLoss="21.84" rerouteNo="0" devices="tripinfo_flow_route_94_duration_20250327_1930.7" vType="car" speedFactor="1.03" vaporized=""/>
    <tripinfo id="flow_route_123_duration_20250327_1930.8" depart="27.00" departLane="189240000#0-AddedOnRampEdge_0" departPos="2.25" departSpeed="0.00" departDelay="0.34" arrival="113.00" arrivalLane="1254519229#0_1" arrivalPos="29.06" arrivalSpeed="11.51" duration="86.00" routeLength="172.65" waitingTime="44.00" waitingCount="3" stopTime="0.00" timeLoss="74.37" rerouteNo="0" devices="tripinfo_flow_route_123_duration_20250327_1930.8" vType="car" speedFactor="0.96" vaporized=""/>
    <tripinfo id="flow_route_124_duration_20250327_1930.8" depart="23.00" departLane="189240000#0-AddedOnRampEdge_0" departPos="27.38" departSpeed="0.00" departDelay="0.14" arrival="114.00" arrivalLane="1254519225#0.109_3" arrivalPos="4.99" arrivalSpeed="14.82" duration="91.00" routeLength="222.64" waitingTime="39.00" waitingCount="3" stopTime="0.00" timeLoss="75.35" rerouteNo="0" devices="tripinfo_flow_route_124_duration_20250327_1930.8" vType="car" speedFactor="0.97" vaporized=""/>