<?xml version="1.0" encoding="UTF-8"?>

<!-- generated on 2025-05-06 21:07:55 by Eclipse SUMO sumo Version 1.20.0
<configuration xmlns:xsi="http://www.w3.org/2001/XMLSchema-instance" xsi:noNamespaceSchemaLocation="http://sumo.dlr.de/xsd/sumoConfiguration.xsd">

    <input>
        <net-file value="osm.net.xml"/>
        <route-files value="xml/route_static_632031937_1.rou.xml"/>
    </input>

    <output>
        <tripinfo-output value="xml/tripinfo_static_632031937_1.xml"/>
    </output>

    <traci_server>
        <remote-port value="40655"/>
    </traci_server>

</configuration>
-->

<tripinfos xmlns:xsi="http://www.w3.org/2001/XMLSchema-instance" xsi:noNamespaceSchemaLocation="http://sumo.dlr.de/xsd/tripinfo_file.xsd">
    <tripinfo id="flow_route_66_duration_20250327_1910.0" depart="0.00" departLane="-138002002#2_0" departPos="85.87" departSpeed="0.00" departDelay="0.00" arrival="20.00" arrivalLane="-138002006#3_1" arrivalPos="3.87" arrivalSpeed="13.09" duration="20.00" routeLength="121.39" waitingTime="0.00" waitingCount="0" stopTime="0.00" timeLoss="10.65" rerouteNo="0" devices="tripinfo_flow_route_66_duration_20250327_1910.0" vType="car" speedFactor="0.83" vaporized=""/>
    <tripinfo id="flow_route_53_duration_20250327_1910.3" depart="6.00" departLane="138002006#0_0" departPos="83.36" departSpeed="0.00" departDelay="0.71" arrival="21.00" arrivalLane="1369578052#0_0" arrivalPos="56.60" arrivalSpeed="10.42" duration="15.00" routeLength="81.16" waitingTime="0.00" waitingCount="0" stopTime="0.00" timeLoss="10.02" rerouteNo="0" devices="tripinfo_flow_route_53_duration_20250327_1910.3" vType="car" speedFactor="1.09" vaporized=""/>
    <tripinfo id="flow_route_53_duration_20250327_1910.4" depart="8.00" departLane="138002006#0_0" departPos="67.86" departSpeed="0.00" departDelay="0.94" arrival="23.00" arrivalLane="1369578052#0_0" arrivalPos="43.63" arrivalSpeed="11.56" duration="15.00" routeLength="83.69" waitingTime="0.00" waitingCount="0" stopTime="0.00" timeLoss="9.47" rerouteNo="0" devices="tripinfo_flow_route_53_duration_20250327_1910.4" vType="car" speedFactor="1.12" vaporized=""/>
    <tripinfo id="flow_route_53_duration_20250327_1910.0" depart="0.00" departLane="138002006#0_0" departPos="48.40" departSpeed="0.00" departDelay="0.00" arrival="24.00" arrivalLane="1369578052#0_1" arrivalPos="131.33" arrivalSpeed="15.20" duration="24.00" routeLength="190.85" waitingTime="0.00" waitingCount="0" stopTime="0.00" timeLoss="10.91" rerouteNo="0" devices="tripinfo_flow_route_53_duration_20250327_1910.0" vType="car" speedFactor="0.94" vaporized=""/>
    <tripinfo id="flow_route_53_duration_20250327_1910.1" depart="2.00" departLane="138002006#0_0" departPos="5.35" departSpeed="0.00" departDelay="0.24" arrival="24.00" arrivalLane="1369578052#0_1" arrivalPos="48.76" arrivalSpeed="12.88" duration="22.00" routeLength="151.33" waitingTime="0.00" waitingCount="0" stopTime="0.00" timeLoss="11.58" rerouteNo="0" devices="tripinfo_flow_route_53_duration_20250327_1910.1" vType="car" speedFactor="0.89" vaporized=""/>
    <tripinfo id="flow_route_53_duration_20250327_1910.2" depart="5.00" departLane="138002006#0_0" departPos="45.54" departSpeed="0.00" departDelay="1.47" arrival="28.00" arrivalLane="1369578052#0_1" arrivalPos="126.01" arrivalSpeed="13.91" duration="23.00" routeLength="188.39" waitingTime="0.00" waitingCount="0" stopTime="0.00" timeLoss="9.05" rerouteNo="0" devices="tripinfo_flow_route_53_duration_20250327_1910.2" vType="car" speedFactor="0.86" vaporized=""/>
    <tripinfo id="flow_route_52_duration_20250327_1910.0" depart="0.00" departLane="138002006#0_0" departPos="21.97" departSpeed="0.00" departDelay="0.00" arrival="30.00" arrivalLane="380351865#0_1" arrivalPos="15.21" arrivalSpeed="11.55" duration="30.00" routeLength="234.80" waitingTime="0.00" waitingCount="0" stopTime="0.00" timeLoss="10.11" rerouteNo="0" devices="tripinfo_flow_route_52_duration_20250327_1910.0" vType="car" speedFactor="1.06" vaporized=""/>
    <tripinfo id="flow_route_53_duration_20250327_1910.5" depart="9.00" departLane="138002006#0_0" departPos="2.65" departSpeed="0.00" departDelay="0.18" arrival="31.00" arrivalLane="1369578052#0_1" arrivalPos="29.33" arrivalSpeed="11.34" duration="22.00" routeLength="134.60" waitingTime="0.00" waitingCount="0" stopTime="0.00" timeLoss="13.22" rerouteNo="0" devices="tripinfo_flow_route_53_duration_20250327_1910.5" vType="car" speedFactor="0.99" vaporized=""/>
    <tripinfo id="flow_route_67_duration_20250327_1910.0" depart="1.00" departLane="-138002002#2_0" departPos="104.31" departSpeed="0.00" departDelay="1.00" arrival="32.00" arrivalLane="380351865#0_0" arrivalPos="12.69" arrivalSpeed="11.37" duration="31.00" routeLength="241.42" waitingTime="0.00" waitingCount="0" stopTime="0.00" timeLoss="11.15" rerouteNo="0" devices="tripinfo_flow_route_67_duration_20250327_1910.0" vType="car" speedFactor="1.05" vaporized=""/>
    <tripinfo id="flow_route_53_duration_20250327_1910.11" depart="20.00" departLane="138002006#0_0" departPos="82.39" departSpeed="0.00" departDelay="0.60" arrival="32.00" arrivalLane="1369578052#0_0" arrivalPos="27.99" arrivalSpeed="9.89" duration="12.00" routeLength="53.52" waitingTime="0.00" waitingCount="0" stopTime="0.00" timeLoss="7.95" rerouteNo="0" devices="tripinfo_flow_route_53_duration_20250327_1910.11" vType="car" speedFactor="0.92" vaporized=""/>
    <tripinfo id="flow_route_53_duration_20250327_1910.6" depart="12.00" departLane="138002006#0_0" departPos="23.44" departSpeed="0.00" departDelay="1.42" arrival="34.00" arrivalLane="1369578052#0_1" arrivalPos="23.11" arrivalSpeed="11.69" duration="22.00" routeLength="107.59" waitingTime="0.00" waitingCount="0" stopTime="0.00" timeLoss="14.68" rerouteNo="0" devices="tripinfo_flow_route_53_duration_20250327_1910.6" vType="car" speedFactor="0.94" vaporized=""/>
    <tripinfo id="flow_route_53_duration_20250327_1910.7" depart="15.00" departLane="138002006#0_0" departPos="52.93" departSpeed="0.00" departDelay="2.65" arrival="34.00" arrivalLane="1369578052#0_0" arrivalPos="30.96" arrivalSpeed="9.16" duration="19.00" routeLength="85.95" waitingTime="0.00" waitingCount="0" stopTime="0.00" timeLoss="13.80" rerouteNo="0" devices="tripinfo_flow_route_53_duration_20250327_1910.7" vType="car" speedFactor="1.16" vaporized=""/>
    <tripinfo id="flow_route_53_duration_20250327_1910.8" depart="15.00" departLane="138002006#0_0" departPos="61.39" departSpeed="0.00" departDelay="0.89" arrival="36.00" arrivalLane="1369578052#0_1" arrivalPos="123.16" arrivalSpeed="15.73" duration="21.00" routeLength="169.68" waitingTime="0.00" waitingCount="0" stopTime="0.00" timeLoss="10.23" rerouteNo="0" devices="tripinfo_flow_route_53_duration_20250327_1910.8" vType="car" speedFactor="1.01" vaporized=""/>
    <tripinfo id="flow_route_53_duration_20250327_1910.10" depart="18.00" departLane="138002006#0_0" departPos="16.28" departSpeed="0.00" departDelay="0.36" arrival="36.00" arrivalLane="1369578052#0_1" arrivalPos="31.04" arrivalSpeed="13.35" duration="18.00" routeLength="122.68" waitingTime="0.00" waitingCount="0" stopTime="0.00" timeLoss="8.93" rerouteNo="0" devices="tripinfo_flow_route_53_duration_20250327_1910.10" vType="car" speedFactor="0.83" vaporized=""/>
    <tripinfo id="flow_route_53_duration_20250327_1910.9" depart="16.00" departLane="138002006#0_0" departPos="43.73" departSpeed="0.00" departDelay="0.12" arrival="43.00" arrivalLane="1369578052#0_1" arrivalPos="176.95" arrivalSpeed="14.57" duration="27.00" routeLength="241.14" waitingTime="0.00" waitingCount="0" stopTime="0.00" timeLoss="10.14" rerouteNo="0" devices="tripinfo_flow_route_53_duration_20250327_1910.9" vType="car" speedFactor="0.89" vaporized=""/>
    <tripinfo id="flow_route_53_duration_20250327_1910.14" depart="26.00" departLane="138002006#0_0" departPos="73.28" departSpeed="0.00" departDelay="1.30" arrival="43.00" arrivalLane="1369578052#0_0" arrivalPos="78.01" arrivalSpeed="13.38" duration="17.00" routeLength="112.65" waitingTime="0.00" waitingCount="0" stopTime="0.00" timeLoss="9.84" rerouteNo="0" devices="tripinfo_flow_route_53_duration_20250327_1910.14" vType="car" speedFactor="0.99" vaporized=""/>
    <tripinfo id="flow_route_58_duration_20250327_1910.0" depart="0.00" departLane="186407685_0" departPos="1.07" departSpeed="0.00" departDelay="0.00" arrival="48.00" arrivalLane="-138002006#3_1" arrivalPos="43.63" arrivalSpeed="10.59" duration="48.00" routeLength="235.82" waitingTime="12.00" waitingCount="1" stopTime="0.00" timeLoss="32.71" rerouteNo="0" devices="tripinfo_flow_route_58_duration_20250327_1910.0" vType="car" speedFactor="1.08" vaporized=""/>
    <tripinfo id="flow_route_59_duration_20250327_1910.0" depart="0.00" departLane="186407685_0" departPos="119.17" departSpeed="0.00" departDelay="0.00" arrival="56.00" arrivalLane="1369578052#0_0" arrivalPos="108.75" arrivalSpeed="14.37" duration="56.00" routeLength="175.69" waitingTime="23.00" waitingCount="1" stopTime="0.00" timeLoss="43.82" rerouteNo="0" devices="tripinfo_flow_route_59_duration_20250327_1910.0" vType="car" speedFactor="1.03" vaporized=""/>
    <tripinfo id="flow_route_57_duration_20250327_1910.1" depart="20.00" departLane="186407685_0" departPos="11.86" departSpeed="0.00" departDelay="0.00" arrival="56.00" arrivalLane="380351865#0_1" arrivalPos="0.48" arrivalSpeed="10.43" duration="36.00" routeLength="325.23" waitingTime="0.00" waitingCount="0" stopTime="0.00" timeLoss="10.93" rerouteNo="0" devices="tripinfo_flow_route_57_duration_20250327_1910.1" vType="car" speedFactor="0.95" vaporized=""/>
    <tripinfo id="flow_route_57_duration_20250327_1910.0" depart="0.00" departLane="186407685_0" departPos="131.94" departSpeed="0.00" departDelay="0.00" arrival="58.00" arrivalLane="380351865#0_0" arrivalPos="0.78" arrivalSpeed="11.07" duration="58.00" routeLength="205.45" waitingTime="25.00" waitingCount="1" stopTime="0.00" timeLoss="41.24" rerouteNo="0" devices="tripinfo_flow_route_57_duration_20250327_1910.0" vType="car" speedFactor="1.01" vaporized=""/>
    <tripinfo id="flow_route_59_duration_20250327_1910.3" depart="9.00" departLane="186407685_0" departPos="121.31" departSpeed="0.00" departDelay="0.00" arrival="64.00" arrivalLane="1369578052#0_0" arrivalPos="176.33" arrivalSpeed="15.28" duration="55.00" routeLength="241.13" waitingTime="18.00" waitingCount="1" stopTime="0.00" timeLoss="38.17" rerouteNo="0" devices="tripinfo_flow_route_59_duration_20250327_1910.3" vType="car" speedFactor="0.93" vaporized=""/>
    <tripinfo id="flow_route_59_duration_20250327_1910.1" depart="3.00" departLane="186407685_0" departPos="57.01" departSpeed="0.00" departDelay="0.00" arrival="65.00" arrivalLane="1369578052#0_0" arrivalPos="161.40" arrivalSpeed="15.24" duration="62.00" routeLength="290.50" waitingTime="17.00" waitingCount="1" stopTime="0.00" timeLoss="42.84" rerouteNo="0" devices="tripinfo_flow_route_59_duration_20250327_1910.1" vType="car" speedFactor="0.94" vaporized=""/>
    <tripinfo id="flow_route_59_duration_20250327_1910.5" depart="17.00" departLane="186407685_0" departPos="102.71" departSpeed="0.00" departDelay="2.00" arrival="69.00" arrivalLane="1369578052#0_0" arrivalPos="131.90" arrivalSpeed="14.70" duration="52.00" routeLength="215.30" waitingTime="10.00" waitingCount="1" stopTime="0.00" timeLoss="37.20" rerouteNo="0" devices="tripinfo_flow_route_59_duration_20250327_1910.5" vType="car" speedFactor="0.97" vaporized=""/>
    <tripinfo id="flow_route_59_duration_20250327_1910.6" depart="18.00" departLane="186407685_0" departPos="113.62" departSpeed="0.00" departDelay="0.00" arrival="70.00" arrivalLane="1369578052#0_0" arrivalPos="176.02" arrivalSpeed="14.28" duration="52.00" routeLength="248.51" waitingTime="10.00" waitingCount="1" stopTime="0.00" timeLoss="33.92" rerouteNo="0" devices="tripinfo_flow_route_59_duration_20250327_1910.6" vType="car" speedFactor="0.87" vaporized=""/>
    <tripinfo id="flow_route_53_duration_20250327_1910.13" depart="24.00" departLane="138002006#0_0" departPos="18.85" departSpeed="0.00" departDelay="1.07" arrival="71.00" arrivalLane="1369578052#0_0" arrivalPos="14.75" arrivalSpeed="7.60" duration="47.00" routeLength="103.81" waitingTime="24.00" waitingCount="1" stopTime="0.00" timeLoss="40.52" rerouteNo="0" devices="tripinfo_flow_route_53_duration_20250327_1910.13" vType="car" speedFactor="1.01" vaporized=""/>
    <tripinfo id="flow_route_59_duration_20250327_1910.2" depart="8.00" departLane="186407685_0" departPos="5.74" departSpeed="0.00" departDelay="2.00" arrival="72.00" arrivalLane="1369578052#0_0" arrivalPos="116.77" arrivalSpeed="13.83" duration="64.00" routeLength="297.14" waitingTime="10.00" waitingCount="1" stopTime="0.00" timeLoss="45.03" rerouteNo="0" devices="tripinfo_flow_route_59_duration_20250327_1910.2" vType="car" speedFactor="1.03" vaporized=""/>
    <tripinfo id="flow_route_66_duration_20250327_1910.1" depart="10.00" departLane="-138002002#2_0" departPos="23.83" departSpeed="0.00" departDelay="0.00" arrival="73.00" arrivalLane="-138002006#3_1" arrivalPos="29.41" arrivalSpeed="9.08" duration="63.00" routeLength="208.97" waitingTime="29.00" waitingCount="1" stopTime="0.00" timeLoss="48.52" rerouteNo="0" devices="tripinfo_flow_route_66_duration_20250327_1910.1" vType="car" speedFactor="0.88" vaporized=""/>
    <tripinfo id="flow_route_59_duration_20250327_1910.4" depart="12.00" departLane="186407685_0" departPos="39.51" departSpeed="0.00" departDelay="0.00" arrival="74.00" arrivalLane="1369578052#0_0" arrivalPos="177.79" arrivalSpeed="15.57" duration="62.00" routeLength="324.39" waitingTime="10.00" waitingCount="1" stopTime="0.00" timeLoss="40.57" rerouteNo="0" devices="tripinfo_flow_route_59_duration_20250327_1910.4" vType="car" speedFactor="0.94" vaporized=""/>
    <tripinfo id="flow_route_66_duration_20250327_1910.2" depart="21.00" departLane="-138002002#2_0" departPos="57.82" departSpeed="0.00" departDelay="1.00" arrival="75.00" arrivalLane="-138002006#3_1" arrivalPos="24.76" arrivalSpeed="9.12" duration="54.00" routeLength="170.33" waitingTime="23.00" waitingCount="1" stopTime="0.00" timeLoss="43.31" rerouteNo="0" devices="tripinfo_flow_route_66_duration_20250327_1910.2" vType="car" speedFactor="1.13" vaporized=""/>
    <tripinfo id="flow_route_66_duration_20250327_1910.3" depart="32.00" departLane="-138002002#2_0" departPos="22.90" departSpeed="0.00" departDelay="2.00" arrival="80.00" arrivalLane="-138002006#3_1" arrivalPos="50.93" arrivalSpeed="11.95" duration="48.00" routeLength="231.42" waitingTime="11.00" waitingCount="1" stopTime="0.00" timeLoss="33.48" rerouteNo="0" devices="tripinfo_flow_route_66_duration_20250327_1910.3" vType="car" speedFactor="1.09" vaporized=""/>
    <tripinfo id="flow_route_66_duration_20250327_1910.5" depart="52.00" departLane="-138002002#2_0" departPos="136.51" departSpeed="0.00" departDelay="2.00" arrival="81.00" arrivalLane="-138002006#3_1" arrivalPos="22.24" arrivalSpeed="10.21" duration="29.00" routeLength="89.12" waitingTime="7.00" waitingCount="1" stopTime="0.00" timeLoss="22.74" rerouteNo="0" devices="tripinfo_flow_route_66_duration_20250327_1910.5" vType="car" speedFactor="0.88" vaporized=""/>
    <tripinfo id="flow_route_53_duration_20250327_1910.23" depart="50.00" departLane="138002006#0_0" departPos="41.35" departSpeed="0.00" departDelay="9.43" arrival="82.00" arrivalLane="1369578052#0_0" arrivalPos="0.16" arrivalSpeed="9.21" duration="32.00" routeLength="66.73" waitingTime="12.00" waitingCount="1" stopTime="0.00" timeLoss="27.57" rerouteNo="0" devices="tripinfo_flow_route_53_duration_20250327_1910.23" vType="car" speedFactor="1.00" vaporized=""/>
    <tripinfo id="flow_route_53_duration_20250327_1910.20" depart="38.00" departLane="138002006#0_0" departPos="76.04" departSpeed="0.00" departDelay="2.72" arrival="83.00" arrivalLane="1369578052#0_0" arrivalPos="122.27" arrivalSpeed="14.98" duration="45.00" routeLength="154.15" waitingTime="21.00" waitingCount="1" stopTime="0.00" timeLoss="34.18" rerouteNo="0" devices="tripinfo_flow_route_53_duration_20250327_1910.20" vType="car" speedFactor="0.90" vaporized=""/>
    <tripinfo id="flow_route_67_duration_20250327_1910.1" depart="8.00" departLane="-138002002#2_0" departPos="55.59" departSpeed="0.00" departDelay="1.33" arrival="84.00" arrivalLane="380351865#0_0" arrivalPos="15.15" arrivalSpeed="11.16" duration="76.00" routeLength="292.61" waitingTime="34.00" waitingCount="1" stopTime="0.00" timeLoss="53.03" rerouteNo="0" devices="tripinfo_flow_route_67_duration_20250327_1910.1" vType="car" speedFactor="1.05" vaporized=""/>
    <tripinfo id="flow_route_66_duration_20250327_1910.4" depart="40.00" departLane="-138002002#2_0" departPos="86.63" departSpeed="0.00" departDelay="0.00" arrival="84.00" arrivalLane="-138002006#3_1" arrivalPos="80.20" arrivalSpeed="14.10" duration="44.00" routeLength="196.96" waitingTime="10.00" waitingCount="1" stopTime="0.00" timeLoss="31.52" rerouteNo="0" devices="tripinfo_flow_route_66_duration_20250327_1910.4" vType="car" speedFactor="1.10" vaporized=""/>
    <tripinfo id="flow_route_53_duration_20250327_1910.19" depart="36.00" departLane="138002006#0_0" departPos="24.61" departSpeed="0.00" departDelay="2.48" arrival="85.00" arrivalLane="1369578052#0_0" arrivalPos="68.50" arrivalSpeed="12.62" duration="49.00" routeLength="151.80" waitingTime="18.00" waitingCount="1" stopTime="0.00" timeLoss="39.75" rerouteNo="0" devices="tripinfo_flow_route_53_duration_20250327_1910.19" vType="car" speedFactor="1.09" vaporized=""/>
    <tripinfo id="flow_route_53_duration_20250327_1910.21" depart="41.00" departLane="138002006#0_0" departPos="58.47" departSpeed="0.00" departDelay="3.96" arrival="86.00" arrivalLane="1369578052#0_0" arrivalPos="105.68" arrivalSpeed="13.85" duration="45.00" routeLength="155.14" waitingTime="19.00" waitingCount="1" stopTime="0.00" timeLoss="33.68" rerouteNo="0" devices="tripinfo_flow_route_53_duration_20250327_1910.21" vType="car" speedFactor="0.85" vaporized=""/>
    <tripinfo id="flow_route_67_duration_20250327_1910.3" depart="23.00" departLane="-138002002#2_0" departPos="132.98" departSpeed="0.00" departDelay="3.00" arrival="87.00" arrivalLane="380351865#0_0" arrivalPos="9.33" arrivalSpeed="10.26" duration="64.00" routeLength="209.41" waitingTime="29.00" waitingCount="1" stopTime="0.00" timeLoss="44.04" rerouteNo="0" devices="tripinfo_flow_route_67_duration_20250327_1910.3" vType="car" speedFactor="0.93" vaporized=""/>
    <tripinfo id="flow_route_53_duration_20250327_1910.16" depart="31.00" departLane="138002006#0_0" departPos="30.44" departSpeed="0.00" departDelay="2.78" arrival="88.00" arrivalLane="1369578052#0_0" arrivalPos="170.49" arrivalSpeed="16.23" duration="57.00" routeLength="247.97" waitingTime="20.00" waitingCount="1" stopTime="0.00" timeLoss="41.96" rerouteNo="0" devices="tripinfo_flow_route_53_duration_20250327_1910.16" vType="car" speedFactor="1.10" vaporized=""/>
    <tripinfo id="flow_route_67_duration_20250327_1910.5" depart="34.00" departLane="-138002002#2_0" departPos="155.75" departSpeed="0.00" departDelay="0.67" arrival="88.00" arrivalLane="380351865#0_0" arrivalPos="8.19" arrivalSpeed="11.00" duration="54.00" routeLength="185.50" waitingTime="23.00" waitingCount="1" stopTime="0.00" timeLoss="37.54" rerouteNo="0" devices="tripinfo_flow_route_67_duration_20250327_1910.5" vType="car" speedFactor="1.00" vaporized=""/>
    <tripinfo id="flow_route_53_duration_20250327_1910.26" depart="54.00" departLane="138002006#0_0" departPos="38.20" departSpeed="0.00" departDelay="8.14" arrival="89.00" arrivalLane="1369578052#0_0" arrivalPos="59.62" arrivalSpeed="13.00" duration="35.00" routeLength="129.34" waitingTime="9.00" waitingCount="1" stopTime="0.00" timeLoss="26.90" rerouteNo="0" devices="tripinfo_flow_route_53_duration_20250327_1910.26" vType="car" speedFactor="1.08" vaporized=""/>
    <tripinfo id="flow_route_67_duration_20250327_1910.4" depart="28.00" departLane="-138002002#2_0" departPos="115.17" departSpeed="0.00" departDelay="1.34" arrival="90.00" arrivalLane="380351865#0_0" arrivalPos="6.23" arrivalSpeed="11.75" duration="62.00" routeLength="224.11" waitingTime="23.00" waitingCount="1" stopTime="0.00" timeLoss="45.07" rerouteNo="0" devices="tripinfo_flow_route_67_duration_20250327_1910.4" vType="car" speedFactor="1.18" vaporized=""/>
    <tripinfo id="flow_route_67_duration_20250327_1910.2" depart="14.00" departLane="-138002002#2_0" departPos="16.40" departSpeed="0.00" departDelay="0.67" arrival="92.00" arrivalLane="380351865#0_0" arrivalPos="4.12" arrivalSpeed="10.85" duration="78.00" routeLength="320.77" waitingTime="21.00" waitingCount="1" stopTime="0.00" timeLoss="52.94" rerouteNo="0" devices="tripinfo_flow_route_67_duration_20250327_1910.2" vType="car" speedFactor="1.02" vaporized=""/>
    <tripinfo id="flow_route_53_duration_20250327_1910.28" depart="64.00" departLane="138002006#0_0" departPos="18.79" departSpeed="0.00" departDelay="14.61" arrival="92.00" arrivalLane="1369578052#0_0" arrivalPos="59.14" arrivalSpeed="14.26" duration="28.00" routeLength="148.27" waitingTime="1.00" waitingCount="1" stopTime="0.00" timeLoss="18.34" rerouteNo="0" devices="tripinfo_flow_route_53_duration_20250327_1910.28" vType="car" speedFactor="0.94" vaporized=""/>
    <tripinfo id="flow_route_67_duration_20250327_1910.8" depart="54.00" departLane="-138002002#2_0" departPos="136.14" departSpeed="0.00" departDelay="0.67" arrival="94.00" arrivalLane="380351865#0_0" arrivalPos="10.05" arrivalSpeed="11.16" duration="40.00" routeLength="206.96" waitingTime="7.00" waitingCount="1" stopTime="0.00" timeLoss="22.41" rerouteNo="0" devices="tripinfo_flow_route_67_duration_20250327_1910.8" vType="car" speedFactor="1.02" vaporized=""/>
    <tripinfo id="flow_route_67_duration_20250327_1910.6" depart="44.00" departLane="-138002002#2_0" departPos="85.27" departSpeed="0.00" departDelay="4.00" arrival="96.00" arrivalLane="380351865#0_0" arrivalPos="2.86" arrivalSpeed="11.02" duration="52.00" routeLength="250.64" waitingTime="6.00" waitingCount="1" stopTime="0.00" timeLoss="31.45" rerouteNo="0" devices="tripinfo_flow_route_67_duration_20250327_1910.6" vType="car" speedFactor="1.00" vaporized=""/>
    <tripinfo id="flow_route_53_duration_20250327_1910.25" depart="52.00" departLane="138002006#0_0" departPos="3.07" departSpeed="0.00" departDelay="7.90" arrival="97.00" arrivalLane="1369578052#0_0" arrivalPos="155.51" arrivalSpeed="16.13" duration="45.00" routeLength="260.36" waitingTime="7.00" waitingCount="1" stopTime="0.00" timeLoss="28.70" rerouteNo="0" devices="tripinfo_flow_route_53_duration_20250327_1910.25" vType="car" speedFactor="1.02" vaporized=""/>
    <tripinfo id="flow_route_53_duration_20250327_1910.12" depart="22.00" departLane="138002006#0_0" departPos="4.16" departSpeed="0.00" departDelay="0.83" arrival="98.00" arrivalLane="1369578052#0_1" arrivalPos="104.54" arrivalSpeed="14.64" duration="76.00" routeLength="208.30" waitingTime="34.00" waitingCount="2" stopTime="0.00" timeLoss="62.69" rerouteNo="0" devices="tripinfo_flow_route_53_duration_20250327_1910.12" vType="car" speedFactor="1.15" vaporized=""/>
    <tripinfo id="flow_route_67_duration_20250327_1910.7" depart="48.00" departLane="-138002002#2_0" departPos="41.95" departSpeed="0.00" departDelay="1.34" arrival="98.00" arrivalLane="380351865#0_0" arrivalPos="6.26" arrivalSpeed="11.87" duration="50.00" routeLength="297.35" waitingTime="4.00" waitingCount="1" stopTime="0.00" timeLoss="28.07" rerouteNo="0" devices="tripinfo_flow_route_67_duration_20250327_1910.7" vType="car" speedFactor="1.12" vaporized=""/>
    <tripinfo id="flow_route_53_duration_20250327_1910.30" depart="74.00" departLane="138002006#0_0" departPos="13.63" departSpeed="0.00" departDelay="21.08" arrival="98.00" arrivalLane="1369578052#0_0" arrivalPos="122.78" arrivalSpeed="16.40" duration="24.00" routeLength="217.07" waitingTime="0.00" waitingCount="0" stopTime="0.00" timeLoss="10.56" rerouteNo="0" devices="tripinfo_flow_route_53_duration_20250327_1910.30" vType="car" speedFactor="1.04" vaporized=""/>
    <tripinfo id="flow_route_53_duration_20250327_1910.32" depart="84.00" departLane="138002006#0_0" departPos="31.69" departSpeed="0.00" departDelay="27.55" arrival="99.00" arrivalLane="1369578052#0_0" arrivalPos="2.15" arrivalSpeed="9.08" duration="15.00" routeLength="78.37" waitingTime="0.00" waitingCount="0" stopTime="0.00" timeLoss="9.82" rerouteNo="0" devices="tripinfo_flow_route_53_duration_20250327_1910.32" vType="car" speedFactor="0.94" vaporized=""/>
    <tripinfo id="flow_route_53_duration_20250327_1910.33" depart="86.00" departLane="138002006#0_0" departPos="65.71" departSpeed="0.00" departDelay="27.79" arrival="101.00" arrivalLane="1369578052#0_0" arrivalPos="40.91" arrivalSpeed="10.72" duration="15.00" routeLength="83.12" waitingTime="0.00" waitingCount="0" stopTime="0.00" timeLoss="9.65" rerouteNo="0" devices="tripinfo_flow_route_53_duration_20250327_1910.33" vType="car" speedFactor="0.96" vaporized=""/>
    <tripinfo id="flow_route_53_duration_20250327_1910.15" depart="27.00" departLane="138002006#0_0" departPos="2.12" departSpeed="0.00" departDelay="0.54" arrival="102.00" arrivalLane="1369578052#0_1" arrivalPos="107.84" arrivalSpeed="14.07" duration="75.00" routeLength="213.64" waitingTime="34.00" waitingCount="2" stopTime="0.00" timeLoss="61.54" rerouteNo="0" devices="tripinfo_flow_route_53_duration_20250327_1910.15" vType="car" speedFactor="1.02" vaporized=""/>
    <tripinfo id="flow_route_52_duration_20250327_1910.1" depart="31.00" departLane="138002006#0_0" departPos="62.09" departSpeed="0.00" departDelay="1.00" arrival="102.00" arrivalLane="380351865#0_1" arrivalPos="12.13" arrivalSpeed="10.00" duration="71.00" routeLength="191.60" waitingTime="36.00" waitingCount="2" stopTime="0.00" timeLoss="51.91" rerouteNo="0" devices="tripinfo_flow_route_52_duration_20250327_1910.1" vType="car" speedFactor="0.90" vaporized=""/>
    <tripinfo id="flow_route_53_duration_20250327_1910.17" depart="34.00" departLane="138002006#0_0" departPos="3.78" departSpeed="0.00" departDelay="4.01" arrival="104.00" arrivalLane="1369578052#0_1" arrivalPos="84.01" arrivalSpeed="13.80" duration="70.00" routeLength="188.15" waitingTime="25.00" waitingCount="2" stopTime="0.00" timeLoss="58.11" rerouteNo="0" devices="tripinfo_flow_route_53_duration_20250327_1910.17" vType="car" speedFactor="1.03" vaporized=""/>
    <tripinfo id="flow_route_53_duration_20250327_1910.18" depart="35.00" departLane="138002006#0_0" departPos="13.63" departSpeed="0.00" departDelay="3.25" arrival="106.00" arrivalLane="1369578052#0_1" arrivalPos="143.96" arrivalSpeed="15.97" duration="71.00" routeLength="238.25" waitingTime="26.00" waitingCount="2" stopTime="0.00" timeLoss="56.38" rerouteNo="0" devices="tripinfo_flow_route_53_duration_20250327_1910.18" vType="car" speedFactor="1.04" vaporized=""/>
    <tripinfo id="flow_route_53_duration_20250327_1910.22" depart="45.00" departLane="138002006#0_0" departPos="18.42" departSpeed="0.00" departDelay="6.19" arrival="112.00" arrivalLane="1369578052#0_1" arrivalPos="174.15" arrivalSpeed="14.12" duration="67.00" routeLength="263.65" waitingTime="24.00" waitingCount="2" stopTime="0.00" timeLoss="48.01" rerouteNo="0" devices="tripinfo_flow_route_53_duration_20250327_1910.22" vType="car" speedFactor="0.85" vaporized=""/>
    <tripinfo id="flow_route_59_duration_20250327_1910.9" depart="29.00" departLane="186407685_0" departPos="87.24" departSpeed="0.00" departDelay="2.00" arrival="115.00" arrivalLane="1369578052#0_0" arrivalPos="76.90" arrivalSpeed="10.82" duration="86.00" routeLength="175.77" waitingTime="43.00" waitingCount="2" stopTime="0.00" timeLoss="74.20" rerouteNo="0" devices="tripinfo_flow_route_59_duration_20250327_1910.9" vType="car" speedFactor="0.97" vaporized=""/>
    <tripinfo id="flow_route_59_duration_20250327_1910.8" depart="28.00" departLane="186407685_0" departPos="18.54" departSpeed="0.00" departDelay="4.00" arrival="119.00" arrivalLane="1369578052#0_0" arrivalPos="53.46" arrivalSpeed="11.07" duration="91.00" routeLength="221.03" waitingTime="36.00" waitingCount="2" stopTime="0.00" timeLoss="76.70" rerouteNo="0" devices="tripinfo_flow_route_59_duration_20250327_1910.8" vType="car" speedFactor="1.17" vaporized=""/>
    <tripinfo id="flow_route_57_duration_20250327_1910.2" depart="52.00" departLane="186407685_0" departPos="14.98" departSpeed="0.00" departDelay="12.00" arrival="122.00" arrivalLane="380351865#0_1" arrivalPos="8.24" arrivalSpeed="11.13" duration="70.00" routeLength="329.87" waitingTime="25.00" waitingCount="1" stopTime="0.00" timeLoss="45.40" rerouteNo="0" devices="tripinfo_flow_route_57_duration_20250327_1910.2" vType="car" speedFactor="1.02" vaporized=""/>
    <tripinfo id="flow_route_59_duration_20250327_1910.7" depart="22.00" departLane="186407685_0" departPos="31.99" departSpeed="0.00" departDelay="1.00" arrival="124.00" arrivalLane="1369578052#0_0" arrivalPos="182.91" arrivalSpeed="16.28" duration="102.00" routeLength="337.03" waitingTime="43.00" waitingCount="2" stopTime="0.00" timeLoss="80.83" rerouteNo="0" devices="tripinfo_flow_route_59_duration_20250327_1910.7" vType="car" speedFactor="1.18" vaporized=""/>
    <tripinfo id="flow_route_59_duration_20250327_1910.10" depart="34.00" departLane="186407685_0" departPos="69.17" departSpeed="0.00" departDelay="4.00" arrival="125.00" arrivalLane="1369578052#0_0" arrivalPos="161.07" arrivalSpeed="15.64" duration="91.00" routeLength="278.01" waitingTime="38.00" waitingCount="2" stopTime="0.00" timeLoss="72.03" rerouteNo="0" devices="tripinfo_flow_route_59_duration_20250327_1910.10" vType="car" speedFactor="0.96" vaporized=""/>