<?xml version="1.0" encoding="UTF-8"?>

<!-- generated on 2025-05-06 21:08:22 by Eclipse SUMO sumo Version 1.20.0
<configuration xmlns:xsi="http://www.w3.org/2001/XMLSchema-instance" xsi:noNamespaceSchemaLocation="http://sumo.dlr.de/xsd/sumoConfiguration.xsd">

    <input>
        <net-file value="osm.net.xml"/>
        <route-files value="xml/route_rl_cluster7571105647_7571105653_cluster_1141265322_11869698130_256036890_4227138136_#4more_4.rou.xml"/>
    </input>

    <output>
        <tripinfo-output value="xml/tripinfo_rl_cluster7571105647_7571105653_cluster_1141265322_11869698130_256036890_4227138136_#4more_4.xml"/>
    </output>

    <traci_server>
        <remote-port value="36115"/>
    </traci_server>

</configuration>
-->

<tripinfos xmlns:xsi="http://www.w3.org/2001/XMLSchema-instance" xsi:noNamespaceSchemaLocation="http://sumo.dlr.de/xsd/tripinfo_file.xsd">
    <tripinfo id="flow_route_143_duration_20250327_2030.0" depart="0.00" departLane="1253222187#0_0" departPos="157.10" departSpeed="0.00" departDelay="0.00" arrival="28.00" arrivalLane="1310781056_0" arrivalPos="55.73" arrivalSpeed="16.37" duration="28.00" routeLength="267.13" waitingTime="0.00" waitingCount="0" stopTime="0.00" timeLoss="11.65" rerouteNo="0" devices="tripinfo_flow_route_143_duration_20250327_2030.0" vType="car" speedFactor="1.08" vaporized=""/>
    <tripinfo id="flow_route_143_duration_20250327_2030.2" depart="10.00" departLane="1253222187#0_0" departPos="144.44" departSpeed="0.00" departDelay="0.00" arrival="38.00" arrivalLane="1310781056_0" arrivalPos="18.04" arrivalSpeed="16.17" duration="28.00" routeLength="242.10" waitingTime="0.00" waitingCount="0" stopTime="0.00" timeLoss="12.81" rerouteNo="0" devices="tripinfo_flow_route_143_duration_20250327_2030.2" vType="car" speedFactor="1.05" vaporized=""/>
    <tripinfo id="flow_route_143_duration_20250327_2030.1" depart="5.00" departLane="1253222187#0_0" departPos="108.15" departSpeed="0.00" departDelay="0.00" arrival="43.00" arrivalLane="1310781056_0" arrivalPos="36.51" arrivalSpeed="16.31" duration="38.00" routeLength="296.86" waitingTime="0.00" waitingCount="0" stopTime="0.00" timeLoss="18.97" rerouteNo="0" devices="tripinfo_flow_route_143_duration_20250327_2030.1" vType="car" speedFactor="0.89" vaporized=""/>
    <tripinfo id="flow_route_143_duration_20250327_2030.3" depart="16.00" departLane="1253222187#0_0" departPos="125.71" departSpeed="0.00" departDelay="1.00" arrival="48.00" arrivalLane="1310781056_0" arrivalPos="64.82" arrivalSpeed="16.54" duration="32.00" routeLength="307.61" waitingTime="0.00" waitingCount="0" stopTime="0.00" timeLoss="12.35" rerouteNo="0" devices="tripinfo_flow_route_143_duration_20250327_2030.3" vType="car" speedFactor="0.88" vaporized=""/>
    <tripinfo id="flow_route_142_duration_20250327_2030.0" depart="0.00" departLane="1253222187#0_0" departPos="114.97" departSpeed="0.00" departDelay="0.00" arrival="53.00" arrivalLane="683079388#0_0" arrivalPos="1.17" arrivalSpeed="16.33" duration="53.00" routeLength="684.52" waitingTime="0.00" waitingCount="0" stopTime="0.00" timeLoss="11.27" rerouteNo="0" devices="tripinfo_flow_route_142_duration_20250327_2030.0" vType="car" speedFactor="1.01" vaporized=""/>
    <tripinfo id="flow_route_140_duration_20250327_2030.3" depart="26.00" departLane="809719540#0_0" departPos="113.68" departSpeed="0.00" departDelay="0.29" arrival="57.00" arrivalLane="-809772643#1_1" arrivalPos="59.97" arrivalSpeed="13.24" duration="31.00" routeLength="256.57" waitingTime="0.00" waitingCount="0" stopTime="0.00" timeLoss="13.78" rerouteNo="0" devices="tripinfo_flow_route_140_duration_20250327_2030.3" vType="car" speedFactor="0.92" vaporized=""/>
    <tripinfo id="flow_route_140_duration_20250327_2030.1" depart="9.00" departLane="809719540#0_0" departPos="81.05" departSpeed="0.00" departDelay="0.43" arrival="59.00" arrivalLane="-809772643#1_1" arrivalPos="112.54" arrivalSpeed="15.07" duration="50.00" routeLength="341.77" waitingTime="4.00" waitingCount="1" stopTime="0.00" timeLoss="29.05" rerouteNo="0" devices="tripinfo_flow_route_140_duration_20250327_2030.1" vType="car" speedFactor="1.09" vaporized=""/>
    <tripinfo id="flow_route_142_duration_20250327_2030.4" depart="12.00" departLane="1253222187#0_0" departPos="203.36" departSpeed="0.00" departDelay="0.57" arrival="60.00" arrivalLane="683079388#0_0" arrivalPos="3.24" arrivalSpeed="16.06" duration="48.00" routeLength="598.18" waitingTime="0.00" waitingCount="0" stopTime="0.00" timeLoss="10.99" rerouteNo="0" devices="tripinfo_flow_route_142_duration_20250327_2030.4" vType="car" speedFactor="0.99" vaporized=""/>
    <tripinfo id="flow_route_140_duration_20250327_2030.4" depart="35.00" departLane="809719540#0_0" departPos="187.88" departSpeed="0.00" departDelay="0.72" arrival="61.00" arrivalLane="-809772643#1_0" arrivalPos="118.61" arrivalSpeed="15.10" duration="26.00" routeLength="238.18" waitingTime="0.00" waitingCount="0" stopTime="0.00" timeLoss="11.59" rerouteNo="0" devices="tripinfo_flow_route_140_duration_20250327_2030.4" vType="car" speedFactor="1.17" vaporized=""/>
    <tripinfo id="flow_route_140_duration_20250327_2030.0" depart="0.00" departLane="809719540#0_0" departPos="199.64" departSpeed="0.00" departDelay="0.00" arrival="62.00" arrivalLane="-809772643#1_0" arrivalPos="184.22" arrivalSpeed="16.16" duration="62.00" routeLength="292.04" waitingTime="24.00" waitingCount="1" stopTime="0.00" timeLoss="44.26" rerouteNo="0" devices="tripinfo_flow_route_140_duration_20250327_2030.0" vType="car" speedFactor="1.06" vaporized=""/>
    <tripinfo id="flow_route_142_duration_20250327_2030.1" depart="3.00" departLane="1253222187#0_0" departPos="12.70" departSpeed="0.00" departDelay="0.14" arrival="65.00" arrivalLane="683079388#0_0" arrivalPos="14.62" arrivalSpeed="16.39" duration="62.00" routeLength="800.23" waitingTime="0.00" waitingCount="0" stopTime="0.00" timeLoss="12.83" rerouteNo="0" devices="tripinfo_flow_route_142_duration_20250327_2030.1" vType="car" speedFactor="1.05" vaporized=""/>
    <tripinfo id="flow_route_140_duration_20250327_2030.2" depart="18.00" departLane="809719540#0_0" departPos="155.81" departSpeed="0.00" departDelay="0.86" arrival="65.00" arrivalLane="-809772643#1_0" arrivalPos="198.48" arrivalSpeed="15.27" duration="47.00" routeLength="350.12" waitingTime="2.00" waitingCount="1" stopTime="0.00" timeLoss="24.11" rerouteNo="0" devices="tripinfo_flow_route_140_duration_20250327_2030.2" vType="car" speedFactor="0.94" vaporized=""/>
    <tripinfo id="flow_route_142_duration_20250327_2030.2" depart="6.00" departLane="1253222187#0_0" departPos="173.80" departSpeed="0.00" departDelay="0.29" arrival="66.00" arrivalLane="683079388#0_0" arrivalPos="16.36" arrivalSpeed="13.92" duration="60.00" routeLength="640.87" waitingTime="0.00" waitingCount="0" stopTime="0.00" timeLoss="14.99" rerouteNo="0" devices="tripinfo_flow_route_142_duration_20250327_2030.2" vType="car" speedFactor="0.86" vaporized=""/>
    <tripinfo id="flow_route_142_duration_20250327_2030.5" depart="16.00" departLane="1253222187#0_0" departPos="150.87" departSpeed="0.00" departDelay="1.72" arrival="69.00" arrivalLane="683079388#0_0" arrivalPos="4.34" arrivalSpeed="14.96" duration="53.00" routeLength="651.78" waitingTime="0.00" waitingCount="0" stopTime="0.00" timeLoss="10.19" rerouteNo="0" devices="tripinfo_flow_route_142_duration_20250327_2030.5" vType="car" speedFactor="0.93" vaporized=""/>
    <tripinfo id="flow_route_140_duration_20250327_2030.5" depart="43.00" departLane="809719540#0_0" departPos="182.88" departSpeed="0.00" departDelay="0.15" arrival="69.00" arrivalLane="-809772643#1_0" arrivalPos="121.80" arrivalSpeed="15.88" duration="26.00" routeLength="246.37" waitingTime="0.00" waitingCount="0" stopTime="0.00" timeLoss="9.84" rerouteNo="0" devices="tripinfo_flow_route_140_duration_20250327_2030.5" vType="car" speedFactor="0.96" vaporized=""/>
    <tripinfo id="flow_route_142_duration_20250327_2030.7" depart="20.00" departLane="1253222187#0_0" departPos="195.68" departSpeed="0.00" departDelay="0.00" arrival="70.00" arrivalLane="683079388#0_2" arrivalPos="16.57" arrivalSpeed="16.26" duration="50.00" routeLength="619.20" waitingTime="0.00" waitingCount="0" stopTime="0.00" timeLoss="12.08" rerouteNo="0" devices="tripinfo_flow_route_142_duration_20250327_2030.7" vType="car" speedFactor="1.02" vaporized=""/>
    <tripinfo id="flow_route_142_duration_20250327_2030.3" depart="10.00" departLane="1253222187#0_0" departPos="6.29" departSpeed="0.00" departDelay="1.43" arrival="71.00" arrivalLane="683079388#0_0" arrivalPos="6.11" arrivalSpeed="16.45" duration="61.00" routeLength="798.13" waitingTime="0.00" waitingCount="0" stopTime="0.00" timeLoss="12.81" rerouteNo="0" devices="tripinfo_flow_route_142_duration_20250327_2030.3" vType="car" speedFactor="1.03" vaporized=""/>
    <tripinfo id="flow_route_141_duration_20250327_2030.0" depart="0.00" departLane="809719540#0_0" departPos="66.48" departSpeed="0.00" departDelay="0.00" arrival="92.00" arrivalLane="683079387#1_1" arrivalPos="7.27" arrivalSpeed="6.50" duration="92.00" routeLength="843.38" waitingTime="12.00" waitingCount="1" stopTime="0.00" timeLoss="35.12" rerouteNo="0" devices="tripinfo_flow_route_141_duration_20250327_2030.0" vType="car" speedFactor="0.94" vaporized=""/>
    <tripinfo id="flow_route_146_duration_20250327_2030.4" depart="24.00" departLane="683079387#1_0" departPos="2.12" departSpeed="0.00" departDelay="4.00" arrival="92.00" arrivalLane="-809772643#1_1" arrivalPos="5.76" arrivalSpeed="10.35" duration="68.00" routeLength="616.61" waitingTime="5.00" waitingCount="1" stopTime="0.00" timeLoss="29.75" rerouteNo="0" devices="tripinfo_flow_route_146_duration_20250327_2030.4" vType="car" speedFactor="0.97" vaporized=""/>
    <tripinfo id="flow_route_147_duration_20250327_2030.0" depart="5.00" departLane="683079387#1_0" departPos="0.47" departSpeed="0.00" departDelay="5.00" arrival="95.00" arrivalLane="1310781056_0" arrivalPos="4.95" arrivalSpeed="13.39" duration="90.00" routeLength="684.30" waitingTime="19.00" waitingCount="1" stopTime="0.00" timeLoss="40.26" rerouteNo="0" devices="tripinfo_flow_route_147_duration_20250327_2030.0" vType="car" speedFactor="0.83" vaporized=""/>
    <tripinfo id="flow_route_146_duration_20250327_2030.3" depart="20.00" departLane="683079387#1_0" departPos="2.85" departSpeed="0.00" departDelay="5.00" arrival="95.00" arrivalLane="-809772643#1_0" arrivalPos="49.91" arrivalSpeed="13.76" duration="75.00" routeLength="660.03" waitingTime="10.00" waitingCount="1" stopTime="0.00" timeLoss="32.58" rerouteNo="0" devices="tripinfo_flow_route_146_duration_20250327_2030.3" vType="car" speedFactor="0.94" vaporized=""/>
    <tripinfo id="flow_route_146_duration_20250327_2030.5" depart="29.00" departLane="683079387#1_0" departPos="4.26" departSpeed="0.00" departDelay="4.00" arrival="95.00" arrivalLane="-809772643#1_0" arrivalPos="16.54" arrivalSpeed="12.50" duration="66.00" routeLength="625.25" waitingTime="0.00" waitingCount="0" stopTime="0.00" timeLoss="22.47" rerouteNo="0" devices="tripinfo_flow_route_146_duration_20250327_2030.5" vType="car" speedFactor="0.87" vaporized=""/>
    <tripinfo id="flow_route_146_duration_20250327_2030.0" depart="0.00" departLane="683079387#1_0" departPos="0.06" departSpeed="0.00" departDelay="0.00" arrival="96.00" arrivalLane="-809772643#1_0" arrivalPos="121.98" arrivalSpeed="16.28" duration="96.00" routeLength="734.89" waitingTime="28.00" waitingCount="1" stopTime="0.00" timeLoss="51.61" rerouteNo="0" devices="tripinfo_flow_route_146_duration_20250327_2030.0" vType="car" speedFactor="1.03" vaporized=""/>
    <tripinfo id="flow_route_146_duration_20250327_2030.1" depart="9.00" departLane="683079387#1_0" departPos="0.33" departSpeed="0.00" departDelay="4.00" arrival="98.00" arrivalLane="-809772643#1_0" arrivalPos="141.34" arrivalSpeed="15.37" duration="89.00" routeLength="753.98" waitingTime="16.00" waitingCount="1" stopTime="0.00" timeLoss="39.80" rerouteNo="0" devices="tripinfo_flow_route_146_duration_20250327_2030.1" vType="car" speedFactor="0.94" vaporized=""/>
    <tripinfo id="flow_route_146_duration_20250327_2030.6" depart="35.00" departLane="683079387#1_0" departPos="3.50" departSpeed="0.00" departDelay="5.00" arrival="98.00" arrivalLane="-809772643#1_1" arrivalPos="62.59" arrivalSpeed="14.22" duration="63.00" routeLength="672.06" waitingTime="0.00" waitingCount="0" stopTime="0.00" timeLoss="22.39" rerouteNo="0" devices="tripinfo_flow_route_146_duration_20250327_2030.6" vType="car" speedFactor="1.15" vaporized=""/>
    <tripinfo id="flow_route_146_duration_20250327_2030.8" depart="44.00" departLane="683079387#1_0" departPos="5.85" departSpeed="0.00" departDelay="4.00" arrival="101.00" arrivalLane="-809772643#1_1" arrivalPos="80.77" arrivalSpeed="15.66" duration="57.00" routeLength="687.89" waitingTime="0.00" waitingCount="0" stopTime="0.00" timeLoss="15.27" rerouteNo="0" devices="tripinfo_flow_route_146_duration_20250327_2030.8" vType="car" speedFactor="1.03" vaporized=""/>
    <tripinfo id="flow_route_146_duration_20250327_2030.7" depart="41.00" departLane="683079387#1_0" departPos="8.63" departSpeed="0.00" departDelay="6.00" arrival="102.00" arrivalLane="-809772643#1_0" arrivalPos="84.99" arrivalSpeed="15.86" duration="61.00" routeLength="689.33" waitingTime="0.00" waitingCount="0" stopTime="0.00" timeLoss="18.00" rerouteNo="0" devices="tripinfo_flow_route_146_duration_20250327_2030.7" vType="car" speedFactor="0.97" vaporized=""/>
    <tripinfo id="flow_route_146_duration_20250327_2030.2" depart="16.00" departLane="683079387#1_0" departPos="6.82" departSpeed="0.00" departDelay="6.00" arrival="103.00" arrivalLane="-809772643#1_1" arrivalPos="197.78" arrivalSpeed="16.35" duration="87.00" routeLength="803.93" waitingTime="13.00" waitingCount="1" stopTime="0.00" timeLoss="37.71" rerouteNo="0" devices="tripinfo_flow_route_146_duration_20250327_2030.2" vType="car" speedFactor="1.12" vaporized=""/>
    <tripinfo id="flow_route_141_duration_20250327_2030.1" depart="30.00" departLane="809719540#0_0" departPos="28.13" departSpeed="0.00" departDelay="0.00" arrival="103.00" arrivalLane="683079387#1_1" arrivalPos="9.97" arrivalSpeed="6.43" duration="73.00" routeLength="884.43" waitingTime="0.00" waitingCount="0" stopTime="0.00" timeLoss="13.06" rerouteNo="0" devices="tripinfo_flow_route_141_duration_20250327_2030.1" vType="car" speedFactor="0.93" vaporized=""/>
    <tripinfo id="flow_route_146_duration_20250327_2030.9" depart="49.00" departLane="683079387#1_0" departPos="3.53" departSpeed="0.00" departDelay="4.00" arrival="109.00" arrivalLane="-809772643#1_0" arrivalPos="177.10" arrivalSpeed="16.42" duration="60.00" routeLength="786.54" waitingTime="0.00" waitingCount="0" stopTime="0.00" timeLoss="12.35" rerouteNo="0" devices="tripinfo_flow_route_146_duration_20250327_2030.9" vType="car" speedFactor="1.04" vaporized=""/>
    <tripinfo id="flow_route_146_duration_20250327_2030.10" depart="55.00" departLane="683079387#1_0" departPos="9.56" departSpeed="0.00" departDelay="5.00" arrival="110.00" arrivalLane="-809772643#1_0" arrivalPos="70.06" arrivalSpeed="14.40" duration="55.00" routeLength="673.47" waitingTime="0.00" waitingCount="0" stopTime="0.00" timeLoss="8.92" rerouteNo="0" devices="tripinfo_flow_route_146_duration_20250327_2030.10" vType="car" speedFactor="0.88" vaporized=""/>
    <tripinfo id="flow_route_146_duration_20250327_2030.11" depart="57.00" departLane="683079387#1_0" departPos="1.57" departSpeed="0.00" departDelay="2.00" arrival="111.00" arrivalLane="-809772643#1_1" arrivalPos="100.78" arrivalSpeed="16.59" duration="54.00" routeLength="712.19" waitingTime="0.00" waitingCount="0" stopTime="0.00" timeLoss="11.02" rerouteNo="0" devices="tripinfo_flow_route_146_duration_20250327_2030.11" vType="car" speedFactor="1.10" vaporized=""/>
    <tripinfo id="flow_route_142_duration_20250327_2030.6" depart="20.00" departLane="1253222187#0_0" departPos="115.28" departSpeed="0.00" departDelay="2.86" arrival="121.00" arrivalLane="683079388#0_0" arrivalPos="7.95" arrivalSpeed="16.43" duration="101.00" routeLength="690.98" waitingTime="36.00" waitingCount="1" stopTime="0.00" timeLoss="58.58" rerouteNo="0" devices="tripinfo_flow_route_142_duration_20250327_2030.6" vType="car" speedFactor="1.16" vaporized=""/>
    <tripinfo id="flow_route_142_duration_20250327_2030.9" depart="27.00" departLane="1253222187#0_0" departPos="108.12" departSpeed="0.00" departDelay="1.29" arrival="122.00" arrivalLane="683079388#0_2" arrivalPos="5.48" arrivalSpeed="15.70" duration="95.00" routeLength="695.67" waitingTime="29.00" waitingCount="1" stopTime="0.00" timeLoss="50.61" rerouteNo="0" devices="tripinfo_flow_route_142_duration_20250327_2030.9" vType="car" speedFactor="0.95" vaporized=""/>
    <tripinfo id="flow_route_140_duration_20250327_2030.6" depart="52.00" departLane="809719540#0_0" departPos="110.63" departSpeed="0.00" departDelay="0.57" arrival="123.00" arrivalLane="-809772643#1_0" arrivalPos="2.41" arrivalSpeed="8.10" duration="71.00" routeLength="199.24" waitingTime="37.00" waitingCount="1" stopTime="0.00" timeLoss="56.55" rerouteNo="0" devices="tripinfo_flow_route_140_duration_20250327_2030.6" vType="car" speedFactor="0.85" vaporized=""/>
    <tripinfo id="flow_route_143_duration_20250327_2030.5" depart="25.00" departLane="1253222187#0_0" departPos="152.20" departSpeed="0.00" departDelay="0.00" arrival="124.00" arrivalLane="1310781056_0" arrivalPos="5.31" arrivalSpeed="15.19" duration="99.00" routeLength="221.61" waitingTime="61.00" waitingCount="2" stopTime="0.00" timeLoss="84.62" rerouteNo="0" devices="tripinfo_flow_route_143_duration_20250327_2030.5" vType="car" speedFactor="0.83" vaporized=""/>
    <tripinfo id="flow_route_142_duration_20250327_2030.13" depart="38.00" departLane="1253222187#0_0" departPos="185.96" departSpeed="0.00" departDelay="0.86" arrival="124.00" arrivalLane="683079388#0_0" arrivalPos="18.42" arrivalSpeed="16.52" duration="86.00" routeLength="630.77" waitingTime="28.00" waitingCount="1" stopTime="0.00" timeLoss="47.30" rerouteNo="0" devices="tripinfo_flow_route_142_duration_20250327_2030.13" vType="car" speedFactor="1.18" vaporized=""/>
    <tripinfo id="flow_route_142_duration_20250327_2030.11" depart="32.00" departLane="1253222187#0_0" departPos="149.85" departSpeed="0.00" departDelay="0.57" arrival="125.00" arrivalLane="683079388#0_0" arrivalPos="12.72" arrivalSpeed="16.56" duration="93.00" routeLength="661.18" waitingTime="28.00" waitingCount="1" stopTime="0.00" timeLoss="52.96" rerouteNo="0" devices="tripinfo_flow_route_142_duration_20250327_2030.11" vType="car" speedFactor="1.01" vaporized=""/>
    <tripinfo id="flow_route_142_duration_20250327_2030.8" depart="24.00" departLane="1253222187#0_0" departPos="38.09" departSpeed="0.00" departDelay="1.14" arrival="126.00" arrivalLane="683079388#0_2" arrivalPos="8.75" arrivalSpeed="14.75" duration="102.00" routeLength="768.97" waitingTime="27.00" waitingCount="1" stopTime="0.00" timeLoss="50.13" rerouteNo="0" devices="tripinfo_flow_route_142_duration_20250327_2030.8" vType="car" speedFactor="0.89" vaporized=""/>
    <tripinfo id="flow_route_143_duration_20250327_2030.6" depart="30.00" departLane="1253222187#0_0" departPos="184.60" departSpeed="0.00" departDelay="0.00" arrival="126.00" arrivalLane="1310781056_0" arrivalPos="2.70" arrivalSpeed="16.04" duration="96.00" routeLength="186.61" waitingTime="58.00" waitingCount="4" stopTime="0.00" timeLoss="83.91" rerouteNo="0" devices="tripinfo_flow_route_143_duration_20250327_2030.6" vType="car" speedFactor="1.18" vaporized=""/>
    <tripinfo id="flow_route_142_duration_20250327_2030.17" depart="49.00" departLane="1253222187#0_0" departPos="168.24" departSpeed="0.00" departDelay="0.43" arrival="127.00" arrivalLane="683079388#0_0" arrivalPos="4.32" arrivalSpeed="16.26" duration="78.00" routeLength="634.39" waitingTime="21.00" waitingCount="1" stopTime="0.00" timeLoss="38.91" rerouteNo="0" devices="tripinfo_flow_route_142_duration_20250327_2030.17" vType="car" speedFactor="1.00" vaporized=""/>
    <tripinfo id="flow_route_142_duration_20250327_2030.10" depart="29.00" departLane="1253222187#0_0" departPos="76.99" departSpeed="0.00" departDelay="0.43" arrival="128.00" arrivalLane="683079388#0_2" arrivalPos="15.11" arrivalSpeed="16.24" duration="99.00" routeLength="736.42" waitingTime="27.00" waitingCount="1" stopTime="0.00" timeLoss="54.50" rerouteNo="0" devices="tripinfo_flow_route_142_duration_20250327_2030.10" vType="car" speedFactor="1.13" vaporized=""/>
    <tripinfo id="flow_route_142_duration_20250327_2030.15" depart="43.00" departLane="1253222187#0_0" departPos="124.96" departSpeed="0.00" departDelay="0.15" arrival="128.00" arrivalLane="683079388#0_0" arrivalPos="7.16" arrivalSpeed="16.58" duration="85.00" routeLength="680.51" waitingTime="20.00" waitingCount="1" stopTime="0.00" timeLoss="43.90" rerouteNo="0" devices="tripinfo_flow_route_142_duration_20250327_2030.15" vType="car" speedFactor="1.09" vaporized=""/>
    <tripinfo id="flow_route_142_duration_20250327_2030.12" depart="35.00" departLane="1253222187#0_0" departPos="21.41" departSpeed="0.00" departDelay="0.72" arrival="131.00" arrivalLane="683079388#0_2" arrivalPos="25.08" arrivalSpeed="16.26" duration="96.00" routeLength="801.99" waitingTime="18.00" waitingCount="1" stopTime="0.00" timeLoss="46.67" rerouteNo="0" devices="tripinfo_flow_route_142_duration_20250327_2030.12" vType="car" speedFactor="0.99" vaporized=""/>
    <tripinfo id="flow_route_142_duration_20250327_2030.14" depart="42.00" departLane="1253222187#0_0" departPos="72.65" departSpeed="0.00" departDelay="2.00" arrival="131.00" arrivalLane="683079388#0_2" arrivalPos="12.39" arrivalSpeed="16.26" duration="89.00" routeLength="738.06" waitingTime="16.00" waitingCount="1" stopTime="0.00" timeLoss="44.34" rerouteNo="0" devices="tripinfo_flow_route_142_duration_20250327_2030.14" vType="car" speedFactor="1.10" vaporized=""/>
    <tripinfo id="flow_route_142_duration_20250327_2030.16" depart="47.00" departLane="1253222187#0_0" departPos="101.77" departSpeed="0.00" departDelay="1.29" arrival="131.00" arrivalLane="683079388#0_0" arrivalPos="24.39" arrivalSpeed="16.14" duration="84.00" routeLength="720.93" waitingTime="17.00" waitingCount="1" stopTime="0.00" timeLoss="40.16" rerouteNo="0" devices="tripinfo_flow_route_142_duration_20250327_2030.16" vType="car" speedFactor="1.09" vaporized=""/>
    <tripinfo id="flow_route_142_duration_20250327_2030.19" depart="58.00" departLane="1253222187#0_0" departPos="68.19" departSpeed="0.00" departDelay="3.72" arrival="132.00" arrivalLane="683079388#0_0" arrivalPos="10.16" arrivalSpeed="16.57" duration="74.00" routeLength="740.28" waitingTime="5.00" waitingCount="1" stopTime="0.00" timeLoss="28.63" rerouteNo="0" devices="tripinfo_flow_route_142_duration_20250327_2030.19" vType="car" speedFactor="1.17" vaporized=""/>
    <tripinfo id="flow_route_142_duration_20250327_2030.20" depart="61.00" departLane="1253222187#0_0" departPos="33.23" departSpeed="0.00" departDelay="3.86" arrival="135.00" arrivalLane="683079388#0_2" arrivalPos="11.53" arrivalSpeed="16.16" duration="74.00" routeLength="776.61" waitingTime="0.00" waitingCount="0" stopTime="0.00" timeLoss="26.36" rerouteNo="0" devices="tripinfo_flow_route_142_duration_20250327_2030.20" vType="car" speedFactor="1.00" vaporized=""/>
    <tripinfo id="flow_route_142_duration_20250327_2030.18" depart="52.00" departLane="1253222187#0_0" departPos="24.11" departSpeed="0.00" departDelay="0.57" arrival="136.00" arrivalLane="683079388#0_0" arrivalPos="12.56" arrivalSpeed="14.23" duration="84.00" routeLength="786.76" waitingTime="6.00" waitingCount="1" stopTime="0.00" timeLoss="27.81" rerouteNo="0" devices="tripinfo_flow_route_142_duration_20250327_2030.18" vType="car" speedFactor="0.85" vaporized=""/>
    <tripinfo id="flow_route_143_duration_20250327_2030.4" depart="20.00" departLane="1253222187#0_0" departPos="14.12" departSpeed="0.00" departDelay="0.00" arrival="171.00" arrivalLane="1310781056_0" arrivalPos="17.22" arrivalSpeed="16.48" duration="151.00" routeLength="371.60" waitingTime="92.00" waitingCount="3" stopTime="0.00" timeLoss="127.90" rerouteNo="0" devices="tripinfo_flow_route_143_duration_20250327_2030.4" vType="car" speedFactor="1.01" vaporized=""/>
    <tripinfo id="flow_route_143_duration_20250327_2030.7" depart="37.00" departLane="1253222187#0_0" departPos="150.16" departSpeed="0.00" departDelay="2.00" arrival="174.00" arrivalLane="1310781056_0" arrivalPos="33.60" arrivalSpeed="16.49" duration="137.00" routeLength="251.94" waitingTime="89.00" waitingCount="3" stopTime="0.00" timeLoss="120.93" rerouteNo="0" devices="tripinfo_flow_route_143_duration_20250327_2030.7" vType="car" speedFactor="1.02" vaporized=""/>
    <tripinfo id="flow_route_143_duration_20250327_2030.8" depart="42.00" departLane="1253222187#0_0" departPos="139.85" departSpeed="0.00" departDelay="2.00" arrival="174.00" arrivalLane="1310781056_0" arrivalPos="4.83" arrivalSpeed="16.29" duration="132.00" routeLength="233.48" waitingTime="82.00" waitingCount="3" stopTime="0.00" timeLoss="116.61" rerouteNo="0" devices="tripinfo_flow_route_143_duration_20250327_2030.8" vType="car" speedFactor="0.90" vaporized=""/>
    <tripinfo id="flow_route_143_duration_20250327_2030.9" depart="46.00" departLane="1253222187#0_0" departPos="115.80" departSpeed="0.00" departDelay="1.00" arrival="176.00" arrivalLane="1310781056_0" arrivalPos="11.67" arrivalSpeed="16.56" duration="130.00" routeLength="264.36" waitingTime="76.00" waitingCount="3" stopTime="0.00" timeLoss="113.69" rerouteNo="0" devices="tripinfo_flow_route_143_duration_20250327_2030.9" vType="car" speedFactor="1.04" vaporized=""/>
    <tripinfo id="flow_route_143_duration_20250327_2030.10" depart="50.00" departLane="1253222187#0_0" departPos="0.18" departSpeed="0.00" departDelay="0.00" arrival="184.00" arrivalLane="1310781056_0" arrivalPos="53.33" arrivalSpeed="16.24" duration="134.00" routeLength="421.65" waitingTime="61.00" waitingCount="3" stopTime="0.00" timeLoss="106.52" rerouteNo="0" devices="tripinfo_flow_route_143_duration_20250327_2030.10" vType="car" speedFactor="0.90" vaporized=""/>
    <tripinfo id="flow_route_143_duration_20250327_2030.11" depart="59.00" departLane="1253222187#0_0" departPos="93.74" departSpeed="0.00" departDelay="4.00" arrival="184.00" arrivalLane="1310781056_0" arrivalPos="113.03" arrivalSpeed="16.18" duration="125.00" routeLength="387.79" waitingTime="62.00" waitingCount="3" stopTime="0.00" timeLoss="101.43" rerouteNo="0" devices="tripinfo_flow_route_143_duration_20250327_2030.11" vType="car" speedFactor="1.02" vaporized=""/>
</tripinfos>
