<?xml version="1.0" encoding="UTF-8"?>

<!-- generated on 2025-05-06 21:09:13 by Eclipse SUMO sumo Version 1.20.0
<configuration xmlns:xsi="http://www.w3.org/2001/XMLSchema-instance" xsi:noNamespaceSchemaLocation="http://sumo.dlr.de/xsd/sumoConfiguration.xsd">

    <input>
        <net-file value="osm.net.xml"/>
        <route-files value="xml/route_rl_cluster_3839031475_3839031476_4110471700_4234582615_9.rou.xml"/>
    </input>

    <output>
        <tripinfo-output value="xml/tripinfo_rl_cluster_3839031475_3839031476_4110471700_4234582615_9.xml"/>
    </output>

    <traci_server>
        <remote-port value="38315"/>
    </traci_server>

</configuration>
-->

<tripinfos xmlns:xsi="http://www.w3.org/2001/XMLSchema-instance" xsi:noNamespaceSchemaLocation="http://sumo.dlr.de/xsd/tripinfo_file.xsd">
    <tripinfo id="flow_route_85_duration_20250327_2050.0" depart="0.00" departLane="1091883842_0" departPos="162.60" departSpeed="0.00" departDelay="0.00" arrival="16.00" arrivalLane="133000063_0" arrivalPos="42.63" arrivalSpeed="9.42" duration="16.00" routeLength="74.77" waitingTime="0.00" waitingCount="0" stopTime="0.00" timeLoss="9.23" rerouteNo="0" devices="tripinfo_flow_route_85_duration_20250327_2050.0" vType="car" speedFactor="0.89" vaporized=""/>
    <tripinfo id="flow_route_84_duration_20250327_2050.1" depart="4.00" departLane="1091883842_0" departPos="95.26" departSpeed="0.00" departDelay="0.25" arrival="24.00" arrivalLane="136617981_1" arrivalPos="13.09" arrivalSpeed="13.96" duration="20.00" routeLength="136.12" waitingTime="0.00" waitingCount="0" stopTime="0.00" timeLoss="11.36" rerouteNo="0" devices="tripinfo_flow_route_84_duration_20250327_2050.1" vType="car" speedFactor="1.09" vaporized=""/>
    <tripinfo id="flow_route_84_duration_20250327_2050.2" depart="9.00" departLane="1091883842_0" departPos="141.98" departSpeed="0.00" departDelay="1.50" arrival="26.00" arrivalLane="136617981_0" arrivalPos="9.19" arrivalSpeed="9.54" duration="17.00" routeLength="85.50" waitingTime="0.00" waitingCount="0" stopTime="0.00" timeLoss="11.45" rerouteNo="0" devices="tripinfo_flow_route_84_duration_20250327_2050.2" vType="car" speedFactor="0.99" vaporized=""/>
    <tripinfo id="flow_route_79_duration_20250327_2050.0" depart="0.00" departLane="380344611#0_0" departPos="128.21" departSpeed="0.00" departDelay="0.00" arrival="28.00" arrivalLane="423956929_1" arrivalPos="91.18" arrivalSpeed="16.56" duration="28.00" routeLength="278.79" waitingTime="0.00" waitingCount="0" stopTime="0.00" timeLoss="10.65" rerouteNo="0" devices="tripinfo_flow_route_79_duration_20250327_2050.0" vType="car" speedFactor="1.08" vaporized=""/>
    <tripinfo id="flow_route_80_duration_20250327_2050.0" depart="0.00" departLane="380344611#0_0" departPos="160.58" departSpeed="0.00" departDelay="0.00" arrival="31.00" arrivalLane="380593307#0_0" arrivalPos="102.42" arrivalSpeed="13.82" duration="31.00" routeLength="234.46" waitingTime="0.00" waitingCount="0" stopTime="0.00" timeLoss="16.09" rerouteNo="0" devices="tripinfo_flow_route_80_duration_20250327_2050.0" vType="car" speedFactor="1.03" vaporized=""/>
    <tripinfo id="flow_route_84_duration_20250327_2050.3" depart="12.00" departLane="1091883842_0" departPos="179.13" departSpeed="0.00" departDelay="0.75" arrival="32.00" arrivalLane="136617981_0" arrivalPos="93.90" arrivalSpeed="14.16" duration="20.00" routeLength="133.06" waitingTime="0.00" waitingCount="0" stopTime="0.00" timeLoss="10.61" rerouteNo="0" devices="tripinfo_flow_route_84_duration_20250327_2050.3" vType="car" speedFactor="0.94" vaporized=""/>
    <tripinfo id="flow_route_84_duration_20250327_2050.0" depart="0.00" departLane="1091883842_0" departPos="11.19" departSpeed="0.00" departDelay="0.00" arrival="38.00" arrivalLane="136617981_1" arrivalPos="210.65" arrivalSpeed="16.50" duration="38.00" routeLength="417.75" waitingTime="0.00" waitingCount="0" stopTime="0.00" timeLoss="12.08" rerouteNo="0" devices="tripinfo_flow_route_84_duration_20250327_2050.0" vType="car" speedFactor="1.05" vaporized=""/>
    <tripinfo id="flow_route_81_duration_20250327_2050.0" depart="0.00" departLane="380344611#0_0" departPos="75.01" departSpeed="0.00" departDelay="0.00" arrival="44.00" arrivalLane="133000063_2" arrivalPos="7.51" arrivalSpeed="7.68" duration="44.00" routeLength="248.37" waitingTime="6.00" waitingCount="1" stopTime="0.00" timeLoss="24.71" rerouteNo="0" devices="tripinfo_flow_route_81_duration_20250327_2050.0" vType="car" speedFactor="0.83" vaporized=""/>
    <tripinfo id="flow_route_84_duration_20250327_2050.5" depart="20.00" departLane="1091883842_0" departPos="178.27" departSpeed="0.00" departDelay="1.25" arrival="46.00" arrivalLane="136617981_0" arrivalPos="196.02" arrivalSpeed="13.31" duration="26.00" routeLength="236.04" waitingTime="0.00" waitingCount="0" stopTime="0.00" timeLoss="8.72" rerouteNo="0" devices="tripinfo_flow_route_84_duration_20250327_2050.5" vType="car" speedFactor="0.83" vaporized=""/>
    <tripinfo id="flow_route_81_duration_20250327_2050.1" depart="6.00" departLane="380344611#0_0" departPos="251.70" departSpeed="0.00" departDelay="0.00" arrival="51.00" arrivalLane="133000063_2" arrivalPos="109.11" arrivalSpeed="14.03" duration="45.00" routeLength="173.28" waitingTime="14.00" waitingCount="1" stopTime="0.00" timeLoss="33.47" rerouteNo="0" devices="tripinfo_flow_route_81_duration_20250327_2050.1" vType="car" speedFactor="1.05" vaporized=""/>
    <tripinfo id="flow_route_81_duration_20250327_2050.5" depart="30.00" departLane="380344611#0_0" departPos="204.70" departSpeed="0.00" departDelay="0.00" arrival="53.00" arrivalLane="133000063_2" arrivalPos="14.82" arrivalSpeed="8.48" duration="23.00" routeLength="125.98" waitingTime="0.00" waitingCount="0" stopTime="0.00" timeLoss="14.27" rerouteNo="0" devices="tripinfo_flow_route_81_duration_20250327_2050.5" vType="car" speedFactor="0.99" vaporized=""/>
    <tripinfo id="flow_route_81_duration_20250327_2050.3" depart="18.00" departLane="380344611#0_0" departPos="169.07" departSpeed="0.00" departDelay="0.00" arrival="56.00" arrivalLane="133000063_2" arrivalPos="115.08" arrivalSpeed="14.48" duration="38.00" routeLength="261.88" waitingTime="0.00" waitingCount="0" stopTime="0.00" timeLoss="19.33" rerouteNo="0" devices="tripinfo_flow_route_81_duration_20250327_2050.3" vType="car" speedFactor="0.89" vaporized=""/>
    <tripinfo id="flow_route_81_duration_20250327_2050.2" depart="12.00" departLane="380344611#0_0" departPos="116.65" departSpeed="0.00" departDelay="0.00" arrival="58.00" arrivalLane="133000063_2" arrivalPos="118.00" arrivalSpeed="15.38" duration="46.00" routeLength="317.22" waitingTime="0.00" waitingCount="0" stopTime="0.00" timeLoss="24.57" rerouteNo="0" devices="tripinfo_flow_route_81_duration_20250327_2050.2" vType="car" speedFactor="0.94" vaporized=""/>
    <tripinfo id="flow_route_90_duration_20250327_2050.0" depart="0.00" departLane="380585338#0_0" departPos="118.71" departSpeed="0.00" departDelay="0.00" arrival="59.00" arrivalLane="136617981_0" arrivalPos="211.18" arrivalSpeed="14.21" duration="59.00" routeLength="279.54" waitingTime="19.00" waitingCount="1" stopTime="0.00" timeLoss="37.63" rerouteNo="0" devices="tripinfo_flow_route_90_duration_20250327_2050.0" vType="car" speedFactor="0.86" vaporized=""/>
    <tripinfo id="flow_route_81_duration_20250327_2050.4" depart="24.00" departLane="380344611#0_0" departPos="79.07" departSpeed="0.00" departDelay="0.00" arrival="63.00" arrivalLane="133000063_2" arrivalPos="110.52" arrivalSpeed="16.08" duration="39.00" routeLength="347.31" waitingTime="0.00" waitingCount="0" stopTime="0.00" timeLoss="17.17" rerouteNo="0" devices="tripinfo_flow_route_81_duration_20250327_2050.4" vType="car" speedFactor="1.13" vaporized=""/>
    <tripinfo id="flow_route_81_duration_20250327_2050.8" depart="48.00" departLane="380344611#0_0" departPos="191.50" departSpeed="0.00" departDelay="0.00" arrival="69.00" arrivalLane="133000063_2" arrivalPos="7.34" arrivalSpeed="10.36" duration="21.00" routeLength="131.70" waitingTime="0.00" waitingCount="0" stopTime="0.00" timeLoss="10.37" rerouteNo="0" devices="tripinfo_flow_route_81_duration_20250327_2050.8" vType="car" speedFactor="0.85" vaporized=""/>
    <tripinfo id="flow_route_81_duration_20250327_2050.7" depart="42.00" departLane="380344611#0_0" departPos="97.23" departSpeed="0.00" departDelay="0.00" arrival="84.00" arrivalLane="133000063_2" arrivalPos="167.33" arrivalSpeed="16.13" duration="42.00" routeLength="385.97" waitingTime="0.00" waitingCount="0" stopTime="0.00" timeLoss="17.29" rerouteNo="0" devices="tripinfo_flow_route_81_duration_20250327_2050.7" vType="car" speedFactor="1.04" vaporized=""/>
    <tripinfo id="flow_route_89_duration_20250327_2050.2" depart="12.00" departLane="380585338#0_0" departPos="22.47" departSpeed="0.00" departDelay="1.09" arrival="87.00" arrivalLane="380593307#0_1" arrivalPos="27.62" arrivalSpeed="10.09" duration="75.00" routeLength="215.43" waitingTime="41.00" waitingCount="1" stopTime="0.00" timeLoss="60.90" rerouteNo="0" devices="tripinfo_flow_route_89_duration_20250327_2050.2" vType="car" speedFactor="0.93" vaporized=""/>
    <tripinfo id="flow_route_89_duration_20250327_2050.3" depart="17.00" departLane="380585338#0_0" departPos="140.95" departSpeed="0.00" departDelay="0.64" arrival="87.00" arrivalLane="380593307#0_0" arrivalPos="41.91" arrivalSpeed="10.40" duration="70.00" routeLength="111.23" waitingTime="40.00" waitingCount="2" stopTime="0.00" timeLoss="63.21" rerouteNo="0" devices="tripinfo_flow_route_89_duration_20250327_2050.3" vType="car" speedFactor="1.01" vaporized=""/>
    <tripinfo id="flow_route_90_duration_20250327_2050.1" depart="15.00" departLane="380585338#0_0" departPos="99.26" departSpeed="0.00" departDelay="0.00" arrival="89.00" arrivalLane="136617981_0" arrivalPos="63.24" arrivalSpeed="11.16" duration="74.00" routeLength="151.05" waitingTime="38.00" waitingCount="2" stopTime="0.00" timeLoss="63.65" rerouteNo="0" devices="tripinfo_flow_route_90_duration_20250327_2050.1" vType="car" speedFactor="1.02" vaporized=""/>
    <tripinfo id="flow_route_77_duration_20250327_2050.1" depart="30.00" departLane="133342692#0_0" departPos="8.03" departSpeed="0.00" departDelay="0.00" arrival="89.00" arrivalLane="423956929_0" arrivalPos="58.23" arrivalSpeed="11.75" duration="59.00" routeLength="232.73" waitingTime="21.00" waitingCount="1" stopTime="0.00" timeLoss="43.68" rerouteNo="0" devices="tripinfo_flow_route_77_duration_20250327_2050.1" vType="car" speedFactor="1.01" vaporized=""/>
    <tripinfo id="flow_route_89_duration_20250327_2050.5" depart="28.00" departLane="380585338#0_0" departPos="31.08" departSpeed="0.00" departDelay="0.73" arrival="90.00" arrivalLane="380593307#0_0" arrivalPos="11.63" arrivalSpeed="9.50" duration="62.00" routeLength="190.82" waitingTime="27.00" waitingCount="1" stopTime="0.00" timeLoss="50.41" rerouteNo="0" devices="tripinfo_flow_route_89_duration_20250327_2050.5" vType="car" speedFactor="1.18" vaporized=""/>
    <tripinfo id="flow_route_77_duration_20250327_2050.0" depart="0.00" departLane="133342692#0_0" departPos="115.39" departSpeed="0.00" departDelay="0.00" arrival="91.00" arrivalLane="423956929_0" arrivalPos="132.19" arrivalSpeed="15.11" duration="91.00" routeLength="199.33" waitingTime="59.00" waitingCount="1" stopTime="0.00" timeLoss="77.14" rerouteNo="0" devices="tripinfo_flow_route_77_duration_20250327_2050.0" vType="car" speedFactor="0.94" vaporized=""/>
    <tripinfo id="flow_route_89_duration_20250327_2050.0" depart="0.00" departLane="380585338#0_0" departPos="55.91" departSpeed="0.00" departDelay="0.00" arrival="91.00" arrivalLane="380593307#0_0" arrivalPos="94.67" arrivalSpeed="13.69" duration="91.00" routeLength="249.03" waitingTime="52.00" waitingCount="1" stopTime="0.00" timeLoss="74.70" rerouteNo="0" devices="tripinfo_flow_route_89_duration_20250327_2050.0" vType="car" speedFactor="0.94" vaporized=""/>
    <tripinfo id="flow_route_90_duration_20250327_2050.2" depart="31.00" departLane="380585338#0_0" departPos="117.85" departSpeed="0.00" departDelay="1.00" arrival="91.00" arrivalLane="136617981_0" arrivalPos="58.72" arrivalSpeed="11.35" duration="60.00" routeLength="127.93" waitingTime="31.00" waitingCount="1" stopTime="0.00" timeLoss="50.60" rerouteNo="0" devices="tripinfo_flow_route_90_duration_20250327_2050.2" vType="car" speedFactor="0.97" vaporized=""/>
    <tripinfo id="flow_route_89_duration_20250327_2050.4" depart="23.00" departLane="380585338#0_0" departPos="29.24" departSpeed="0.00" departDelay="1.18" arrival="92.00" arrivalLane="380593307#0_1" arrivalPos="53.43" arrivalSpeed="12.70" duration="69.00" routeLength="234.46" waitingTime="30.00" waitingCount="1" stopTime="0.00" timeLoss="52.24" rerouteNo="0" devices="tripinfo_flow_route_89_duration_20250327_2050.4" vType="car" speedFactor="0.87" vaporized=""/>
    <tripinfo id="flow_route_89_duration_20250327_2050.9" depart="51.00" departLane="380585338#0_0" departPos="59.83" departSpeed="0.00" departDelay="1.91" arrival="92.00" arrivalLane="380593307#0_2" arrivalPos="26.66" arrivalSpeed="11.04" duration="41.00" routeLength="177.10" waitingTime="6.00" waitingCount="1" stopTime="0.00" timeLoss="29.82" rerouteNo="0" devices="tripinfo_flow_route_89_duration_20250327_2050.9" vType="car" speedFactor="1.02" vaporized=""/>
    <tripinfo id="flow_route_89_duration_20250327_2050.6" depart="34.00" departLane="380585338#0_0" departPos="143.35" departSpeed="0.00" departDelay="1.28" arrival="94.00" arrivalLane="380593307#0_2" arrivalPos="106.79" arrivalSpeed="14.71" duration="60.00" routeLength="173.71" waitingTime="31.00" waitingCount="1" stopTime="0.00" timeLoss="49.19" rerouteNo="0" devices="tripinfo_flow_route_89_duration_20250327_2050.6" vType="car" speedFactor="1.18" vaporized=""/>
    <tripinfo id="flow_route_76_duration_20250327_2050.0" depart="0.00" departLane="133342692#0_0" departPos="1.03" departSpeed="0.00" departDelay="0.00" arrival="95.00" arrivalLane="133000063_1" arrivalPos="153.47" arrivalSpeed="16.00" duration="95.00" routeLength="359.35" waitingTime="49.00" waitingCount="1" stopTime="0.00" timeLoss="72.85" rerouteNo="0" devices="tripinfo_flow_route_76_duration_20250327_2050.0" vType="car" speedFactor="1.06" vaporized=""/>
    <tripinfo id="flow_route_89_duration_20250327_2050.1" depart="7.00" departLane="380585338#0_0" departPos="41.11" departSpeed="0.00" departDelay="1.55" arrival="96.00" arrivalLane="380593307#0_2" arrivalPos="163.03" arrivalSpeed="16.40" duration="89.00" routeLength="332.19" waitingTime="43.00" waitingCount="1" stopTime="0.00" timeLoss="68.61" rerouteNo="0" devices="tripinfo_flow_route_89_duration_20250327_2050.1" vType="car" speedFactor="1.12" vaporized=""/>
    <tripinfo id="flow_route_76_duration_20250327_2050.1" depart="30.00" departLane="133342692#0_0" departPos="30.97" departSpeed="0.00" departDelay="0.00" arrival="97.00" arrivalLane="133000063_0" arrivalPos="170.91" arrivalSpeed="16.54" duration="67.00" routeLength="346.85" waitingTime="24.00" waitingCount="1" stopTime="0.00" timeLoss="45.42" rerouteNo="0" devices="tripinfo_flow_route_76_duration_20250327_2050.1" vType="car" speedFactor="1.15" vaporized=""/>
    <tripinfo id="flow_route_78_duration_20250327_2050.0" depart="0.00" departLane="133342692#0_0" departPos="79.92" departSpeed="0.00" departDelay="0.00" arrival="98.00" arrivalLane="136617981_2" arrivalPos="12.89" arrivalSpeed="6.64" duration="98.00" routeLength="138.43" waitingTime="64.00" waitingCount="2" stopTime="0.00" timeLoss="88.76" rerouteNo="0" devices="tripinfo_flow_route_78_duration_20250327_2050.0" vType="car" speedFactor="1.01" vaporized=""/>
    <tripinfo id="flow_route_89_duration_20250327_2050.8" depart="45.00" departLane="380585338#0_0" departPos="21.58" departSpeed="0.00" departDelay="1.37" arrival="98.00" arrivalLane="380593307#0_1" arrivalPos="114.90" arrivalSpeed="16.19" duration="53.00" routeLength="303.58" waitingTime="8.00" waitingCount="1" stopTime="0.00" timeLoss="33.94" rerouteNo="0" devices="tripinfo_flow_route_89_duration_20250327_2050.8" vType="car" speedFactor="1.00" vaporized=""/>
    <tripinfo id="flow_route_89_duration_20250327_2050.7" depart="40.00" departLane="380585338#0_0" departPos="79.15" departSpeed="0.00" departDelay="1.82" arrival="99.00" arrivalLane="380593307#0_2" arrivalPos="160.57" arrivalSpeed="16.50" duration="59.00" routeLength="291.70" waitingTime="18.00" waitingCount="1" stopTime="0.00" timeLoss="41.36" rerouteNo="0" devices="tripinfo_flow_route_89_duration_20250327_2050.7" vType="car" speedFactor="1.09" vaporized=""/>
    <tripinfo id="flow_route_89_duration_20250327_2050.10" depart="56.00" departLane="380585338#0_0" departPos="17.86" departSpeed="0.00" departDelay="1.46" arrival="99.00" arrivalLane="380593307#0_1" arrivalPos="102.90" arrivalSpeed="14.52" duration="43.00" routeLength="295.30" waitingTime="0.00" waitingCount="0" stopTime="0.00" timeLoss="22.42" rerouteNo="0" devices="tripinfo_flow_route_89_duration_20250327_2050.10" vType="car" speedFactor="0.90" vaporized=""/>
    <tripinfo id="flow_route_78_duration_20250327_2050.3" depart="18.00" departLane="133342692#0_0" departPos="122.68" departSpeed="0.00" departDelay="0.00" arrival="104.00" arrivalLane="136617981_2" arrivalPos="25.23" arrivalSpeed="9.64" duration="86.00" routeLength="108.01" waitingTime="53.00" waitingCount="2" stopTime="0.00" timeLoss="78.03" rerouteNo="0" devices="tripinfo_flow_route_78_duration_20250327_2050.3" vType="car" speedFactor="0.97" vaporized=""/>
    <tripinfo id="flow_route_90_duration_20250327_2050.3" depart="47.00" departLane="380585338#0_0" departPos="64.53" departSpeed="0.00" departDelay="2.00" arrival="106.00" arrivalLane="136617981_0" arrivalPos="201.86" arrivalSpeed="14.34" duration="59.00" routeLength="324.40" waitingTime="13.00" waitingCount="1" stopTime="0.00" timeLoss="34.97" rerouteNo="0" devices="tripinfo_flow_route_90_duration_20250327_2050.3" vType="car" speedFactor="0.88" vaporized=""/>
    <tripinfo id="flow_route_78_duration_20250327_2050.1" depart="7.00" departLane="133342692#0_0" departPos="93.32" departSpeed="0.00" departDelay="1.00" arrival="107.00" arrivalLane="136617981_2" arrivalPos="87.03" arrivalSpeed="12.40" duration="100.00" routeLength="199.17" waitingTime="59.00" waitingCount="2" stopTime="0.00" timeLoss="87.33" rerouteNo="0" devices="tripinfo_flow_route_78_duration_20250327_2050.1" vType="car" speedFactor="1.03" vaporized=""/>
    <tripinfo id="flow_route_78_duration_20250327_2050.2" depart="12.00" departLane="133342692#0_0" departPos="21.50" departSpeed="0.00" departDelay="0.00" arrival="108.00" arrivalLane="136617981_2" arrivalPos="8.45" arrivalSpeed="8.76" duration="96.00" routeLength="192.42" waitingTime="50.00" waitingCount="2" stopTime="0.00" timeLoss="81.38" rerouteNo="0" devices="tripinfo_flow_route_78_duration_20250327_2050.2" vType="car" speedFactor="0.88" vaporized=""/>
    <tripinfo id="flow_route_78_duration_20250327_2050.4" depart="24.00" departLane="133342692#0_0" departPos="4.77" departSpeed="0.00" departDelay="0.00" arrival="114.00" arrivalLane="136617981_2" arrivalPos="51.97" arrivalSpeed="11.87" duration="90.00" routeLength="252.65" waitingTime="38.00" waitingCount="2" stopTime="0.00" timeLoss="72.64" rerouteNo="0" devices="tripinfo_flow_route_78_duration_20250327_2050.4" vType="car" speedFactor="0.95" vaporized=""/>
    <tripinfo id="flow_route_78_duration_20250327_2050.6" depart="38.00" departLane="133342692#0_0" departPos="150.11" departSpeed="0.00" departDelay="2.00" arrival="114.00" arrivalLane="136617981_2" arrivalPos="118.24" arrivalSpeed="14.70" duration="76.00" routeLength="173.58" waitingTime="44.00" waitingCount="3" stopTime="0.00" timeLoss="62.97" rerouteNo="0" devices="tripinfo_flow_route_78_duration_20250327_2050.6" vType="car" speedFactor="0.90" vaporized=""/>
    <tripinfo id="flow_route_78_duration_20250327_2050.5" depart="32.00" departLane="133342692#0_0" departPos="72.56" departSpeed="0.00" departDelay="2.00" arrival="121.00" arrivalLane="136617981_2" arrivalPos="96.08" arrivalSpeed="14.79" duration="89.00" routeLength="228.98" waitingTime="34.00" waitingCount="2" stopTime="0.00" timeLoss="74.05" rerouteNo="0" devices="tripinfo_flow_route_78_duration_20250327_2050.5" vType="car" speedFactor="1.17" vaporized=""/>
    <tripinfo id="flow_route_78_duration_20250327_2050.8" depart="48.00" departLane="133342692#0_0" departPos="66.98" departSpeed="0.00" departDelay="0.00" arrival="125.00" arrivalLane="136617981_2" arrivalPos="136.05" arrivalSpeed="13.83" duration="77.00" routeLength="274.53" waitingTime="25.00" waitingCount="2" stopTime="0.00" timeLoss="56.49" rerouteNo="0" devices="tripinfo_flow_route_78_duration_20250327_2050.8" vType="car" speedFactor="0.85" vaporized=""/>
    <tripinfo id="flow_route_78_duration_20250327_2050.7" depart="43.00" departLane="133342692#0_0" departPos="17.41" departSpeed="0.00" departDelay="1.00" arrival="129.00" arrivalLane="136617981_2" arrivalPos="162.58" arrivalSpeed="16.58" duration="86.00" routeLength="350.64" waitingTime="23.00" waitingCount="2" stopTime="0.00" timeLoss="64.06" rerouteNo="0" devices="tripinfo_flow_route_78_duration_20250327_2050.7" vType="car" speedFactor="1.04" vaporized=""/>
    <tripinfo id="flow_route_78_duration_20250327_2050.9" depart="54.00" departLane="133342692#0_0" departPos="65.06" departSpeed="0.00" departDelay="0.00" arrival="131.00" arrivalLane="136617981_2" arrivalPos="166.96" arrivalSpeed="16.58" duration="77.00" routeLength="307.36" waitingTime="20.00" waitingCount="2" stopTime="0.00" timeLoss="57.46" rerouteNo="0" devices="tripinfo_flow_route_78_duration_20250327_2050.9" vType="car" speedFactor="1.00" vaporized=""/>
    <tripinfo id="flow_route_84_duration_20250327_2050.10" depart="41.00" departLane="1091883842_0" departPos="162.28" departSpeed="0.00" departDelay="3.50" arrival="161.00" arrivalLane="136617981_0" arrivalPos="29.68" arrivalSpeed="10.58" duration="120.00" routeLength="85.69" waitingTime="98.00" waitingCount="1" stopTime="0.00" timeLoss="114.02" rerouteNo="0" devices="tripinfo_flow_route_84_duration_20250327_2050.10" vType="car" speedFactor="0.96" vaporized=""/>
    <tripinfo id="flow_route_84_duration_20250327_2050.4" depart="15.00" departLane="1091883842_0" departPos="31.19" departSpeed="0.00" departDelay="0.00" arrival="163.00" arrivalLane="136617981_2" arrivalPos="74.84" arrivalSpeed="12.37" duration="148.00" routeLength="261.94" waitingTime="109.00" waitingCount="1" stopTime="0.00" timeLoss="132.06" rerouteNo="0" devices="tripinfo_flow_route_84_duration_20250327_2050.4" vType="car" speedFactor="1.16" vaporized=""/>
    <tripinfo id="flow_route_84_duration_20250327_2050.7" depart="27.00" departLane="1091883842_0" departPos="172.36" departSpeed="0.00" departDelay="0.75" arrival="168.00" arrivalLane="136617981_0" arrivalPos="154.97" arrivalSpeed="15.34" duration="141.00" routeLength="200.90" waitingTime="113.00" waitingCount="1" stopTime="0.00" timeLoss="127.48" rerouteNo="0" devices="tripinfo_flow_route_84_duration_20250327_2050.7" vType="car" speedFactor="0.93" vaporized=""/>
    <tripinfo id="flow_route_84_duration_20250327_2050.12" depart="45.00" departLane="1091883842_0" departPos="132.46" departSpeed="0.00" departDelay="0.00" arrival="168.00" arrivalLane="136617981_1" arrivalPos="79.70" arrivalSpeed="14.02" duration="123.00" routeLength="165.53" waitingTime="93.00" waitingCount="1" stopTime="0.00" timeLoss="111.51" rerouteNo="0" devices="tripinfo_flow_route_84_duration_20250327_2050.12" vType="car" speedFactor="0.90" vaporized=""/>
    <tripinfo id="flow_route_84_duration_20250327_2050.6" depart="24.00" departLane="1091883842_0" departPos="28.20" departSpeed="0.00" departDelay="1.50" arrival="169.00" arrivalLane="136617981_1" arrivalPos="164.40" arrivalSpeed="14.88" duration="145.00" routeLength="354.50" waitingTime="100.00" waitingCount="1" stopTime="0.00" timeLoss="121.67" rerouteNo="0" devices="tripinfo_flow_route_84_duration_20250327_2050.6" vType="car" speedFactor="0.92" vaporized=""/>
    <tripinfo id="flow_route_84_duration_20250327_2050.11" depart="43.00" departLane="1091883842_0" departPos="86.60" departSpeed="0.00" departDelay="1.75" arrival="169.00" arrivalLane="136617981_0" arrivalPos="83.98" arrivalSpeed="14.08" duration="126.00" routeLength="215.67" waitingTime="89.00" waitingCount="1" stopTime="0.00" timeLoss="112.94" rerouteNo="0" devices="tripinfo_flow_route_84_duration_20250327_2050.11" vType="car" speedFactor="1.09" vaporized=""/>
    <tripinfo id="flow_route_84_duration_20250327_2050.8" depart="30.00" departLane="1091883842_0" departPos="65.34" departSpeed="0.00" departDelay="0.00" arrival="171.00" arrivalLane="136617981_1" arrivalPos="160.74" arrivalSpeed="16.29" duration="141.00" routeLength="313.69" waitingTime="97.00" waitingCount="1" stopTime="0.00" timeLoss="121.28" rerouteNo="0" devices="tripinfo_flow_route_84_duration_20250327_2050.8" vType="car" speedFactor="1.02" vaporized=""/>
    <tripinfo id="flow_route_84_duration_20250327_2050.9" depart="34.00" departLane="1091883842_0" departPos="108.64" departSpeed="0.00" departDelay="0.25" arrival="171.00" arrivalLane="136617981_0" arrivalPos="145.34" arrivalSpeed="16.50" duration="137.00" routeLength="254.99" waitingTime="98.00" waitingCount="1" stopTime="0.00" timeLoss="121.28" rerouteNo="0" devices="tripinfo_flow_route_84_duration_20250327_2050.9" vType="car" speedFactor="1.10" vaporized=""/>
    <tripinfo id="flow_route_81_duration_20250327_2050.9" depart="54.00" departLane="380344611#0_0" departPos="193.07" departSpeed="0.00" departDelay="0.00" arrival="174.00" arrivalLane="133000063_2" arrivalPos="47.76" arrivalSpeed="9.75" duration="120.00" routeLength="170.56" waitingTime="80.00" waitingCount="2" stopTime="0.00" timeLoss="108.78" rerouteNo="0" devices="tripinfo_flow_route_81_duration_20250327_2050.9" vType="car" speedFactor="1.00" vaporized=""/>
    <tripinfo id="flow_route_81_duration_20250327_2050.6" depart="36.00" departLane="380344611#0_0" departPos="6.76" departSpeed="0.00" departDelay="0.00" arrival="177.00" arrivalLane="133000063_2" arrivalPos="62.90" arrivalSpeed="11.87" duration="141.00" routeLength="372.01" waitingTime="78.00" waitingCount="3" stopTime="0.00" timeLoss="117.77" rerouteNo="0" devices="tripinfo_flow_route_81_duration_20250327_2050.6" vType="car" speedFactor="1.03" vaporized=""/>
    <tripinfo id="flow_route_84_duration_20250327_2050.14" depart="53.00" departLane="1091883842_0" departPos="80.01" departSpeed="0.00" departDelay="0.50" arrival="177.00" arrivalLane="136617981_1" arrivalPos="187.99" arrivalSpeed="16.13" duration="124.00" routeLength="326.27" waitingTime="79.00" waitingCount="1" stopTime="0.00" timeLoss="103.75" rerouteNo="0" devices="tripinfo_flow_route_84_duration_20250327_2050.14" vType="car" speedFactor="1.10" vaporized=""/>
    <tripinfo id="flow_route_84_duration_20250327_2050.13" depart="49.00" departLane="1091883842_0" departPos="157.02" departSpeed="0.00" departDelay="0.25" arrival="178.00" arrivalLane="136617981_2" arrivalPos="277.25" arrivalSpeed="16.12" duration="129.00" routeLength="338.52" waitingTime="89.00" waitingCount="1" stopTime="0.00" timeLoss="108.00" rerouteNo="0" devices="tripinfo_flow_route_84_duration_20250327_2050.13" vType="car" speedFactor="1.17" vaporized=""/>
    <tripinfo id="flow_route_84_duration_20250327_2050.15" depart="57.00" departLane="1091883842_0" departPos="119.06" departSpeed="0.00" departDelay="0.75" arrival="178.00" arrivalLane="136617981_2" arrivalPos="242.77" arrivalSpeed="16.60" duration="121.00" routeLength="341.99" waitingTime="78.00" waitingCount="1" stopTime="0.00" timeLoss="99.67" rerouteNo="0" devices="tripinfo_flow_route_84_duration_20250327_2050.15" vType="car" speedFactor="1.14" vaporized=""/>
</tripinfos>
