<?xml version="1.0" encoding="UTF-8"?>

<!-- generated on 2025-05-06 21:07:54 by Eclipse SUMO sumo Version 1.20.0
<configuration xmlns:xsi="http://www.w3.org/2001/XMLSchema-instance" xsi:noNamespaceSchemaLocation="http://sumo.dlr.de/xsd/sumoConfiguration.xsd">

    <input>
        <net-file value="osm.net.xml"/>
        <route-files value="xml/route_static_cluster_3839031475_3839031476_4110471700_4234582615_1.rou.xml"/>
    </input>

    <output>
        <tripinfo-output value="xml/tripinfo_static_cluster_3839031475_3839031476_4110471700_4234582615_1.xml"/>
    </output>

    <traci_server>
        <remote-port value="60447"/>
    </traci_server>

</configuration>
-->

<tripinfos xmlns:xsi="http://www.w3.org/2001/XMLSchema-instance" xsi:noNamespaceSchemaLocation="http://sumo.dlr.de/xsd/tripinfo_file.xsd">
    <tripinfo id="flow_route_85_duration_20250327_2030.0" depart="0.00" departLane="1091883842_0" departPos="162.60" departSpeed="0.00" departDelay="0.00" arrival="16.00" arrivalLane="133000063_0" arrivalPos="42.63" arrivalSpeed="9.42" duration="16.00" routeLength="74.77" waitingTime="0.00" waitingCount="0" stopTime="0.00" timeLoss="9.16" rerouteNo="0" devices="tripinfo_flow_route_85_duration_20250327_2030.0" vType="car" speedFactor="0.89" vaporized=""/>
    <tripinfo id="flow_route_81_duration_20250327_2030.1" depart="4.00" departLane="380344611#0_0" departPos="233.75" departSpeed="0.00" departDelay="0.84" arrival="27.00" arrivalLane="133000063_2" arrivalPos="88.35" arrivalSpeed="14.85" duration="23.00" routeLength="170.47" waitingTime="0.00" waitingCount="0" stopTime="0.00" timeLoss="11.86" rerouteNo="0" devices="tripinfo_flow_route_81_duration_20250327_2030.1" vType="car" speedFactor="1.03" vaporized=""/>
    <tripinfo id="flow_route_79_duration_20250327_2030.0" depart="0.00" departLane="380344611#0_0" departPos="128.21" departSpeed="0.00" departDelay="0.00" arrival="28.00" arrivalLane="423956929_1" arrivalPos="91.18" arrivalSpeed="16.55" duration="28.00" routeLength="278.79" waitingTime="0.00" waitingCount="0" stopTime="0.00" timeLoss="11.05" rerouteNo="0" devices="tripinfo_flow_route_79_duration_20250327_2030.0" vType="car" speedFactor="1.08" vaporized=""/>
    <tripinfo id="flow_route_81_duration_20250327_2030.2" depart="7.00" departLane="380344611#0_0" departPos="271.26" departSpeed="0.00" departDelay="0.69" arrival="28.00" arrivalLane="133000063_2" arrivalPos="131.68" arrivalSpeed="15.39" duration="21.00" routeLength="176.29" waitingTime="0.00" waitingCount="0" stopTime="0.00" timeLoss="8.49" rerouteNo="0" devices="tripinfo_flow_route_81_duration_20250327_2030.2" vType="car" speedFactor="0.93" vaporized=""/>
    <tripinfo id="flow_route_80_duration_20250327_2030.0" depart="0.00" departLane="380344611#0_0" departPos="160.58" departSpeed="0.00" departDelay="0.00" arrival="31.00" arrivalLane="380593307#0_0" arrivalPos="102.42" arrivalSpeed="13.82" duration="31.00" routeLength="234.46" waitingTime="0.00" waitingCount="0" stopTime="0.00" timeLoss="16.05" rerouteNo="0" devices="tripinfo_flow_route_80_duration_20250327_2030.0" vType="car" speedFactor="1.03" vaporized=""/>
    <tripinfo id="flow_route_84_duration_20250327_2030.3" depart="10.00" departLane="1091883842_0" departPos="106.15" departSpeed="0.00" departDelay="0.00" arrival="32.00" arrivalLane="136617981_0" arrivalPos="74.84" arrivalSpeed="16.20" duration="22.00" routeLength="186.98" waitingTime="0.00" waitingCount="0" stopTime="0.00" timeLoss="10.49" rerouteNo="0" devices="tripinfo_flow_route_84_duration_20250327_2030.3" vType="car" speedFactor="1.02" vaporized=""/>
    <tripinfo id="flow_route_81_duration_20250327_2030.0" depart="0.00" departLane="380344611#0_0" departPos="75.01" departSpeed="0.00" departDelay="0.00" arrival="33.00" arrivalLane="133000063_2" arrivalPos="7.51" arrivalSpeed="7.09" duration="33.00" routeLength="248.37" waitingTime="0.00" waitingCount="0" stopTime="0.00" timeLoss="13.77" rerouteNo="0" devices="tripinfo_flow_route_81_duration_20250327_2030.0" vType="car" speedFactor="0.83" vaporized=""/>
    <tripinfo id="flow_route_90_duration_20250327_2030.0" depart="0.00" departLane="380585338#0_0" departPos="118.71" departSpeed="0.00" departDelay="0.00" arrival="33.00" arrivalLane="136617981_0" arrivalPos="211.18" arrivalSpeed="13.95" duration="33.00" routeLength="279.54" waitingTime="0.00" waitingCount="0" stopTime="0.00" timeLoss="11.65" rerouteNo="0" devices="tripinfo_flow_route_90_duration_20250327_2030.0" vType="car" speedFactor="0.86" vaporized=""/>
    <tripinfo id="flow_route_84_duration_20250327_2030.1" depart="5.00" departLane="1091883842_0" departPos="43.96" departSpeed="0.00" departDelay="1.67" arrival="33.00" arrivalLane="136617981_1" arrivalPos="87.03" arrivalSpeed="16.17" duration="28.00" routeLength="261.36" waitingTime="0.00" waitingCount="0" stopTime="0.00" timeLoss="12.00" rerouteNo="0" devices="tripinfo_flow_route_84_duration_20250327_2030.1" vType="car" speedFactor="1.05" vaporized=""/>
    <tripinfo id="flow_route_84_duration_20250327_2030.0" depart="0.00" departLane="1091883842_0" departPos="11.19" departSpeed="0.00" departDelay="0.00" arrival="38.00" arrivalLane="136617981_1" arrivalPos="210.65" arrivalSpeed="16.51" duration="38.00" routeLength="417.75" waitingTime="0.00" waitingCount="0" stopTime="0.00" timeLoss="12.35" rerouteNo="0" devices="tripinfo_flow_route_84_duration_20250327_2030.0" vType="car" speedFactor="1.05" vaporized=""/>
    <tripinfo id="flow_route_81_duration_20250327_2030.5" depart="17.00" departLane="380344611#0_0" departPos="160.83" departSpeed="0.00" departDelay="1.22" arrival="40.00" arrivalLane="133000063_2" arrivalPos="11.54" arrivalSpeed="11.91" duration="23.00" routeLength="166.58" waitingTime="0.00" waitingCount="0" stopTime="0.00" timeLoss="12.06" rerouteNo="0" devices="tripinfo_flow_route_81_duration_20250327_2030.5" vType="car" speedFactor="1.15" vaporized=""/>
    <tripinfo id="flow_route_77_duration_20250327_2030.1" depart="15.00" departLane="133342692#0_0" departPos="93.74" departSpeed="0.00" departDelay="0.00" arrival="56.00" arrivalLane="423956929_0" arrivalPos="34.02" arrivalSpeed="9.67" duration="41.00" routeLength="122.80" waitingTime="12.00" waitingCount="1" stopTime="0.00" timeLoss="32.78" rerouteNo="0" devices="tripinfo_flow_route_77_duration_20250327_2030.1" vType="car" speedFactor="1.13" vaporized=""/>
    <tripinfo id="flow_route_89_duration_20250327_2030.4" depart="17.00" departLane="380585338#0_0" departPos="14.94" departSpeed="0.00" departDelay="2.00" arrival="56.00" arrivalLane="380593307#0_1" arrivalPos="26.36" arrivalSpeed="10.22" duration="39.00" routeLength="221.69" waitingTime="4.00" waitingCount="1" stopTime="0.00" timeLoss="25.63" rerouteNo="0" devices="tripinfo_flow_route_89_duration_20250327_2030.4" vType="car" speedFactor="1.18" vaporized=""/>
    <tripinfo id="flow_route_89_duration_20250327_2030.6" depart="24.00" departLane="380585338#0_0" departPos="79.15" departSpeed="0.00" departDelay="1.50" arrival="56.00" arrivalLane="380593307#0_2" arrivalPos="18.18" arrivalSpeed="9.96" duration="32.00" routeLength="149.30" waitingTime="2.00" waitingCount="1" stopTime="0.00" timeLoss="22.12" rerouteNo="0" devices="tripinfo_flow_route_89_duration_20250327_2030.6" vType="car" speedFactor="0.96" vaporized=""/>
    <tripinfo id="flow_route_89_duration_20250327_2030.0" depart="0.00" departLane="380585338#0_0" departPos="55.91" departSpeed="0.00" departDelay="0.00" arrival="57.00" arrivalLane="380593307#0_0" arrivalPos="94.67" arrivalSpeed="14.37" duration="57.00" routeLength="249.03" waitingTime="19.00" waitingCount="1" stopTime="0.00" timeLoss="40.63" rerouteNo="0" devices="tripinfo_flow_route_89_duration_20250327_2030.0" vType="car" speedFactor="0.94" vaporized=""/>
    <tripinfo id="flow_route_89_duration_20250327_2030.2" depart="8.00" departLane="380585338#0_0" departPos="21.77" departSpeed="0.00" departDelay="0.50" arrival="57.00" arrivalLane="380593307#0_1" arrivalPos="57.52" arrivalSpeed="12.92" duration="49.00" routeLength="246.02" waitingTime="9.00" waitingCount="1" stopTime="0.00" timeLoss="32.53" rerouteNo="0" devices="tripinfo_flow_route_89_duration_20250327_2030.2" vType="car" speedFactor="0.94" vaporized=""/>
    <tripinfo id="flow_route_77_duration_20250327_2030.0" depart="0.00" departLane="133342692#0_0" departPos="115.39" departSpeed="0.00" departDelay="0.00" arrival="58.00" arrivalLane="423956929_0" arrivalPos="132.19" arrivalSpeed="15.32" duration="58.00" routeLength="199.33" waitingTime="27.00" waitingCount="1" stopTime="0.00" timeLoss="43.98" rerouteNo="0" devices="tripinfo_flow_route_77_duration_20250327_2030.0" vType="car" speedFactor="0.94" vaporized=""/>
    <tripinfo id="flow_route_89_duration_20250327_2030.1" depart="5.00" departLane="380585338#0_0" departPos="5.63" departSpeed="0.00" departDelay="1.25" arrival="59.00" arrivalLane="380593307#0_2" arrivalPos="109.98" arrivalSpeed="14.75" duration="54.00" routeLength="314.62" waitingTime="12.00" waitingCount="1" stopTime="0.00" timeLoss="34.68" rerouteNo="0" devices="tripinfo_flow_route_89_duration_20250327_2030.1" vType="car" speedFactor="1.12" vaporized=""/>
    <tripinfo id="flow_route_90_duration_20250327_2030.2" depart="10.00" departLane="380585338#0_0" departPos="41.92" departSpeed="0.00" departDelay="0.77" arrival="60.00" arrivalLane="136617981_0" arrivalPos="63.24" arrivalSpeed="11.53" duration="50.00" routeLength="208.39" waitingTime="8.00" waitingCount="1" stopTime="0.00" timeLoss="36.72" rerouteNo="0" devices="tripinfo_flow_route_90_duration_20250327_2030.2" vType="car" speedFactor="1.01" vaporized=""/>
    <tripinfo id="flow_route_76_duration_20250327_2030.1" depart="12.00" departLane="133342692#0_0" departPos="102.22" departSpeed="0.00" departDelay="0.00" arrival="60.00" arrivalLane="133000063_1" arrivalPos="115.08" arrivalSpeed="14.42" duration="48.00" routeLength="219.77" waitingTime="14.00" waitingCount="1" stopTime="0.00" timeLoss="33.06" rerouteNo="0" devices="tripinfo_flow_route_76_duration_20250327_2030.1" vType="car" speedFactor="0.89" vaporized=""/>
    <tripinfo id="flow_route_76_duration_20250327_2030.2" depart="24.00" departLane="133342692#0_0" departPos="149.82" departSpeed="0.00" departDelay="0.00" arrival="60.00" arrivalLane="133000063_0" arrivalPos="84.86" arrivalSpeed="13.84" duration="36.00" routeLength="141.96" waitingTime="12.00" waitingCount="1" stopTime="0.00" timeLoss="27.43" rerouteNo="0" devices="tripinfo_flow_route_76_duration_20250327_2030.2" vType="car" speedFactor="1.09" vaporized=""/>
    <tripinfo id="flow_route_89_duration_20250327_2030.3" depart="13.00" departLane="380585338#0_0" departPos="166.69" departSpeed="0.00" departDelay="1.75" arrival="61.00" arrivalLane="380593307#0_0" arrivalPos="124.23" arrivalSpeed="13.62" duration="48.00" routeLength="167.80" waitingTime="21.00" waitingCount="1" stopTime="0.00" timeLoss="35.01" rerouteNo="0" devices="tripinfo_flow_route_89_duration_20250327_2030.3" vType="car" speedFactor="0.83" vaporized=""/>
    <tripinfo id="flow_route_90_duration_20250327_2030.4" depart="23.00" departLane="380585338#0_0" departPos="152.04" departSpeed="0.00" departDelay="4.54" arrival="61.00" arrivalLane="136617981_0" arrivalPos="99.72" arrivalSpeed="14.13" duration="38.00" routeLength="134.75" waitingTime="14.00" waitingCount="1" stopTime="0.00" timeLoss="27.93" rerouteNo="0" devices="tripinfo_flow_route_90_duration_20250327_2030.4" vType="car" speedFactor="0.97" vaporized=""/>
    <tripinfo id="flow_route_90_duration_20250327_2030.1" depart="5.00" departLane="380585338#0_0" departPos="52.40" departSpeed="0.00" departDelay="0.39" arrival="62.00" arrivalLane="136617981_0" arrivalPos="154.27" arrivalSpeed="16.10" duration="57.00" routeLength="288.94" waitingTime="16.00" waitingCount="1" stopTime="0.00" timeLoss="38.01" rerouteNo="0" devices="tripinfo_flow_route_90_duration_20250327_2030.1" vType="car" speedFactor="0.99" vaporized=""/>
    <tripinfo id="flow_route_89_duration_20250327_2030.5" depart="20.00" departLane="380585338#0_0" departPos="106.81" departSpeed="0.00" departDelay="1.25" arrival="62.00" arrivalLane="380593307#0_2" arrivalPos="125.32" arrivalSpeed="15.74" duration="42.00" routeLength="228.78" waitingTime="6.00" waitingCount="1" stopTime="0.00" timeLoss="27.72" rerouteNo="0" devices="tripinfo_flow_route_89_duration_20250327_2030.5" vType="car" speedFactor="1.02" vaporized=""/>
    <tripinfo id="flow_route_76_duration_20250327_2030.3" depart="36.00" departLane="133342692#0_0" departPos="58.10" departSpeed="0.00" departDelay="0.00" arrival="63.00" arrivalLane="133000063_1" arrivalPos="59.57" arrivalSpeed="13.03" duration="27.00" routeLength="208.39" waitingTime="0.00" waitingCount="0" stopTime="0.00" timeLoss="14.23" rerouteNo="0" devices="tripinfo_flow_route_76_duration_20250327_2030.3" vType="car" speedFactor="1.02" vaporized=""/>
    <tripinfo id="flow_route_89_duration_20250327_2030.8" depart="41.00" departLane="380585338#0_0" departPos="56.16" departSpeed="0.00" departDelay="11.00" arrival="64.00" arrivalLane="380593307#0_1" arrivalPos="26.66" arrivalSpeed="14.75" duration="23.00" routeLength="180.77" waitingTime="0.00" waitingCount="0" stopTime="0.00" timeLoss="11.70" rerouteNo="0" devices="tripinfo_flow_route_89_duration_20250327_2030.8" vType="car" speedFactor="1.00" vaporized=""/>
    <tripinfo id="flow_route_77_duration_20250327_2030.2" depart="30.00" departLane="133342692#0_0" departPos="59.07" departSpeed="0.00" departDelay="0.00" arrival="65.00" arrivalLane="423956929_0" arrivalPos="125.29" arrivalSpeed="15.55" duration="35.00" routeLength="248.75" waitingTime="0.00" waitingCount="0" stopTime="0.00" timeLoss="19.34" rerouteNo="0" devices="tripinfo_flow_route_77_duration_20250327_2030.2" vType="car" speedFactor="1.02" vaporized=""/>
    <tripinfo id="flow_route_89_duration_20250327_2030.7" depart="31.00" departLane="380585338#0_0" departPos="74.82" departSpeed="0.00" departDelay="4.75" arrival="66.00" arrivalLane="380593307#0_1" arrivalPos="135.59" arrivalSpeed="14.60" duration="35.00" routeLength="271.04" waitingTime="0.00" waitingCount="0" stopTime="0.00" timeLoss="16.17" rerouteNo="0" devices="tripinfo_flow_route_89_duration_20250327_2030.7" vType="car" speedFactor="0.88" vaporized=""/>
    <tripinfo id="flow_route_89_duration_20250327_2030.9" depart="41.00" departLane="380585338#0_0" departPos="77.20" departSpeed="0.00" departDelay="7.25" arrival="66.00" arrivalLane="380593307#0_1" arrivalPos="95.35" arrivalSpeed="16.19" duration="25.00" routeLength="228.42" waitingTime="0.00" waitingCount="0" stopTime="0.00" timeLoss="10.33" rerouteNo="0" devices="tripinfo_flow_route_89_duration_20250327_2030.9" vType="car" speedFactor="1.08" vaporized=""/>
    <tripinfo id="flow_route_76_duration_20250327_2030.0" depart="0.00" departLane="133342692#0_0" departPos="1.03" departSpeed="0.00" departDelay="0.00" arrival="68.00" arrivalLane="133000063_1" arrivalPos="153.47" arrivalSpeed="16.15" duration="68.00" routeLength="359.35" waitingTime="22.00" waitingCount="1" stopTime="0.00" timeLoss="45.77" rerouteNo="0" devices="tripinfo_flow_route_76_duration_20250327_2030.0" vType="car" speedFactor="1.06" vaporized=""/>
    <tripinfo id="flow_route_90_duration_20250327_2030.6" depart="34.00" departLane="380585338#0_0" departPos="2.54" departSpeed="0.00" departDelay="6.31" arrival="68.00" arrivalLane="136617981_0" arrivalPos="35.23" arrivalSpeed="9.95" duration="34.00" routeLength="219.76" waitingTime="0.00" waitingCount="0" stopTime="0.00" timeLoss="17.33" rerouteNo="0" devices="tripinfo_flow_route_90_duration_20250327_2030.6" vType="car" speedFactor="0.85" vaporized=""/>
    <tripinfo id="flow_route_78_duration_20250327_2030.1" depart="4.00" departLane="133342692#0_0" departPos="161.00" departSpeed="0.00" departDelay="0.47" arrival="70.00" arrivalLane="136617981_2" arrivalPos="13.09" arrivalSpeed="6.28" duration="66.00" routeLength="57.55" waitingTime="44.00" waitingCount="2" stopTime="0.00" timeLoss="61.98" rerouteNo="0" devices="tripinfo_flow_route_78_duration_20250327_2030.1" vType="car" speedFactor="1.09" vaporized=""/>
    <tripinfo id="flow_route_90_duration_20250327_2030.3" depart="16.00" departLane="380585338#0_0" departPos="31.08" departSpeed="0.00" departDelay="2.16" arrival="70.00" arrivalLane="136617981_0" arrivalPos="164.40" arrivalSpeed="15.68" duration="54.00" routeLength="320.39" waitingTime="2.00" waitingCount="1" stopTime="0.00" timeLoss="32.49" rerouteNo="0" devices="tripinfo_flow_route_90_duration_20250327_2030.3" vType="car" speedFactor="0.95" vaporized=""/>
    <tripinfo id="flow_route_77_duration_20250327_2030.3" depart="45.00" departLane="133342692#0_0" departPos="37.83" departSpeed="0.00" departDelay="0.00" arrival="71.00" arrivalLane="423956929_0" arrivalPos="46.48" arrivalSpeed="11.12" duration="26.00" routeLength="191.18" waitingTime="0.00" waitingCount="0" stopTime="0.00" timeLoss="12.90" rerouteNo="0" devices="tripinfo_flow_route_77_duration_20250327_2030.3" vType="car" speedFactor="1.03" vaporized=""/>
    <tripinfo id="flow_route_78_duration_20250327_2030.0" depart="0.00" departLane="133342692#0_0" departPos="79.92" departSpeed="0.00" departDelay="0.00" arrival="73.00" arrivalLane="136617981_2" arrivalPos="12.89" arrivalSpeed="7.90" duration="73.00" routeLength="138.43" waitingTime="36.00" waitingCount="2" stopTime="0.00" timeLoss="63.46" rerouteNo="0" devices="tripinfo_flow_route_78_duration_20250327_2030.0" vType="car" speedFactor="1.01" vaporized=""/>
    <tripinfo id="flow_route_90_duration_20250327_2030.7" depart="41.00" departLane="380585338#0_0" departPos="125.57" departSpeed="0.00" departDelay="8.70" arrival="74.00" arrivalLane="136617981_0" arrivalPos="181.71" arrivalSpeed="16.20" duration="33.00" routeLength="243.20" waitingTime="0.00" waitingCount="0" stopTime="0.00" timeLoss="16.70" rerouteNo="0" devices="tripinfo_flow_route_90_duration_20250327_2030.7" vType="car" speedFactor="1.02" vaporized=""/>
    <tripinfo id="flow_route_90_duration_20250327_2030.5" depart="26.00" departLane="380585338#0_0" departPos="17.63" departSpeed="0.00" departDelay="2.93" arrival="76.00" arrivalLane="136617981_0" arrivalPos="201.44" arrivalSpeed="16.29" duration="50.00" routeLength="370.88" waitingTime="0.00" waitingCount="0" stopTime="0.00" timeLoss="26.69" rerouteNo="0" devices="tripinfo_flow_route_90_duration_20250327_2030.5" vType="car" speedFactor="1.04" vaporized=""/>
    <tripinfo id="flow_route_76_duration_20250327_2030.4" depart="48.00" departLane="133342692#0_0" departPos="1.26" departSpeed="0.00" departDelay="0.00" arrival="79.00" arrivalLane="133000063_0" arrivalPos="114.73" arrivalSpeed="16.54" duration="31.00" routeLength="320.39" waitingTime="0.00" waitingCount="0" stopTime="0.00" timeLoss="11.24" rerouteNo="0" devices="tripinfo_flow_route_76_duration_20250327_2030.4" vType="car" speedFactor="1.02" vaporized=""/>
    <tripinfo id="flow_route_90_duration_20250327_2030.8" depart="45.00" departLane="380585338#0_0" departPos="33.08" departSpeed="0.00" departDelay="8.08" arrival="87.00" arrivalLane="136617981_0" arrivalPos="260.36" arrivalSpeed="14.61" duration="42.00" routeLength="414.34" waitingTime="0.00" waitingCount="0" stopTime="0.00" timeLoss="12.68" rerouteNo="0" devices="tripinfo_flow_route_90_duration_20250327_2030.8" vType="car" speedFactor="0.88" vaporized=""/>
    <tripinfo id="flow_route_78_duration_20250327_2030.4" depart="15.00" departLane="133342692#0_0" departPos="159.12" departSpeed="0.00" departDelay="0.88" arrival="88.00" arrivalLane="136617981_2" arrivalPos="181.85" arrivalSpeed="15.12" duration="73.00" routeLength="228.19" waitingTime="40.00" waitingCount="2" stopTime="0.00" timeLoss="56.94" rerouteNo="0" devices="tripinfo_flow_route_78_duration_20250327_2030.4" vType="car" speedFactor="0.93" vaporized=""/>
    <tripinfo id="flow_route_78_duration_20250327_2030.5" depart="18.00" departLane="133342692#0_0" departPos="8.03" departSpeed="0.00" departDelay="0.36" arrival="89.00" arrivalLane="136617981_2" arrivalPos="51.20" arrivalSpeed="11.97" duration="71.00" routeLength="248.63" waitingTime="20.00" waitingCount="2" stopTime="0.00" timeLoss="55.60" rerouteNo="0" devices="tripinfo_flow_route_78_duration_20250327_2030.5" vType="car" speedFactor="1.17" vaporized=""/>
    <tripinfo id="flow_route_78_duration_20250327_2030.2" depart="9.00" departLane="133342692#0_0" departPos="70.53" departSpeed="0.00" departDelay="1.94" arrival="90.00" arrivalLane="136617981_2" arrivalPos="194.16" arrivalSpeed="15.34" duration="81.00" routeLength="329.10" waitingTime="32.00" waitingCount="2" stopTime="0.00" timeLoss="59.09" rerouteNo="0" devices="tripinfo_flow_route_78_duration_20250327_2030.2" vType="car" speedFactor="0.94" vaporized=""/>
    <tripinfo id="flow_route_78_duration_20250327_2030.7" depart="25.00" departLane="133342692#0_0" departPos="58.79" departSpeed="0.00" departDelay="0.30" arrival="94.00" arrivalLane="136617981_2" arrivalPos="83.98" arrivalSpeed="13.90" duration="69.00" routeLength="230.66" waitingTime="15.00" waitingCount="2" stopTime="0.00" timeLoss="54.13" rerouteNo="0" devices="tripinfo_flow_route_78_duration_20250327_2030.7" vType="car" speedFactor="1.09" vaporized=""/>
    <tripinfo id="flow_route_78_duration_20250327_2030.3" depart="11.00" departLane="133342692#0_0" departPos="15.26" departSpeed="0.00" departDelay="0.41" arrival="95.00" arrivalLane="136617981_2" arrivalPos="230.05" arrivalSpeed="15.78" duration="84.00" routeLength="420.25" waitingTime="28.00" waitingCount="2" stopTime="0.00" timeLoss="57.06" rerouteNo="0" devices="tripinfo_flow_route_78_duration_20250327_2030.3" vType="car" speedFactor="0.97" vaporized=""/>
    <tripinfo id="flow_route_78_duration_20250327_2030.6" depart="22.00" departLane="133342692#0_0" departPos="4.09" departSpeed="0.00" departDelay="0.83" arrival="97.00" arrivalLane="136617981_2" arrivalPos="103.50" arrivalSpeed="14.76" duration="75.00" routeLength="304.87" waitingTime="14.00" waitingCount="3" stopTime="0.00" timeLoss="53.27" rerouteNo="0" devices="tripinfo_flow_route_78_duration_20250327_2030.6" vType="car" speedFactor="0.90" vaporized=""/>
    <tripinfo id="flow_route_78_duration_20250327_2030.15" depart="53.00" departLane="133342692#0_0" departPos="156.98" departSpeed="0.00" departDelay="0.07" arrival="100.00" arrivalLane="136617981_2" arrivalPos="267.00" arrivalSpeed="16.47" duration="47.00" routeLength="315.48" waitingTime="14.00" waitingCount="2" stopTime="0.00" timeLoss="26.93" rerouteNo="0" devices="tripinfo_flow_route_78_duration_20250327_2030.15" vType="car" speedFactor="1.02" vaporized=""/>
    <tripinfo id="flow_route_84_duration_20250327_2030.2" depart="7.00" departLane="1091883842_0" departPos="5.54" departSpeed="0.00" departDelay="0.33" arrival="102.00" arrivalLane="136617981_0" arrivalPos="45.09" arrivalSpeed="11.06" duration="95.00" routeLength="257.85" waitingTime="56.00" waitingCount="1" stopTime="0.00" timeLoss="76.73" rerouteNo="0" devices="tripinfo_flow_route_84_duration_20250327_2030.2" vType="car" speedFactor="0.88" vaporized=""/>
    <tripinfo id="flow_route_84_duration_20250327_2030.5" depart="17.00" departLane="1091883842_0" departPos="38.47" departSpeed="0.00" departDelay="0.34" arrival="106.00" arrivalLane="136617981_0" arrivalPos="96.08" arrivalSpeed="14.42" duration="89.00" routeLength="275.90" waitingTime="47.00" waitingCount="1" stopTime="0.00" timeLoss="71.78" rerouteNo="0" devices="tripinfo_flow_route_84_duration_20250327_2030.5" vType="car" speedFactor="1.01" vaporized=""/>
    <tripinfo id="flow_route_84_duration_20250327_2030.14" depart="47.00" departLane="1091883842_0" departPos="137.63" departSpeed="0.00" departDelay="0.34" arrival="106.00" arrivalLane="136617981_1" arrivalPos="23.97" arrivalSpeed="11.02" duration="59.00" routeLength="104.64" waitingTime="34.00" waitingCount="1" stopTime="0.00" timeLoss="52.31" rerouteNo="0" devices="tripinfo_flow_route_84_duration_20250327_2030.14" vType="car" speedFactor="1.03" vaporized=""/>
    <tripinfo id="flow_route_79_duration_20250327_2030.1" depart="20.00" departLane="380344611#0_0" departPos="145.42" departSpeed="0.00" departDelay="0.00" arrival="108.00" arrivalLane="423956929_0" arrivalPos="125.92" arrivalSpeed="15.97" duration="88.00" routeLength="296.31" waitingTime="46.00" waitingCount="1" stopTime="0.00" timeLoss="69.21" rerouteNo="0" devices="tripinfo_flow_route_79_duration_20250327_2030.1" vType="car" speedFactor="1.18" vaporized=""/>
    <tripinfo id="flow_route_79_duration_20250327_2030.2" depart="40.00" departLane="380344611#0_0" departPos="43.48" departSpeed="0.00" departDelay="0.00" arrival="108.00" arrivalLane="423956929_1" arrivalPos="145.46" arrivalSpeed="16.59" duration="68.00" routeLength="417.80" waitingTime="20.00" waitingCount="1" stopTime="0.00" timeLoss="42.71" rerouteNo="0" devices="tripinfo_flow_route_79_duration_20250327_2030.2" vType="car" speedFactor="1.02" vaporized=""/>
    <tripinfo id="flow_route_84_duration_20250327_2030.4" depart="15.00" departLane="1091883842_0" departPos="5.17" departSpeed="0.00" departDelay="1.67" arrival="109.00" arrivalLane="136617981_2" arrivalPos="139.60" arrivalSpeed="15.18" duration="94.00" routeLength="352.72" waitingTime="48.00" waitingCount="1" stopTime="0.00" timeLoss="70.50" rerouteNo="0" devices="tripinfo_flow_route_84_duration_20250327_2030.4" vType="car" speedFactor="0.92" vaporized=""/>
    <tripinfo id="flow_route_84_duration_20250327_2030.6" depart="21.00" departLane="1091883842_0" departPos="77.47" departSpeed="0.00" departDelay="1.00" arrival="109.00" arrivalLane="136617981_2" arrivalPos="119.95" arrivalSpeed="14.78" duration="88.00" routeLength="260.77" waitingTime="44.00" waitingCount="1" stopTime="0.00" timeLoss="72.14" rerouteNo="0" devices="tripinfo_flow_route_84_duration_20250327_2030.6" vType="car" speedFactor="1.10" vaporized=""/>
    <tripinfo id="flow_route_84_duration_20250327_2030.13" depart="44.00" departLane="1091883842_0" departPos="59.58" departSpeed="0.00" departDelay="0.67" arrival="109.00" arrivalLane="136617981_2" arrivalPos="55.36" arrivalSpeed="13.04" duration="65.00" routeLength="214.07" waitingTime="27.00" waitingCount="1" stopTime="0.00" timeLoss="51.18" rerouteNo="0" devices="tripinfo_flow_route_84_duration_20250327_2030.13" vType="car" speedFactor="0.98" vaporized=""/>
    <tripinfo id="flow_route_84_duration_20250327_2030.16" depart="54.00" departLane="1091883842_0" departPos="83.00" departSpeed="0.00" departDelay="0.67" arrival="110.00" arrivalLane="136617981_1" arrivalPos="53.28" arrivalSpeed="13.34" duration="56.00" routeLength="188.57" waitingTime="22.00" waitingCount="1" stopTime="0.00" timeLoss="42.07" rerouteNo="0" devices="tripinfo_flow_route_84_duration_20250327_2030.16" vType="car" speedFactor="0.83" vaporized=""/>
    <tripinfo id="flow_route_84_duration_20250327_2030.7" depart="24.00" departLane="1091883842_0" departPos="106.53" departSpeed="0.00" departDelay="0.67" arrival="111.00" arrivalLane="136617981_0" arrivalPos="120.48" arrivalSpeed="14.82" duration="87.00" routeLength="232.24" waitingTime="46.00" waitingCount="1" stopTime="0.00" timeLoss="72.97" rerouteNo="0" devices="tripinfo_flow_route_84_duration_20250327_2030.7" vType="car" speedFactor="1.04" vaporized=""/>
    <tripinfo id="flow_route_84_duration_20250327_2030.12" depart="41.00" departLane="1091883842_0" departPos="148.89" departSpeed="0.00" departDelay="1.00" arrival="112.00" arrivalLane="136617981_1" arrivalPos="131.19" arrivalSpeed="16.13" duration="71.00" routeLength="200.59" waitingTime="40.00" waitingCount="1" stopTime="0.00" timeLoss="58.19" rerouteNo="0" devices="tripinfo_flow_route_84_duration_20250327_2030.12" vType="car" speedFactor="1.02" vaporized=""/>
    <tripinfo id="flow_route_84_duration_20250327_2030.8" depart="28.00" departLane="1091883842_0" departPos="132.46" departSpeed="0.00" departDelay="1.34" arrival="113.00" arrivalLane="136617981_1" arrivalPos="187.57" arrivalSpeed="14.76" duration="85.00" routeLength="273.40" waitingTime="47.00" waitingCount="1" stopTime="0.00" timeLoss="66.72" rerouteNo="0" devices="tripinfo_flow_route_84_duration_20250327_2030.8" vType="car" speedFactor="0.90" vaporized=""/>
    <tripinfo id="flow_route_85_duration_20250327_2030.1" depart="31.00" departLane="1091883842_0" departPos="70.47" departSpeed="0.00" departDelay="1.00" arrival="114.00" arrivalLane="133000063_0" arrivalPos="145.63" arrivalSpeed="16.50" duration="83.00" routeLength="269.91" waitingTime="41.00" waitingCount="1" stopTime="0.00" timeLoss="64.68" rerouteNo="0" devices="tripinfo_flow_route_85_duration_20250327_2030.1" vType="car" speedFactor="1.00" vaporized=""/>
    <tripinfo id="flow_route_84_duration_20250327_2030.17" depart="57.00" departLane="1091883842_0" departPos="5.85" departSpeed="0.00" departDelay="0.34" arrival="114.00" arrivalLane="136617981_2" arrivalPos="103.60" arrivalSpeed="15.84" duration="57.00" routeLength="316.04" waitingTime="12.00" waitingCount="1" stopTime="0.00" timeLoss="37.09" rerouteNo="0" devices="tripinfo_flow_route_84_duration_20250327_2030.17" vType="car" speedFactor="1.01" vaporized=""/>
    <tripinfo id="flow_route_84_duration_20250327_2030.10" depart="34.00" departLane="1091883842_0" departPos="164.76" departSpeed="0.00" departDelay="0.67" arrival="118.00" arrivalLane="136617981_0" arrivalPos="267.77" arrivalSpeed="16.12" duration="84.00" routeLength="321.30" waitingTime="47.00" waitingCount="1" stopTime="0.00" timeLoss="64.02" rerouteNo="0" devices="tripinfo_flow_route_84_duration_20250327_2030.10" vType="car" speedFactor="0.97" vaporized=""/>