<?xml version="1.0" encoding="UTF-8"?>

<!-- generated on 2025-05-06 21:08:44 by Eclipse SUMO sumo Version 1.20.0
<configuration xmlns:xsi="http://www.w3.org/2001/XMLSchema-instance" xsi:noNamespaceSchemaLocation="http://sumo.dlr.de/xsd/sumoConfiguration.xsd">

    <input>
        <net-file value="osm.net.xml"/>
        <route-files value="xml/route_rl_GS_cluster_1342409365_3839031467_6.rou.xml"/>
    </input>

    <output>
        <tripinfo-output value="xml/tripinfo_rl_GS_cluster_1342409365_3839031467_6.xml"/>
    </output>

    <traci_server>
        <remote-port value="42323"/>
    </traci_server>

</configuration>
-->

<tripinfos xmlns:xsi="http://www.w3.org/2001/XMLSchema-instance" xsi:noNamespaceSchemaLocation="http://sumo.dlr.de/xsd/tripinfo_file.xsd">
    <tripinfo id="flow_route_128_duration_20250327_2050.0" depart="0.00" departLane="134133272_0" departPos="226.49" departSpeed="0.00" departDelay="0.00" arrival="31.00" arrivalLane="380585338#0_0" arrivalPos="7.57" arrivalSpeed="5.61" duration="31.00" routeLength="279.28" waitingTime="0.00" waitingCount="0" stopTime="0.00" timeLoss="10.66" rerouteNo="0" devices="tripinfo_flow_route_128_duration_20250327_2050.0" vType="car" speedFactor="0.83" vaporized=""/>
    <tripinfo id="flow_route_91_duration_20250327_2050.0" depart="0.00" departLane="133000063_0" departPos="128.34" departSpeed="0.00" departDelay="0.00" arrival="48.00" arrivalLane="683079387#1_0" arrivalPos="9.10" arrivalSpeed="16.56" duration="48.00" routeLength="599.49" waitingTime="0.00" waitingCount="0" stopTime="0.00" timeLoss="10.96" rerouteNo="0" devices="tripinfo_flow_route_91_duration_20250327_2050.0" vType="car" speedFactor="1.06" vaporized=""/>
    <tripinfo id="flow_route_92_duration_20250327_2050.2" depart="13.00" departLane="133000063_0" departPos="115.08" departSpeed="0.00" departDelay="2.09" arrival="49.00" arrivalLane="186409193_0" arrivalPos="7.56" arrivalSpeed="13.18" duration="36.00" routeLength="284.34" waitingTime="0.00" waitingCount="0" stopTime="0.00" timeLoss="17.30" rerouteNo="0" devices="tripinfo_flow_route_92_duration_20250327_2050.2" vType="car" speedFactor="0.94" vaporized=""/>
    <tripinfo id="flow_route_92_duration_20250327_2050.1" depart="9.00" departLane="133000063_0" departPos="27.40" departSpeed="0.00" departDelay="3.55" arrival="54.00" arrivalLane="186409193_0" arrivalPos="54.86" arrivalSpeed="16.32" duration="45.00" routeLength="419.31" waitingTime="0.00" waitingCount="0" stopTime="0.00" timeLoss="19.12" rerouteNo="0" devices="tripinfo_flow_route_92_duration_20250327_2050.1" vType="car" speedFactor="1.03" vaporized=""/>
    <tripinfo id="flow_route_93_duration_20250327_2050.0" depart="0.00" departLane="133000063_0" departPos="115.92" departSpeed="0.00" departDelay="0.00" arrival="64.00" arrivalLane="380585336_1" arrivalPos="19.16" arrivalSpeed="16.45" duration="64.00" routeLength="758.54" waitingTime="0.00" waitingCount="0" stopTime="0.00" timeLoss="17.86" rerouteNo="0" devices="tripinfo_flow_route_93_duration_20250327_2050.0" vType="car" speedFactor="1.01" vaporized=""/>
    <tripinfo id="flow_route_145_duration_20250327_2050.0" depart="0.00" departLane="683079388#0_0" departPos="22.61" departSpeed="0.00" departDelay="0.00" arrival="68.00" arrivalLane="380585336_0" arrivalPos="229.76" arrivalSpeed="15.56" duration="68.00" routeLength="831.39" waitingTime="0.00" waitingCount="0" stopTime="0.00" timeLoss="15.07" rerouteNo="0" devices="tripinfo_flow_route_145_duration_20250327_2050.0" vType="car" speedFactor="0.94" vaporized=""/>
    <tripinfo id="flow_route_102_duration_20250327_2050.0" depart="0.00" departLane="1342963997_0" departPos="83.70" departSpeed="0.00" departDelay="0.00" arrival="69.00" arrivalLane="380585336_1" arrivalPos="207.08" arrivalSpeed="16.13" duration="69.00" routeLength="834.32" waitingTime="0.00" waitingCount="0" stopTime="0.00" timeLoss="17.63" rerouteNo="0" devices="tripinfo_flow_route_102_duration_20250327_2050.0" vType="car" speedFactor="1.08" vaporized=""/>
    <tripinfo id="flow_route_93_duration_20250327_2050.2" depart="4.00" departLane="133000063_0" departPos="109.11" departSpeed="0.00" departDelay="0.57" arrival="72.00" arrivalLane="380585336_1" arrivalPos="129.38" arrivalSpeed="16.48" duration="68.00" routeLength="875.56" waitingTime="0.00" waitingCount="0" stopTime="0.00" timeLoss="15.08" rerouteNo="0" devices="tripinfo_flow_route_93_duration_20250327_2050.2" vType="car" speedFactor="1.09" vaporized=""/>
    <tripinfo id="flow_route_128_duration_20250327_2050.3" depart="36.00" departLane="134133272_0" departPos="338.17" departSpeed="0.00" departDelay="0.00" arrival="72.00" arrivalLane="380585338#0_0" arrivalPos="117.27" arrivalSpeed="14.60" duration="36.00" routeLength="277.30" waitingTime="0.00" waitingCount="0" stopTime="0.00" timeLoss="18.41" rerouteNo="0" devices="tripinfo_flow_route_128_duration_20250327_2050.3" vType="car" speedFactor="1.17" vaporized=""/>
    <tripinfo id="flow_route_128_duration_20250327_2050.1" depart="12.00" departLane="134133272_0" departPos="35.61" departSpeed="0.00" departDelay="0.00" arrival="75.00" arrivalLane="380585338#0_0" arrivalPos="29.16" arrivalSpeed="8.30" duration="63.00" routeLength="491.76" waitingTime="0.00" waitingCount="0" stopTime="0.00" timeLoss="31.87" rerouteNo="0" devices="tripinfo_flow_route_128_duration_20250327_2050.1" vType="car" speedFactor="1.01" vaporized=""/>
    <tripinfo id="flow_route_128_duration_20250327_2050.2" depart="24.00" departLane="134133272_0" departPos="146.06" departSpeed="0.00" departDelay="0.00" arrival="79.00" arrivalLane="380585338#0_0" arrivalPos="101.59" arrivalSpeed="13.38" duration="55.00" routeLength="453.73" waitingTime="0.00" waitingCount="0" stopTime="0.00" timeLoss="26.28" rerouteNo="0" devices="tripinfo_flow_route_128_duration_20250327_2050.2" vType="car" speedFactor="0.97" vaporized=""/>
    <tripinfo id="flow_route_129_duration_20250327_2050.0" depart="0.00" departLane="134133272_0" departPos="105.80" departSpeed="0.00" departDelay="0.00" arrival="83.00" arrivalLane="683079387#1_1" arrivalPos="7.59" arrivalSpeed="16.44" duration="83.00" routeLength="945.90" waitingTime="1.00" waitingCount="1" stopTime="0.00" timeLoss="25.32" rerouteNo="0" devices="tripinfo_flow_route_129_duration_20250327_2050.0" vType="car" speedFactor="1.05" vaporized=""/>
    <tripinfo id="flow_route_103_duration_20250327_2050.0" depart="1.00" departLane="1342963997_0" departPos="57.81" departSpeed="0.00" departDelay="1.00" arrival="86.00" arrivalLane="683079387#1_0" arrivalPos="6.02" arrivalSpeed="16.32" duration="85.00" routeLength="524.42" waitingTime="29.00" waitingCount="1" stopTime="0.00" timeLoss="52.01" rerouteNo="0" devices="tripinfo_flow_route_103_duration_20250327_2050.0" vType="car" speedFactor="1.03" vaporized=""/>
    <tripinfo id="flow_route_144_duration_20250327_2050.3" depart="26.00" departLane="683079388#0_0" departPos="12.72" departSpeed="0.00" departDelay="0.29" arrival="86.00" arrivalLane="380585338#0_2" arrivalPos="18.18" arrivalSpeed="8.46" duration="60.00" routeLength="585.20" waitingTime="1.00" waitingCount="1" stopTime="0.00" timeLoss="20.48" rerouteNo="0" devices="tripinfo_flow_route_144_duration_20250327_2050.3" vType="car" speedFactor="0.90" vaporized=""/>
    <tripinfo id="flow_route_144_duration_20250327_2050.4" depart="35.00" departLane="683079388#0_0" departPos="12.39" departSpeed="0.00" departDelay="0.72" arrival="88.00" arrivalLane="380585338#0_1" arrivalPos="24.51" arrivalSpeed="9.61" duration="53.00" routeLength="591.86" waitingTime="0.00" waitingCount="0" stopTime="0.00" timeLoss="12.11" rerouteNo="0" devices="tripinfo_flow_route_144_duration_20250327_2050.4" vType="car" speedFactor="0.88" vaporized=""/>
    <tripinfo id="flow_route_144_duration_20250327_2050.0" depart="0.00" departLane="683079388#0_0" departPos="1.56" departSpeed="0.00" departDelay="0.00" arrival="89.00" arrivalLane="380585338#0_0" arrivalPos="42.98" arrivalSpeed="9.82" duration="89.00" routeLength="621.16" waitingTime="26.00" waitingCount="1" stopTime="0.00" timeLoss="46.39" rerouteNo="0" devices="tripinfo_flow_route_144_duration_20250327_2050.0" vType="car" speedFactor="0.89" vaporized=""/>
    <tripinfo id="flow_route_144_duration_20250327_2050.2" depart="18.00" departLane="683079388#0_0" departPos="1.73" departSpeed="0.00" departDelay="0.86" arrival="89.00" arrivalLane="380585338#0_0" arrivalPos="26.37" arrivalSpeed="9.33" duration="71.00" routeLength="604.38" waitingTime="11.00" waitingCount="1" stopTime="0.00" timeLoss="32.35" rerouteNo="0" devices="tripinfo_flow_route_144_duration_20250327_2050.2" vType="car" speedFactor="0.95" vaporized=""/>
    <tripinfo id="flow_route_93_duration_20250327_2050.1" depart="3.00" departLane="133000063_0" departPos="88.35" departSpeed="0.00" departDelay="1.29" arrival="91.00" arrivalLane="380585336_0" arrivalPos="288.04" arrivalSpeed="13.88" duration="88.00" routeLength="1054.98" waitingTime="0.00" waitingCount="0" stopTime="0.00" timeLoss="15.04" rerouteNo="0" devices="tripinfo_flow_route_93_duration_20250327_2050.1" vType="car" speedFactor="0.86" vaporized=""/>
    <tripinfo id="flow_route_93_duration_20250327_2050.3" depart="11.00" departLane="133000063_0" departPos="70.85" departSpeed="0.00" departDelay="5.86" arrival="95.00" arrivalLane="380585336_1" arrivalPos="347.33" arrivalSpeed="16.44" duration="84.00" routeLength="1131.77" waitingTime="0.00" waitingCount="0" stopTime="0.00" timeLoss="15.26" rerouteNo="0" devices="tripinfo_flow_route_93_duration_20250327_2050.3" vType="car" speedFactor="1.05" vaporized=""/>
    <tripinfo id="flow_route_93_duration_20250327_2050.4" depart="12.00" departLane="133000063_0" departPos="98.45" departSpeed="0.00" departDelay="5.14" arrival="95.00" arrivalLane="380585336_1" arrivalPos="167.10" arrivalSpeed="16.50" duration="83.00" routeLength="923.94" waitingTime="0.00" waitingCount="0" stopTime="0.00" timeLoss="26.86" rerouteNo="0" devices="tripinfo_flow_route_93_duration_20250327_2050.4" vType="car" speedFactor="1.12" vaporized=""/>
    <tripinfo id="flow_route_144_duration_20250327_2050.1" depart="9.00" departLane="683079388#0_0" departPos="17.69" departSpeed="0.00" departDelay="0.43" arrival="95.00" arrivalLane="380585338#0_0" arrivalPos="132.76" arrivalSpeed="14.52" duration="86.00" routeLength="694.81" waitingTime="18.00" waitingCount="1" stopTime="0.00" timeLoss="38.13" rerouteNo="0" devices="tripinfo_flow_route_144_duration_20250327_2050.1" vType="car" speedFactor="0.88" vaporized=""/>
    <tripinfo id="flow_route_93_duration_20250327_2050.10" depart="26.00" departLane="133000063_0" departPos="150.80" departSpeed="0.00" departDelay="8.86" arrival="96.00" arrivalLane="380585336_1" arrivalPos="77.26" arrivalSpeed="14.28" duration="70.00" routeLength="781.75" waitingTime="0.00" waitingCount="0" stopTime="0.00" timeLoss="16.32" rerouteNo="0" devices="tripinfo_flow_route_93_duration_20250327_2050.10" vType="car" speedFactor="0.87" vaporized=""/>
    <tripinfo id="flow_route_129_duration_20250327_2050.1" depart="23.00" departLane="134133272_0" departPos="155.89" departSpeed="0.00" departDelay="3.00" arrival="97.00" arrivalLane="683079387#1_1" arrivalPos="0.88" arrivalSpeed="16.29" duration="74.00" routeLength="885.92" waitingTime="0.00" waitingCount="0" stopTime="0.00" timeLoss="20.40" rerouteNo="0" devices="tripinfo_flow_route_129_duration_20250327_2050.1" vType="car" speedFactor="1.18" vaporized=""/>
    <tripinfo id="flow_route_144_duration_20250327_2050.5" depart="43.00" departLane="683079388#0_0" departPos="12.14" departSpeed="0.00" departDelay="0.15" arrival="99.00" arrivalLane="380585338#0_0" arrivalPos="156.87" arrivalSpeed="16.33" duration="56.00" routeLength="724.47" waitingTime="0.00" waitingCount="0" stopTime="0.00" timeLoss="11.92" rerouteNo="0" devices="tripinfo_flow_route_144_duration_20250327_2050.5" vType="car" speedFactor="1.08" vaporized=""/>
    <tripinfo id="flow_route_129_duration_20250327_2050.2" depart="41.00" departLane="134133272_0" departPos="328.42" departSpeed="0.00" departDelay="1.00" arrival="101.00" arrivalLane="683079387#1_0" arrivalPos="6.05" arrivalSpeed="14.97" duration="60.00" routeLength="721.75" waitingTime="0.00" waitingCount="0" stopTime="0.00" timeLoss="11.14" rerouteNo="0" devices="tripinfo_flow_route_129_duration_20250327_2050.2" vType="car" speedFactor="0.90" vaporized=""/>
    <tripinfo id="flow_route_144_duration_20250327_2050.6" depart="52.00" departLane="683079388#0_0" departPos="11.48" departSpeed="0.00" departDelay="0.57" arrival="104.00" arrivalLane="380585338#0_0" arrivalPos="77.54" arrivalSpeed="16.11" duration="52.00" routeLength="645.80" waitingTime="0.00" waitingCount="0" stopTime="0.00" timeLoss="11.23" rerouteNo="0" devices="tripinfo_flow_route_144_duration_20250327_2050.6" vType="car" speedFactor="0.97" vaporized=""/>
    <tripinfo id="flow_route_92_duration_20250327_2050.3" depart="23.00" departLane="133000063_0" departPos="72.90" departSpeed="0.00" departDelay="6.64" arrival="106.00" arrivalLane="186409193_0" arrivalPos="28.78" arrivalSpeed="13.47" duration="83.00" routeLength="347.74" waitingTime="35.00" waitingCount="1" stopTime="0.00" timeLoss="56.38" rerouteNo="0" devices="tripinfo_flow_route_92_duration_20250327_2050.3" vType="car" speedFactor="0.83" vaporized=""/>
    <tripinfo id="flow_route_93_duration_20250327_2050.9" depart="19.00" departLane="133000063_0" departPos="170.91" departSpeed="0.00" departDelay="3.57" arrival="108.00" arrivalLane="380585336_0" arrivalPos="404.48" arrivalSpeed="14.39" duration="89.00" routeLength="1088.86" waitingTime="0.00" waitingCount="0" stopTime="0.00" timeLoss="15.39" rerouteNo="0" devices="tripinfo_flow_route_93_duration_20250327_2050.9" vType="car" speedFactor="0.89" vaporized=""/>
    <tripinfo id="flow_route_103_duration_20250327_2050.1" depart="20.00" departLane="1342963997_0" departPos="37.20" departSpeed="0.00" departDelay="0.00" arrival="110.00" arrivalLane="683079387#1_0" arrivalPos="3.46" arrivalSpeed="15.45" duration="90.00" routeLength="542.47" waitingTime="18.00" waitingCount="2" stopTime="0.00" timeLoss="54.52" rerouteNo="0" devices="tripinfo_flow_route_103_duration_20250327_2050.1" vType="car" speedFactor="0.93" vaporized=""/>
    <tripinfo id="flow_route_92_duration_20250327_2050.0" depart="0.00" departLane="133000063_0" departPos="1.04" departSpeed="0.00" departDelay="0.00" arrival="117.00" arrivalLane="186409193_0" arrivalPos="41.62" arrivalSpeed="14.00" duration="117.00" routeLength="432.44" waitingTime="36.00" waitingCount="1" stopTime="0.00" timeLoss="88.48" rerouteNo="0" devices="tripinfo_flow_route_92_duration_20250327_2050.0" vType="car" speedFactor="0.94" vaporized=""/>
    <tripinfo id="flow_route_103_duration_20250327_2050.2" depart="40.00" departLane="1342963997_0" departPos="18.47" departSpeed="0.00" departDelay="0.00" arrival="118.00" arrivalLane="683079387#1_0" arrivalPos="6.95" arrivalSpeed="16.32" duration="78.00" routeLength="564.69" waitingTime="1.00" waitingCount="1" stopTime="0.00" timeLoss="43.09" rerouteNo="0" devices="tripinfo_flow_route_103_duration_20250327_2050.2" vType="car" speedFactor="1.00" vaporized=""/>
    <tripinfo id="flow_route_102_duration_20250327_2050.3" depart="26.00" departLane="1342963997_0" departPos="166.08" departSpeed="0.00" departDelay="0.29" arrival="119.00" arrivalLane="380585336_1" arrivalPos="127.56" arrivalSpeed="15.27" duration="93.00" routeLength="672.44" waitingTime="22.00" waitingCount="2" stopTime="0.00" timeLoss="52.14" rerouteNo="0" devices="tripinfo_flow_route_102_duration_20250327_2050.3" vType="car" speedFactor="1.10" vaporized=""/>
    <tripinfo id="flow_route_91_duration_20250327_2050.1" depart="17.00" departLane="133000063_0" departPos="29.01" departSpeed="0.00" departDelay="5.00" arrival="120.00" arrivalLane="683079387#1_0" arrivalPos="2.70" arrivalSpeed="16.46" duration="103.00" routeLength="692.42" waitingTime="34.00" waitingCount="1" stopTime="0.00" timeLoss="60.93" rerouteNo="0" devices="tripinfo_flow_route_91_duration_20250327_2050.1" vType="car" speedFactor="1.16" vaporized=""/>
    <tripinfo id="flow_route_92_duration_20250327_2050.4" depart="38.00" departLane="133000063_0" departPos="59.35" departSpeed="0.00" departDelay="16.18" arrival="120.00" arrivalLane="186409193_0" arrivalPos="20.55" arrivalSpeed="14.61" duration="82.00" routeLength="353.07" waitingTime="18.00" waitingCount="1" stopTime="0.00" timeLoss="60.10" rerouteNo="0" devices="tripinfo_flow_route_92_duration_20250327_2050.4" vType="car" speedFactor="1.01" vaporized=""/>
    <tripinfo id="flow_route_128_duration_20250327_2050.4" depart="48.00" departLane="134133272_0" departPos="194.96" departSpeed="0.00" departDelay="0.00" arrival="120.00" arrivalLane="380585338#0_0" arrivalPos="142.28" arrivalSpeed="14.93" duration="72.00" routeLength="445.52" waitingTime="19.00" waitingCount="1" stopTime="0.00" timeLoss="41.73" rerouteNo="0" devices="tripinfo_flow_route_128_duration_20250327_2050.4" vType="car" speedFactor="0.91" vaporized=""/>
    <tripinfo id="flow_route_102_duration_20250327_2050.1" depart="9.00" departLane="1342963997_0" departPos="5.36" departSpeed="0.00" departDelay="0.43" arrival="123.00" arrivalLane="380585336_1" arrivalPos="127.15" arrivalSpeed="15.10" duration="114.00" routeLength="832.75" waitingTime="21.00" waitingCount="1" stopTime="0.00" timeLoss="60.24" rerouteNo="0" devices="tripinfo_flow_route_102_duration_20250327_2050.1" vType="car" speedFactor="0.93" vaporized=""/>
    <tripinfo id="flow_route_91_duration_20250327_2050.2" depart="42.00" departLane="133000063_0" departPos="94.60" departSpeed="0.00" departDelay="18.00" arrival="126.00" arrivalLane="683079387#1_0" arrivalPos="5.24" arrivalSpeed="16.43" duration="84.00" routeLength="629.37" waitingTime="18.00" waitingCount="1" stopTime="0.00" timeLoss="45.07" rerouteNo="0" devices="tripinfo_flow_route_91_duration_20250327_2050.2" vType="car" speedFactor="0.99" vaporized=""/>
    <tripinfo id="flow_route_102_duration_20250327_2050.2" depart="18.00" departLane="1342963997_0" departPos="166.65" departSpeed="0.00" departDelay="0.86" arrival="127.00" arrivalLane="380585336_0" arrivalPos="270.36" arrivalSpeed="15.27" duration="109.00" routeLength="814.66" waitingTime="29.00" waitingCount="2" stopTime="0.00" timeLoss="55.50" rerouteNo="0" devices="tripinfo_flow_route_102_duration_20250327_2050.2" vType="car" speedFactor="0.92" vaporized=""/>
    <tripinfo id="flow_route_92_duration_20250327_2050.6" depart="61.00" departLane="133000063_0" departPos="80.23" departSpeed="0.00" departDelay="28.28" arrival="131.00" arrivalLane="186409193_0" arrivalPos="38.66" arrivalSpeed="14.82" duration="70.00" routeLength="350.29" waitingTime="5.00" waitingCount="2" stopTime="0.00" timeLoss="48.51" rerouteNo="0" devices="tripinfo_flow_route_92_duration_20250327_2050.6" vType="car" speedFactor="1.04" vaporized=""/>
    <tripinfo id="flow_route_92_duration_20250327_2050.7" depart="75.00" departLane="133000063_0" departPos="74.11" departSpeed="0.00" departDelay="36.82" arrival="133.00" arrivalLane="186409193_0" arrivalPos="34.41" arrivalSpeed="15.61" duration="58.00" routeLength="352.16" waitingTime="0.00" waitingCount="0" stopTime="0.00" timeLoss="35.79" rerouteNo="0" devices="tripinfo_flow_route_92_duration_20250327_2050.7" vType="car" speedFactor="1.10" vaporized=""/>
    <tripinfo id="flow_route_102_duration_20250327_2050.6" depart="52.00" departLane="1342963997_0" departPos="129.85" departSpeed="0.00" departDelay="0.57" arrival="135.00" arrivalLane="380585336_2" arrivalPos="64.61" arrivalSpeed="16.21" duration="83.00" routeLength="645.72" waitingTime="2.00" waitingCount="2" stopTime="0.00" timeLoss="43.49" rerouteNo="0" devices="tripinfo_flow_route_102_duration_20250327_2050.6" vType="car" speedFactor="1.02" vaporized=""/>
    <tripinfo id="flow_route_93_duration_20250327_2050.5" depart="12.00" departLane="133000063_0" departPos="41.58" departSpeed="0.00" departDelay="3.43" arrival="136.00" arrivalLane="380585336_1" arrivalPos="13.66" arrivalSpeed="16.28" duration="124.00" routeLength="827.37" waitingTime="30.00" waitingCount="2" stopTime="0.00" timeLoss="73.68" rerouteNo="0" devices="tripinfo_flow_route_93_duration_20250327_2050.5" vType="car" speedFactor="0.99" vaporized=""/>
    <tripinfo id="flow_route_92_duration_20250327_2050.5" depart="46.00" departLane="133000063_0" departPos="2.01" departSpeed="0.00" departDelay="18.73" arrival="137.00" arrivalLane="186409193_0" arrivalPos="41.52" arrivalSpeed="15.19" duration="91.00" routeLength="431.37" waitingTime="6.00" waitingCount="2" stopTime="0.00" timeLoss="64.27" rerouteNo="0" devices="tripinfo_flow_route_92_duration_20250327_2050.5" vType="car" speedFactor="1.03" vaporized=""/>
    <tripinfo id="flow_route_102_duration_20250327_2050.5" depart="43.00" departLane="1342963997_0" departPos="143.28" departSpeed="0.00" departDelay="0.15" arrival="138.00" arrivalLane="380585336_1" arrivalPos="203.39" arrivalSpeed="16.02" duration="95.00" routeLength="771.06" waitingTime="10.00" waitingCount="2" stopTime="0.00" timeLoss="46.12" rerouteNo="0" devices="tripinfo_flow_route_102_duration_20250327_2050.5" vType="car" speedFactor="0.97" vaporized=""/>
    <tripinfo id="flow_route_93_duration_20250327_2050.6" depart="17.00" departLane="133000063_0" departPos="99.91" departSpeed="0.00" departDelay="6.72" arrival="145.00" arrivalLane="380585336_1" arrivalPos="52.83" arrivalSpeed="15.29" duration="128.00" routeLength="808.21" waitingTime="36.00" waitingCount="1" stopTime="0.00" timeLoss="75.95" rerouteNo="0" devices="tripinfo_flow_route_93_duration_20250327_2050.6" vType="car" speedFactor="0.94" vaporized=""/>
    <tripinfo id="flow_route_93_duration_20250327_2050.12" depart="32.00" departLane="133000063_0" departPos="17.49" departSpeed="0.00" departDelay="11.43" arrival="149.00" arrivalLane="380585336_1" arrivalPos="19.74" arrivalSpeed="16.36" duration="117.00" routeLength="857.54" waitingTime="9.00" waitingCount="2" stopTime="0.00" timeLoss="64.62" rerouteNo="0" devices="tripinfo_flow_route_93_duration_20250327_2050.12" vType="car" speedFactor="1.15" vaporized=""/>
    <tripinfo id="flow_route_102_duration_20250327_2050.4" depart="35.00" departLane="1342963997_0" departPos="66.73" departSpeed="0.00" departDelay="0.72" arrival="151.00" arrivalLane="380585336_0" arrivalPos="300.55" arrivalSpeed="14.57" duration="116.00" routeLength="944.77" waitingTime="8.00" waitingCount="2" stopTime="0.00" timeLoss="53.62" rerouteNo="0" devices="tripinfo_flow_route_102_duration_20250327_2050.4" vType="car" speedFactor="0.90" vaporized=""/>
    <tripinfo id="flow_route_91_duration_20250327_2050.3" depart="67.00" departLane="133000063_0" departPos="14.57" departSpeed="0.00" departDelay="31.00" arrival="151.00" arrivalLane="683079387#1_0" arrivalPos="0.43" arrivalSpeed="13.93" duration="84.00" routeLength="704.60" waitingTime="0.00" waitingCount="0" stopTime="0.00" timeLoss="33.45" rerouteNo="0" devices="tripinfo_flow_route_91_duration_20250327_2050.3" vType="car" speedFactor="0.85" vaporized=""/>
    <tripinfo id="flow_route_93_duration_20250327_2050.7" depart="18.00" departLane="133000063_0" departPos="4.79" departSpeed="0.00" departDelay="6.00" arrival="152.00" arrivalLane="380585336_1" arrivalPos="94.02" arrivalSpeed="16.28" duration="134.00" routeLength="944.51" waitingTime="24.00" waitingCount="2" stopTime="0.00" timeLoss="76.14" rerouteNo="0" devices="tripinfo_flow_route_93_duration_20250327_2050.7" vType="car" speedFactor="1.02" vaporized=""/>
    <tripinfo id="flow_route_93_duration_20250327_2050.20" depart="65.00" departLane="133000063_0" departPos="97.93" departSpeed="0.00" departDelay="30.72" arrival="154.00" arrivalLane="380585336_1" arrivalPos="52.37" arrivalSpeed="16.15" duration="89.00" routeLength="809.73" waitingTime="0.00" waitingCount="0" stopTime="0.00" timeLoss="39.40" rerouteNo="0" devices="tripinfo_flow_route_93_duration_20250327_2050.20" vType="car" speedFactor="1.00" vaporized=""/>
    <tripinfo id="flow_route_93_duration_20250327_2050.13" depart="38.00" departLane="133000063_0" departPos="114.25" departSpeed="0.00" departDelay="15.72" arrival="160.00" arrivalLane="380585336_2" arrivalPos="285.97" arrivalSpeed="16.13" duration="122.00" routeLength="1027.01" waitingTime="21.00" waitingCount="2" stopTime="0.00" timeLoss="59.69" rerouteNo="0" devices="tripinfo_flow_route_93_duration_20250327_2050.13" vType="car" speedFactor="1.17" vaporized=""/>
    <tripinfo id="flow_route_93_duration_20250327_2050.11" depart="30.00" departLane="133000063_0" departPos="51.04" departSpeed="0.00" departDelay="11.15" arrival="162.00" arrivalLane="380585336_1" arrivalPos="75.41" arrivalSpeed="15.45" duration="132.00" routeLength="879.67" waitingTime="22.00" waitingCount="2" stopTime="0.00" timeLoss="78.25" rerouteNo="0" devices="tripinfo_flow_route_93_duration_20250327_2050.11" vType="car" speedFactor="1.13" vaporized=""/>
    <tripinfo id="flow_route_93_duration_20250327_2050.15" depart="43.00" departLane="133000063_0" departPos="28.85" departSpeed="0.00" departDelay="17.29" arrival="165.00" arrivalLane="380585336_1" arrivalPos="10.05" arrivalSpeed="16.27" duration="122.00" routeLength="836.49" waitingTime="9.00" waitingCount="4" stopTime="0.00" timeLoss="71.47" rerouteNo="0" devices="tripinfo_flow_route_93_duration_20250327_2050.15" vType="car" speedFactor="1.18" vaporized=""/>
    <tripinfo id="flow_route_93_duration_20250327_2050.8" depart="18.00" departLane="133000063_0" departPos="48.03" departSpeed="0.00" departDelay="4.29" arrival="168.00" arrivalLane="380585336_1" arrivalPos="251.23" arrivalSpeed="15.86" duration="150.00" routeLength="1058.49" waitingTime="29.00" waitingCount="1" stopTime="0.00" timeLoss="84.75" rerouteNo="0" devices="tripinfo_flow_route_93_duration_20250327_2050.8" vType="car" speedFactor="0.97" vaporized=""/>
    <tripinfo id="flow_route_93_duration_20250327_2050.16" depart="48.00" departLane="133000063_0" departPos="67.77" departSpeed="0.00" departDelay="20.58" arrival="168.00" arrivalLane="380585336_1" arrivalPos="192.05" arrivalSpeed="15.76" duration="120.00" routeLength="979.56" waitingTime="16.00" waitingCount="2" stopTime="0.00" timeLoss="57.88" rerouteNo="0" devices="tripinfo_flow_route_93_duration_20250327_2050.16" vType="car" speedFactor="0.96" vaporized=""/>
    <tripinfo id="flow_route_93_duration_20250327_2050.18" depart="57.00" departLane="133000063_0" departPos="39.23" departSpeed="0.00" departDelay="26.15" arrival="172.00" arrivalLane="380585336_1" arrivalPos="144.47" arrivalSpeed="16.49" duration="115.00" routeLength="960.54" waitingTime="1.00" waitingCount="1" stopTime="0.00" timeLoss="56.44" rerouteNo="0" devices="tripinfo_flow_route_93_duration_20250327_2050.18" vType="car" speedFactor="1.04" vaporized=""/>
    <tripinfo id="flow_route_93_duration_20250327_2050.14" depart="42.00" departLane="133000063_0" departPos="2.52" departSpeed="0.00" departDelay="18.00" arrival="180.00" arrivalLane="380585336_0" arrivalPos="347.85" arrivalSpeed="16.34" duration="138.00" routeLength="1200.62" waitingTime="6.00" waitingCount="1" stopTime="0.00" timeLoss="65.03" rerouteNo="0" devices="tripinfo_flow_route_93_duration_20250327_2050.14" vType="car" speedFactor="1.02" vaporized=""/>
    <tripinfo id="flow_route_92_duration_20250327_2050.8" depart="88.00" departLane="133000063_0" departPos="39.79" departSpeed="0.00" departDelay="44.37" arrival="183.00" arrivalLane="186409193_0" arrivalPos="19.80" arrivalSpeed="15.56" duration="95.00" routeLength="371.87" waitingTime="37.00" waitingCount="1" stopTime="0.00" timeLoss="71.93" rerouteNo="0" devices="tripinfo_flow_route_92_duration_20250327_2050.8" vType="car" speedFactor="1.12" vaporized=""/>
    <tripinfo id="flow_route_93_duration_20250327_2050.21" depart="68.00" departLane="133000063_0" departPos="5.96" departSpeed="0.00" departDelay="32.01" arrival="188.00" arrivalLane="380585336_0" arrivalPos="164.61" arrivalSpeed="14.12" duration="120.00" routeLength="1013.93" waitingTime="0.00" waitingCount="0" stopTime="0.00" timeLoss="49.05" rerouteNo="0" devices="tripinfo_flow_route_93_duration_20250327_2050.21" vType="car" speedFactor="0.85" vaporized=""/>
    <tripinfo id="flow_route_93_duration_20250327_2050.22" depart="73.00" departLane="133000063_0" departPos="1.26" departSpeed="0.00" departDelay="35.29" arrival="192.00" arrivalLane="380585336_1" arrivalPos="381.09" arrivalSpeed="16.43" duration="119.00" routeLength="1235.12" waitingTime="0.00" waitingCount="0" stopTime="0.00" timeLoss="44.46" rerouteNo="0" devices="tripinfo_flow_route_93_duration_20250327_2050.22" vType="car" speedFactor="1.02" vaporized=""/>
    <tripinfo id="flow_route_93_duration_20250327_2050.17" depart="56.00" departLane="133000063_0" departPos="19.75" departSpeed="0.00" departDelay="26.86" arrival="193.00" arrivalLane="380585336_0" arrivalPos="409.35" arrivalSpeed="16.38" duration="137.00" routeLength="1244.89" waitingTime="0.00" waitingCount="0" stopTime="0.00" timeLoss="61.11" rerouteNo="0" devices="tripinfo_flow_route_93_duration_20250327_2050.17" vType="car" speedFactor="1.09" vaporized=""/>
    <tripinfo id="flow_route_93_duration_20250327_2050.19" depart="64.00" departLane="133000063_0" departPos="38.00" departSpeed="0.00" departDelay="31.43" arrival="193.00" arrivalLane="380585336_0" arrivalPos="329.08" arrivalSpeed="16.20" duration="129.00" routeLength="1146.37" waitingTime="0.00" waitingCount="0" stopTime="0.00" timeLoss="59.33" rerouteNo="0" devices="tripinfo_flow_route_93_duration_20250327_2050.19" vType="car" speedFactor="1.09" vaporized=""/>