<?xml version="1.0" encoding="UTF-8"?>

<!-- generated on 2025-05-06 21:08:16 by Eclipse SUMO sumo Version 1.20.0
<configuration xmlns:xsi="http://www.w3.org/2001/XMLSchema-instance" xsi:noNamespaceSchemaLocation="http://sumo.dlr.de/xsd/sumoConfiguration.xsd">

    <input>
        <net-file value="osm.net.xml"/>
        <route-files value="xml/route_static_cluster_11648745684_256036885_3839031483_3.rou.xml"/>
    </input>

    <output>
        <tripinfo-output value="xml/tripinfo_static_cluster_11648745684_256036885_3839031483_3.xml"/>
    </output>

    <traci_server>
        <remote-port value="42949"/>
    </traci_server>

</configuration>
-->

<tripinfos xmlns:xsi="http://www.w3.org/2001/XMLSchema-instance" xsi:noNamespaceSchemaLocation="http://sumo.dlr.de/xsd/tripinfo_file.xsd">
    <tripinfo id="flow_route_72_duration_20250327_2120.0" depart="0.00" departLane="1369578052#0_0" departPos="161.40" departSpeed="0.00" departDelay="0.00" arrival="15.00" arrivalLane="133342692#0_0" arrivalPos="42.43" arrivalSpeed="11.65" duration="15.00" routeLength="81.12" waitingTime="0.00" waitingCount="0" stopTime="0.00" timeLoss="8.08" rerouteNo="0" devices="tripinfo_flow_route_72_duration_20250327_2120.0" vType="car" speedFactor="0.89" vaporized=""/>
    <tripinfo id="flow_route_68_duration_20250327_2120.2" depart="10.00" departLane="1253209803#0_0" departPos="306.19" departSpeed="0.00" departDelay="0.77" arrival="23.00" arrivalLane="-138002002#2_0" arrivalPos="23.83" arrivalSpeed="10.87" duration="13.00" routeLength="68.96" waitingTime="0.00" waitingCount="0" stopTime="0.00" timeLoss="8.15" rerouteNo="0" devices="tripinfo_flow_route_68_duration_20250327_2120.2" vType="car" speedFactor="0.93" vaporized=""/>
    <tripinfo id="flow_route_68_duration_20250327_2120.0" depart="0.00" departLane="1253209803#0_0" departPos="143.52" departSpeed="0.00" departDelay="0.00" arrival="30.00" arrivalLane="-138002002#2_1" arrivalPos="90.53" arrivalSpeed="16.53" duration="30.00" routeLength="298.33" waitingTime="0.00" waitingCount="0" stopTime="0.00" timeLoss="11.27" rerouteNo="0" devices="tripinfo_flow_route_68_duration_20250327_2120.0" vType="car" speedFactor="1.08" vaporized=""/>
    <tripinfo id="flow_route_70_duration_20250327_2120.0" depart="0.00" departLane="1253209803#0_0" departPos="83.97" departSpeed="0.00" departDelay="0.00" arrival="32.00" arrivalLane="133342692#0_2" arrivalPos="7.48" arrivalSpeed="9.70" duration="32.00" routeLength="271.18" waitingTime="0.00" waitingCount="0" stopTime="0.00" timeLoss="13.47" rerouteNo="0" devices="tripinfo_flow_route_70_duration_20250327_2120.0" vType="car" speedFactor="0.83" vaporized=""/>
    <tripinfo id="flow_route_69_duration_20250327_2120.0" depart="0.00" departLane="1253209803#0_0" departPos="179.76" departSpeed="0.00" departDelay="0.00" arrival="34.00" arrivalLane="380585337#0_0" arrivalPos="14.31" arrivalSpeed="16.26" duration="34.00" routeLength="299.43" waitingTime="0.00" waitingCount="0" stopTime="0.00" timeLoss="14.85" rerouteNo="0" devices="tripinfo_flow_route_69_duration_20250327_2120.0" vType="car" speedFactor="1.03" vaporized=""/>
    <tripinfo id="flow_route_65_duration_20250327_2120.0" depart="6.00" departLane="133131666#1_0" departPos="0.72" departSpeed="0.00" departDelay="6.00" arrival="41.00" arrivalLane="138002016#0_2" arrivalPos="14.48" arrivalSpeed="7.71" duration="35.00" routeLength="198.22" waitingTime="2.00" waitingCount="1" stopTime="0.00" timeLoss="22.27" rerouteNo="0" devices="tripinfo_flow_route_65_duration_20250327_2120.0" vType="car" speedFactor="1.01" vaporized=""/>
    <tripinfo id="flow_route_65_duration_20250327_2120.1" depart="17.00" departLane="133131666#1_0" departPos="3.37" departSpeed="0.00" departDelay="8.43" arrival="43.00" arrivalLane="138002016#0_2" arrivalPos="9.49" arrivalSpeed="10.96" duration="26.00" routeLength="190.58" waitingTime="0.00" waitingCount="0" stopTime="0.00" timeLoss="13.41" rerouteNo="0" devices="tripinfo_flow_route_65_duration_20250327_2120.1" vType="car" speedFactor="0.99" vaporized=""/>
    <tripinfo id="flow_route_64_duration_20250327_2120.2" depart="10.00" departLane="133131666#1_0" departPos="2.78" departSpeed="0.00" departDelay="2.50" arrival="47.00" arrivalLane="-138002002#2_0" arrivalPos="29.31" arrivalSpeed="8.87" duration="37.00" routeLength="192.08" waitingTime="3.00" waitingCount="1" stopTime="0.00" timeLoss="24.56" rerouteNo="0" devices="tripinfo_flow_route_64_duration_20250327_2120.2" vType="car" speedFactor="1.12" vaporized=""/>
    <tripinfo id="flow_route_64_duration_20250327_2120.3" depart="21.00" departLane="133131666#1_0" departPos="1.04" departSpeed="0.00" departDelay="9.75" arrival="51.00" arrivalLane="-138002002#2_0" arrivalPos="41.10" arrivalSpeed="9.34" duration="30.00" routeLength="205.61" waitingTime="0.00" waitingCount="0" stopTime="0.00" timeLoss="14.77" rerouteNo="0" devices="tripinfo_flow_route_64_duration_20250327_2120.3" vType="car" speedFactor="0.88" vaporized=""/>
    <tripinfo id="flow_route_63_duration_20250327_2120.0" depart="0.00" departLane="133131666#1_0" departPos="14.94" departSpeed="0.00" departDelay="0.00" arrival="52.00" arrivalLane="133342692#0_0" arrivalPos="152.76" arrivalSpeed="16.40" duration="52.00" routeLength="321.54" waitingTime="10.00" waitingCount="1" stopTime="0.00" timeLoss="32.11" rerouteNo="0" devices="tripinfo_flow_route_63_duration_20250327_2120.0" vType="car" speedFactor="1.06" vaporized=""/>
    <tripinfo id="flow_route_64_duration_20250327_2120.0" depart="2.00" departLane="133131666#1_0" departPos="6.82" departSpeed="0.00" departDelay="2.00" arrival="52.00" arrivalLane="-138002002#2_0" arrivalPos="131.25" arrivalSpeed="15.16" duration="50.00" routeLength="289.98" waitingTime="8.00" waitingCount="1" stopTime="0.00" timeLoss="29.94" rerouteNo="0" devices="tripinfo_flow_route_64_duration_20250327_2120.0" vType="car" speedFactor="0.94" vaporized=""/>
    <tripinfo id="flow_route_64_duration_20250327_2120.1" depart="9.00" departLane="133131666#1_0" departPos="15.21" departSpeed="0.00" departDelay="5.25" arrival="55.00" arrivalLane="-138002002#2_0" arrivalPos="151.85" arrivalSpeed="15.09" duration="46.00" routeLength="302.19" waitingTime="4.00" waitingCount="1" stopTime="0.00" timeLoss="26.54" rerouteNo="0" devices="tripinfo_flow_route_64_duration_20250327_2120.1" vType="car" speedFactor="1.03" vaporized=""/>
    <tripinfo id="flow_route_63_duration_20250327_2120.1" depart="28.00" departLane="133131666#1_0" departPos="6.72" departSpeed="0.00" departDelay="13.00" arrival="58.00" arrivalLane="133342692#0_1" arrivalPos="102.22" arrivalSpeed="16.19" duration="30.00" routeLength="279.22" waitingTime="0.00" waitingCount="0" stopTime="0.00" timeLoss="12.94" rerouteNo="0" devices="tripinfo_flow_route_63_duration_20250327_2120.1" vType="car" speedFactor="1.16" vaporized=""/>
    <tripinfo id="flow_route_64_duration_20250327_2120.4" depart="30.00" departLane="133131666#1_0" departPos="19.40" departSpeed="0.00" departDelay="15.00" arrival="63.00" arrivalLane="-138002002#2_0" arrivalPos="127.40" arrivalSpeed="15.42" duration="33.00" routeLength="273.55" waitingTime="0.00" waitingCount="0" stopTime="0.00" timeLoss="15.38" rerouteNo="0" devices="tripinfo_flow_route_64_duration_20250327_2120.4" vType="car" speedFactor="1.02" vaporized=""/>
    <tripinfo id="flow_route_65_duration_20250327_2120.2" depart="32.00" departLane="133131666#1_0" departPos="2.25" departSpeed="0.00" departDelay="14.86" arrival="63.00" arrivalLane="138002016#0_2" arrivalPos="88.77" arrivalSpeed="13.60" duration="31.00" routeLength="270.98" waitingTime="0.00" waitingCount="0" stopTime="0.00" timeLoss="10.25" rerouteNo="0" devices="tripinfo_flow_route_65_duration_20250327_2120.2" vType="car" speedFactor="0.83" vaporized=""/>
    <tripinfo id="flow_route_64_duration_20250327_2120.6" depart="38.00" departLane="133131666#1_0" departPos="3.41" departSpeed="0.00" departDelay="15.50" arrival="68.00" arrivalLane="-138002002#2_0" arrivalPos="53.43" arrivalSpeed="10.72" duration="30.00" routeLength="215.57" waitingTime="0.00" waitingCount="0" stopTime="0.00" timeLoss="15.01" rerouteNo="0" devices="tripinfo_flow_route_64_duration_20250327_2120.6" vType="car" speedFactor="0.93" vaporized=""/>
    <tripinfo id="flow_route_64_duration_20250327_2120.5" depart="36.00" departLane="133131666#1_0" departPos="8.25" departSpeed="0.00" departDelay="17.25" arrival="73.00" arrivalLane="-138002002#2_0" arrivalPos="170.97" arrivalSpeed="14.11" duration="37.00" routeLength="328.27" waitingTime="0.00" waitingCount="0" stopTime="0.00" timeLoss="13.23" rerouteNo="0" devices="tripinfo_flow_route_64_duration_20250327_2120.5" vType="car" speedFactor="0.87" vaporized=""/>
    <tripinfo id="flow_route_75_duration_20250327_2120.0" depart="0.00" departLane="380593307#0_0" departPos="8.02" departSpeed="0.00" departDelay="0.00" arrival="75.00" arrivalLane="-138002002#2_1" arrivalPos="1.11" arrivalSpeed="6.85" duration="75.00" routeLength="196.85" waitingTime="44.00" waitingCount="1" stopTime="0.00" timeLoss="62.43" rerouteNo="0" devices="tripinfo_flow_route_75_duration_20250327_2120.0" vType="car" speedFactor="1.09" vaporized=""/>
    <tripinfo id="flow_route_75_duration_20250327_2120.1" depart="12.00" departLane="380593307#0_0" departPos="41.91" departSpeed="0.00" departDelay="0.00" arrival="81.00" arrivalLane="-138002002#2_1" arrivalPos="30.94" arrivalSpeed="10.26" duration="69.00" routeLength="192.79" waitingTime="36.00" waitingCount="1" stopTime="0.00" timeLoss="55.40" rerouteNo="0" devices="tripinfo_flow_route_75_duration_20250327_2120.1" vType="car" speedFactor="0.94" vaporized=""/>
    <tripinfo id="flow_route_73_duration_20250327_2120.0" depart="0.00" departLane="380593307#0_0" departPos="55.90" departSpeed="0.00" departDelay="0.00" arrival="87.00" arrivalLane="380585337#0_0" arrivalPos="13.23" arrivalSpeed="15.47" duration="87.00" routeLength="294.01" waitingTime="47.00" waitingCount="1" stopTime="0.00" timeLoss="68.16" rerouteNo="0" devices="tripinfo_flow_route_73_duration_20250327_2120.0" vType="car" speedFactor="0.94" vaporized=""/>
    <tripinfo id="flow_route_74_duration_20250327_2120.1" depart="20.00" departLane="380593307#0_0" departPos="31.36" departSpeed="0.00" departDelay="0.00" arrival="87.00" arrivalLane="138002016#0_0" arrivalPos="107.92" arrivalSpeed="14.85" duration="67.00" routeLength="259.25" waitingTime="25.00" waitingCount="1" stopTime="0.00" timeLoss="50.09" rerouteNo="0" devices="tripinfo_flow_route_74_duration_20250327_2120.1" vType="car" speedFactor="1.13" vaporized=""/>
    <tripinfo id="flow_route_75_duration_20250327_2120.2" depart="24.00" departLane="380593307#0_0" departPos="89.03" departSpeed="0.00" departDelay="0.00" arrival="87.00" arrivalLane="-138002002#2_1" arrivalPos="77.96" arrivalSpeed="14.04" duration="63.00" routeLength="192.69" waitingTime="29.00" waitingCount="1" stopTime="0.00" timeLoss="50.30" rerouteNo="0" devices="tripinfo_flow_route_75_duration_20250327_2120.2" vType="car" speedFactor="1.15" vaporized=""/>
    <tripinfo id="flow_route_73_duration_20250327_2120.1" depart="15.00" departLane="380593307#0_0" departPos="31.83" departSpeed="0.00" departDelay="0.00" arrival="89.00" arrivalLane="380585337#0_0" arrivalPos="7.47" arrivalSpeed="14.65" duration="74.00" routeLength="312.31" waitingTime="32.00" waitingCount="1" stopTime="0.00" timeLoss="52.59" rerouteNo="0" devices="tripinfo_flow_route_73_duration_20250327_2120.1" vType="car" speedFactor="0.89" vaporized=""/>
    <tripinfo id="flow_route_74_duration_20250327_2120.2" depart="40.00" departLane="380593307#0_0" departPos="102.90" departSpeed="0.00" departDelay="0.00" arrival="89.00" arrivalLane="138002016#0_0" arrivalPos="88.27" arrivalSpeed="12.41" duration="49.00" routeLength="168.07" waitingTime="16.00" waitingCount="1" stopTime="0.00" timeLoss="36.88" rerouteNo="0" devices="tripinfo_flow_route_74_duration_20250327_2120.2" vType="car" speedFactor="0.90" vaporized=""/>
    <tripinfo id="flow_route_73_duration_20250327_2120.2" depart="31.00" departLane="380593307#0_0" departPos="121.44" departSpeed="0.00" departDelay="1.00" arrival="90.00" arrivalLane="380585337#0_1" arrivalPos="11.06" arrivalSpeed="14.78" duration="59.00" routeLength="226.30" waitingTime="25.00" waitingCount="1" stopTime="0.00" timeLoss="43.21" rerouteNo="0" devices="tripinfo_flow_route_73_duration_20250327_2120.2" vType="car" speedFactor="0.90" vaporized=""/>
    <tripinfo id="flow_route_73_duration_20250327_2120.3" depart="45.00" departLane="380593307#0_0" departPos="0.15" departSpeed="0.00" departDelay="0.00" arrival="91.00" arrivalLane="380585337#0_1" arrivalPos="8.39" arrivalSpeed="16.24" duration="46.00" routeLength="344.92" waitingTime="2.00" waitingCount="1" stopTime="0.00" timeLoss="25.03" rerouteNo="0" devices="tripinfo_flow_route_73_duration_20250327_2120.3" vType="car" speedFactor="1.00" vaporized=""/>
    <tripinfo id="flow_route_74_duration_20250327_2120.0" depart="0.00" departLane="380593307#0_0" departPos="118.68" departSpeed="0.00" departDelay="0.00" arrival="92.00" arrivalLane="138002016#0_0" arrivalPos="237.21" arrivalSpeed="14.08" duration="92.00" routeLength="301.22" waitingTime="53.00" waitingCount="1" stopTime="0.00" timeLoss="69.72" rerouteNo="0" devices="tripinfo_flow_route_74_duration_20250327_2120.0" vType="car" speedFactor="0.86" vaporized=""/>
    <tripinfo id="flow_route_75_duration_20250327_2120.3" depart="36.00" departLane="380593307#0_0" departPos="7.39" departSpeed="0.00" departDelay="0.00" arrival="95.00" arrivalLane="-138002002#2_1" arrivalPos="162.47" arrivalSpeed="16.55" duration="59.00" routeLength="358.84" waitingTime="13.00" waitingCount="1" stopTime="0.00" timeLoss="36.23" rerouteNo="0" devices="tripinfo_flow_route_75_duration_20250327_2120.3" vType="car" speedFactor="1.04" vaporized=""/>
    <tripinfo id="flow_route_75_duration_20250327_2120.4" depart="48.00" departLane="380593307#0_0" departPos="68.31" departSpeed="0.00" departDelay="0.00" arrival="96.00" arrivalLane="-138002002#2_1" arrivalPos="156.82" arrivalSpeed="16.60" duration="48.00" routeLength="292.27" waitingTime="7.00" waitingCount="1" stopTime="0.00" timeLoss="29.70" rerouteNo="0" devices="tripinfo_flow_route_75_duration_20250327_2120.4" vType="car" speedFactor="1.14" vaporized=""/>
    <tripinfo id="flow_route_68_duration_20250327_2120.4" depart="21.00" departLane="1253209803#0_0" departPos="229.16" departSpeed="0.00" departDelay="2.54" arrival="110.00" arrivalLane="-138002002#2_0" arrivalPos="12.34" arrivalSpeed="9.67" duration="89.00" routeLength="134.50" waitingTime="57.00" waitingCount="1" stopTime="0.00" timeLoss="80.23" rerouteNo="0" devices="tripinfo_flow_route_68_duration_20250327_2120.4" vType="car" speedFactor="0.92" vaporized=""/>
    <tripinfo id="flow_route_72_duration_20250327_2120.3" depart="45.00" departLane="1369578052#0_0" departPos="62.46" departSpeed="0.00" departDelay="0.00" arrival="112.00" arrivalLane="133342692#0_0" arrivalPos="28.72" arrivalSpeed="9.73" duration="67.00" routeLength="166.34" waitingTime="35.00" waitingCount="1" stopTime="0.00" timeLoss="55.72" rerouteNo="0" devices="tripinfo_flow_route_72_duration_20250327_2120.3" vType="car" speedFactor="1.00" vaporized=""/>
    <tripinfo id="flow_route_68_duration_20250327_2120.1" depart="5.00" departLane="1253209803#0_0" departPos="75.15" departSpeed="0.00" departDelay="0.39" arrival="113.00" arrivalLane="-138002002#2_0" arrivalPos="73.05" arrivalSpeed="12.36" duration="108.00" routeLength="349.23" waitingTime="62.00" waitingCount="1" stopTime="0.00" timeLoss="86.37" rerouteNo="0" devices="tripinfo_flow_route_68_duration_20250327_2120.1" vType="car" speedFactor="1.05" vaporized=""/>
    <tripinfo id="flow_route_72_duration_20250327_2120.1" depart="15.00" departLane="1369578052#0_0" departPos="176.02" departSpeed="0.00" departDelay="0.00" arrival="116.00" arrivalLane="133342692#0_0" arrivalPos="164.58" arrivalSpeed="16.18" duration="101.00" routeLength="188.64" waitingTime="75.00" waitingCount="1" stopTime="0.00" timeLoss="87.95" rerouteNo="0" devices="tripinfo_flow_route_72_duration_20250327_2120.1" vType="car" speedFactor="0.97" vaporized=""/>
    <tripinfo id="flow_route_71_duration_20250327_2120.1" depart="20.00" departLane="1369578052#0_0" departPos="38.19" departSpeed="0.00" departDelay="0.00" arrival="116.00" arrivalLane="138002016#0_0" arrivalPos="99.92" arrivalSpeed="14.70" duration="96.00" routeLength="279.41" waitingTime="55.00" waitingCount="1" stopTime="0.00" timeLoss="77.68" rerouteNo="0" devices="tripinfo_flow_route_71_duration_20250327_2120.1" vType="car" speedFactor="0.95" vaporized=""/>
    <tripinfo id="flow_route_72_duration_20250327_2120.2" depart="30.00" departLane="1369578052#0_0" departPos="54.62" departSpeed="0.00" departDelay="0.00" arrival="118.00" arrivalLane="133342692#0_0" arrivalPos="121.86" arrivalSpeed="15.45" duration="88.00" routeLength="267.32" waitingTime="43.00" waitingCount="1" stopTime="0.00" timeLoss="70.33" rerouteNo="0" devices="tripinfo_flow_route_72_duration_20250327_2120.2" vType="car" speedFactor="1.10" vaporized=""/>
    <tripinfo id="flow_route_68_duration_20250327_2120.8" depart="39.00" departLane="1253209803#0_0" departPos="136.78" departSpeed="0.00" departDelay="2.08" arrival="119.00" arrivalLane="-138002002#2_0" arrivalPos="71.96" arrivalSpeed="14.43" duration="80.00" routeLength="286.51" waitingTime="37.00" waitingCount="1" stopTime="0.00" timeLoss="62.10" rerouteNo="0" devices="tripinfo_flow_route_68_duration_20250327_2120.8" vType="car" speedFactor="1.04" vaporized=""/>
    <tripinfo id="flow_route_68_duration_20250327_2120.5" depart="24.00" departLane="1253209803#0_0" departPos="123.73" departSpeed="0.00" departDelay="0.93" arrival="120.00" arrivalLane="-138002002#2_0" arrivalPos="125.02" arrivalSpeed="16.11" duration="96.00" routeLength="352.61" waitingTime="51.00" waitingCount="1" stopTime="0.00" timeLoss="74.75" rerouteNo="0" devices="tripinfo_flow_route_68_duration_20250327_2120.5" vType="car" speedFactor="1.18" vaporized=""/>
    <tripinfo id="flow_route_68_duration_20250327_2120.6" depart="28.00" departLane="1253209803#0_0" departPos="277.94" departSpeed="0.00" departDelay="0.31" arrival="121.00" arrivalLane="-138002002#2_1" arrivalPos="4.39" arrivalSpeed="8.70" duration="93.00" routeLength="77.77" waitingTime="67.00" waitingCount="2" stopTime="0.00" timeLoss="88.31" rerouteNo="0" devices="tripinfo_flow_route_68_duration_20250327_2120.6" vType="car" speedFactor="0.99" vaporized=""/>
    <tripinfo id="flow_route_71_duration_20250327_2120.2" depart="40.00" departLane="1369578052#0_0" departPos="125.50" departSpeed="0.00" departDelay="0.00" arrival="121.00" arrivalLane="138002016#0_1" arrivalPos="187.54" arrivalSpeed="16.57" duration="81.00" routeLength="279.72" waitingTime="42.00" waitingCount="1" stopTime="0.00" timeLoss="63.41" rerouteNo="0" devices="tripinfo_flow_route_71_duration_20250327_2120.2" vType="car" speedFactor="1.00" vaporized=""/>
    <tripinfo id="flow_route_71_duration_20250327_2120.0" depart="0.00" departLane="1369578052#0_0" departPos="11.11" departSpeed="0.00" departDelay="0.00" arrival="122.00" arrivalLane="138002016#0_0" arrivalPos="236.62" arrivalSpeed="16.32" duration="122.00" routeLength="443.19" waitingTime="72.00" waitingCount="1" stopTime="0.00" timeLoss="94.65" rerouteNo="0" devices="tripinfo_flow_route_71_duration_20250327_2120.0" vType="car" speedFactor="1.05" vaporized=""/>
    <tripinfo id="flow_route_68_duration_20250327_2120.11" depart="51.00" departLane="1253209803#0_0" departPos="105.66" departSpeed="0.00" departDelay="0.24" arrival="122.00" arrivalLane="-138002002#2_0" arrivalPos="85.27" arrivalSpeed="15.50" duration="71.00" routeLength="330.93" waitingTime="26.00" waitingCount="1" stopTime="0.00" timeLoss="50.01" rerouteNo="0" devices="tripinfo_flow_route_68_duration_20250327_2120.11" vType="car" speedFactor="0.97" vaporized=""/>
    <tripinfo id="flow_route_68_duration_20250327_2120.10" depart="47.00" departLane="1253209803#0_0" departPos="36.30" departSpeed="0.00" departDelay="0.85" arrival="124.00" arrivalLane="-138002002#2_0" arrivalPos="89.60" arrivalSpeed="14.81" duration="77.00" routeLength="404.62" waitingTime="25.00" waitingCount="1" stopTime="0.00" timeLoss="51.20" rerouteNo="0" devices="tripinfo_flow_route_68_duration_20250327_2120.10" vType="car" speedFactor="0.90" vaporized=""/>
    <tripinfo id="flow_route_68_duration_20250327_2120.3" depart="15.00" departLane="1253209803#0_0" departPos="184.14" departSpeed="0.00" departDelay="1.16" arrival="125.00" arrivalLane="-138002002#2_0" arrivalPos="16.40" arrivalSpeed="10.22" duration="110.00" routeLength="183.58" waitingTime="67.00" waitingCount="2" stopTime="0.00" timeLoss="98.83" rerouteNo="0" devices="tripinfo_flow_route_68_duration_20250327_2120.3" vType="car" speedFactor="0.94" vaporized=""/>
    <tripinfo id="flow_route_70_duration_20250327_2120.2" depart="30.00" departLane="1253209803#0_0" departPos="308.40" departSpeed="0.00" departDelay="0.00" arrival="126.00" arrivalLane="133342692#0_2" arrivalPos="72.88" arrivalSpeed="12.20" duration="96.00" routeLength="112.16" waitingTime="77.00" waitingCount="2" stopTime="0.00" timeLoss="88.75" rerouteNo="0" devices="tripinfo_flow_route_70_duration_20250327_2120.2" vType="car" speedFactor="1.18" vaporized=""/>
    <tripinfo id="flow_route_70_duration_20250327_2120.1" depart="15.00" departLane="1253209803#0_0" departPos="53.46" departSpeed="0.00" departDelay="0.00" arrival="129.00" arrivalLane="133342692#0_2" arrivalPos="160.31" arrivalSpeed="16.59" duration="114.00" routeLength="454.53" waitingTime="58.00" waitingCount="2" stopTime="0.00" timeLoss="85.10" rerouteNo="0" devices="tripinfo_flow_route_70_duration_20250327_2120.1" vType="car" speedFactor="1.01" vaporized=""/>
    <tripinfo id="flow_route_70_duration_20250327_2120.3" depart="47.00" departLane="1253209803#0_0" departPos="130.74" departSpeed="0.00" departDelay="2.00" arrival="130.00" arrivalLane="133342692#0_2" arrivalPos="154.88" arrivalSpeed="16.12" duration="83.00" routeLength="371.81" waitingTime="29.00" waitingCount="2" stopTime="0.00" timeLoss="59.52" rerouteNo="0" devices="tripinfo_flow_route_70_duration_20250327_2120.3" vType="car" speedFactor="1.10" vaporized=""/>
    <tripinfo id="flow_route_68_duration_20250327_2120.7" depart="33.00" departLane="1253209803#0_0" departPos="89.27" departSpeed="0.00" departDelay="0.70" arrival="135.00" arrivalLane="-138002002#2_0" arrivalPos="121.91" arrivalSpeed="15.93" duration="102.00" routeLength="383.96" waitingTime="48.00" waitingCount="2" stopTime="0.00" timeLoss="78.73" rerouteNo="0" devices="tripinfo_flow_route_68_duration_20250327_2120.7" vType="car" speedFactor="1.03" vaporized=""/>
    <tripinfo id="flow_route_64_duration_20250327_2120.7" depart="50.00" departLane="133131666#1_0" departPos="20.78" departSpeed="0.00" departDelay="23.75" arrival="140.00" arrivalLane="-138002002#2_0" arrivalPos="67.27" arrivalSpeed="10.59" duration="90.00" routeLength="212.04" waitingTime="55.00" waitingCount="1" stopTime="0.00" timeLoss="76.72" rerouteNo="0" devices="tripinfo_flow_route_64_duration_20250327_2120.7" vType="car" speedFactor="1.17" vaporized=""/>
    <tripinfo id="flow_route_68_duration_20250327_2120.9" depart="43.00" departLane="1253209803#0_0" departPos="4.64" departSpeed="0.00" departDelay="1.47" arrival="140.00" arrivalLane="-138002002#2_1" arrivalPos="157.79" arrivalSpeed="13.77" duration="97.00" routeLength="504.46" waitingTime="35.00" waitingCount="2" stopTime="0.00" timeLoss="64.11" rerouteNo="0" devices="tripinfo_flow_route_68_duration_20250327_2120.9" vType="car" speedFactor="0.85" vaporized=""/>
    <tripinfo id="flow_route_64_duration_20250327_2120.11" depart="68.00" departLane="133131666#1_0" departPos="20.38" departSpeed="0.00" departDelay="26.75" arrival="143.00" arrivalLane="-138002002#2_0" arrivalPos="18.95" arrivalSpeed="7.69" duration="75.00" routeLength="164.12" waitingTime="43.00" waitingCount="1" stopTime="0.00" timeLoss="62.31" rerouteNo="0" devices="tripinfo_flow_route_64_duration_20250327_2120.11" vType="car" speedFactor="0.88" vaporized=""/>
    <tripinfo id="flow_route_64_duration_20250327_2120.8" depart="53.00" departLane="133131666#1_0" departPos="16.05" departSpeed="0.00" departDelay="23.00" arrival="145.00" arrivalLane="-138002002#2_0" arrivalPos="90.76" arrivalSpeed="12.88" duration="92.00" routeLength="240.25" waitingTime="52.00" waitingCount="1" stopTime="0.00" timeLoss="75.81" rerouteNo="0" devices="tripinfo_flow_route_64_duration_20250327_2120.8" vType="car" speedFactor="0.97" vaporized=""/>
    <tripinfo id="flow_route_65_duration_20250327_2120.6" depart="87.00" departLane="133131666#1_0" departPos="0.26" departSpeed="0.00" departDelay="35.57" arrival="148.00" arrivalLane="138002016#0_2" arrivalPos="66.06" arrivalSpeed="12.40" duration="61.00" routeLength="250.26" waitingTime="22.00" waitingCount="1" stopTime="0.00" timeLoss="45.16" rerouteNo="0" devices="tripinfo_flow_route_65_duration_20250327_2120.6" vType="car" speedFactor="1.08" vaporized=""/>
    <tripinfo id="flow_route_63_duration_20250327_2120.2" depart="52.00" departLane="133131666#1_0" departPos="3.40" departSpeed="0.00" departDelay="22.00" arrival="149.00" arrivalLane="133342692#0_0" arrivalPos="158.58" arrivalSpeed="16.30" duration="97.00" routeLength="338.89" waitingTime="50.00" waitingCount="1" stopTime="0.00" timeLoss="76.08" rerouteNo="0" devices="tripinfo_flow_route_63_duration_20250327_2120.2" vType="car" speedFactor="1.02" vaporized=""/>
    <tripinfo id="flow_route_63_duration_20250327_2120.3" depart="76.00" departLane="133131666#1_0" departPos="2.65" departSpeed="0.00" departDelay="31.00" arrival="149.00" arrivalLane="133342692#0_1" arrivalPos="152.11" arrivalSpeed="16.25" duration="73.00" routeLength="333.18" waitingTime="30.00" waitingCount="1" stopTime="0.00" timeLoss="52.62" rerouteNo="0" devices="tripinfo_flow_route_63_duration_20250327_2120.3" vType="car" speedFactor="1.17" vaporized=""/>
    <tripinfo id="flow_route_65_duration_20250327_2120.3" depart="46.00" departLane="133131666#1_0" departPos="14.62" departSpeed="0.00" departDelay="20.29" arrival="150.00" arrivalLane="138002016#0_2" arrivalPos="186.24" arrivalSpeed="16.30" duration="104.00" routeLength="356.08" waitingTime="59.00" waitingCount="1" stopTime="0.00" timeLoss="81.48" rerouteNo="0" devices="tripinfo_flow_route_65_duration_20250327_2120.3" vType="car" speedFactor="1.01" vaporized=""/>
    <tripinfo id="flow_route_64_duration_20250327_2120.9" depart="57.00" departLane="133131666#1_0" departPos="2.55" departSpeed="0.00" departDelay="23.25" arrival="150.00" arrivalLane="-138002002#2_0" arrivalPos="131.20" arrivalSpeed="15.09" duration="93.00" routeLength="294.20" waitingTime="51.00" waitingCount="1" stopTime="0.00" timeLoss="73.17" rerouteNo="0" devices="tripinfo_flow_route_64_duration_20250327_2120.9" vType="car" speedFactor="0.96" vaporized=""/>
    <tripinfo id="flow_route_64_duration_20250327_2120.12" depart="83.00" departLane="133131666#1_0" departPos="13.42" departSpeed="0.00" departDelay="38.00" arrival="154.00" arrivalLane="-138002002#2_0" arrivalPos="88.92" arrivalSpeed="13.22" duration="71.00" routeLength="241.05" waitingTime="30.00" waitingCount="1" stopTime="0.00" timeLoss="54.95" rerouteNo="0" devices="tripinfo_flow_route_64_duration_20250327_2120.12" vType="car" speedFactor="1.02" vaporized=""/>
    <tripinfo id="flow_route_65_duration_20250327_2120.4" depart="63.00" departLane="133131666#1_0" departPos="5.56" departSpeed="0.00" departDelay="28.72" arrival="155.00" arrivalLane="138002016#0_2" arrivalPos="227.07" arrivalSpeed="16.55" duration="92.00" routeLength="405.97" waitingTime="41.00" waitingCount="1" stopTime="0.00" timeLoss="66.37" rerouteNo="0" devices="tripinfo_flow_route_65_duration_20250327_2120.4" vType="car" speedFactor="1.09" vaporized=""/>
    <tripinfo id="flow_route_64_duration_20250327_2120.10" depart="68.00" departLane="133131666#1_0" departPos="4.90" departSpeed="0.00" departDelay="30.50" arrival="156.00" arrivalLane="-138002002#2_0" arrivalPos="155.75" arrivalSpeed="16.50" duration="88.00" routeLength="316.40" waitingTime="40.00" waitingCount="1" stopTime="0.00" timeLoss="68.00" rerouteNo="0" devices="tripinfo_flow_route_64_duration_20250327_2120.10" vType="car" speedFactor="1.09" vaporized=""/>
    <tripinfo id="flow_route_64_duration_20250327_2120.14" depart="92.00" departLane="133131666#1_0" departPos="4.93" departSpeed="0.00" departDelay="39.50" arrival="159.00" arrivalLane="-138002002#2_0" arrivalPos="59.58" arrivalSpeed="11.63" duration="67.00" routeLength="220.20" waitingTime="27.00" waitingCount="1" stopTime="0.00" timeLoss="52.08" rerouteNo="0" devices="tripinfo_flow_route_64_duration_20250327_2120.14" vType="car" speedFactor="1.12" vaporized=""/>
    <tripinfo id="flow_route_64_duration_20250327_2120.15" depart="92.00" departLane="133131666#1_0" departPos="20.33" departSpeed="0.00" departDelay="35.75" arrival="162.00" arrivalLane="-138002002#2_0" arrivalPos="145.44" arrivalSpeed="15.80" duration="70.00" routeLength="290.66" waitingTime="27.00" waitingCount="1" stopTime="0.00" timeLoss="51.69" rerouteNo="0" devices="tripinfo_flow_route_64_duration_20250327_2120.15" vType="car" speedFactor="0.99" vaporized=""/>
    <tripinfo id="flow_route_65_duration_20250327_2120.5" depart="68.00" departLane="133131666#1_0" departPos="12.62" departSpeed="0.00" departDelay="25.15" arrival="163.00" arrivalLane="138002016#0_1" arrivalPos="300.77" arrivalSpeed="13.77" duration="95.00" routeLength="472.61" waitingTime="39.00" waitingCount="1" stopTime="0.00" timeLoss="60.47" rerouteNo="0" devices="tripinfo_flow_route_65_duration_20250327_2120.5" vType="car" speedFactor="0.85" vaporized=""/>