<?xml version="1.0" encoding="UTF-8"?>

<!-- generated on 2025-05-06 21:01:14 by Eclipse SUMO sumo Version 1.20.0
<configuration xmlns:xsi="http://www.w3.org/2001/XMLSchema-instance" xsi:noNamespaceSchemaLocation="http://sumo.dlr.de/xsd/sumoConfiguration.xsd">

    <input>
        <net-file value="osm.net.xml"/>
        <route-files value="xml/routes_sac2_cluster_356722183_3828703848.rou.xml"/>
    </input>

    <output>
        <tripinfo-output value="xml/tripinfo_9787.xml"/>
    </output>

    <traci_server>
        <remote-port value="36763"/>
    </traci_server>

</configuration>
-->

<tripinfos xmlns:xsi="http://www.w3.org/2001/XMLSchema-instance" xsi:noNamespaceSchemaLocation="http://sumo.dlr.de/xsd/tripinfo_file.xsd">
    <tripinfo id="flow_route_18_duration_20250327_2130.0" depart="0.00" departLane="133126040#0_0" departPos="80.59" departSpeed="0.00" departDelay="0.00" arrival="13.00" arrivalLane="1318893695#0_0" arrivalPos="9.11" arrivalSpeed="9.89" duration="13.00" routeLength="59.37" waitingTime="0.00" waitingCount="0" stopTime="0.00" timeLoss="8.98" rerouteNo="0" devices="tripinfo_flow_route_18_duration_20250327_2130.0" vType="car" speedFactor="1.01" vaporized=""/>
    <tripinfo id="flow_route_1_duration_20250327_2130.0" depart="4.00" departLane="1318793176#1_0" departPos="0.49" departSpeed="0.00" departDelay="4.00" arrival="28.00" arrivalLane="1318793173#0_1" arrivalPos="77.00" arrivalSpeed="15.41" duration="24.00" routeLength="200.41" waitingTime="0.00" waitingCount="0" stopTime="0.00" timeLoss="10.54" rerouteNo="0" devices="tripinfo_flow_route_1_duration_20250327_2130.0" vType="car" speedFactor="0.94" vaporized=""/>
    <tripinfo id="flow_route_0_duration_20250327_2130.1" depart="9.00" departLane="1318793176#1_0" departPos="1.70" departSpeed="0.00" departDelay="4.39" arrival="35.00" arrivalLane="133126031#0_0" arrivalPos="102.11" arrivalSpeed="16.42" duration="26.00" routeLength="220.83" waitingTime="0.00" waitingCount="0" stopTime="0.00" timeLoss="10.62" rerouteNo="0" devices="tripinfo_flow_route_0_duration_20250327_2130.1" vType="car" speedFactor="0.89" vaporized=""/>
    <tripinfo id="flow_route_0_duration_20250327_2130.0" depart="0.00" departLane="1318793176#1_0" departPos="2.64" departSpeed="0.00" departDelay="0.00" arrival="36.00" arrivalLane="133126031#0_0" arrivalPos="296.30" arrivalSpeed="16.44" duration="36.00" routeLength="414.08" waitingTime="0.00" waitingCount="0" stopTime="0.00" timeLoss="10.35" rerouteNo="0" devices="tripinfo_flow_route_0_duration_20250327_2130.0" vType="car" speedFactor="1.06" vaporized=""/>
    <tripinfo id="flow_route_0_duration_20250327_2130.3" depart="18.00" departLane="1318793176#1_0" departPos="2.58" departSpeed="0.00" departDelay="4.16" arrival="38.00" arrivalLane="133126031#0_0" arrivalPos="41.70" arrivalSpeed="14.46" duration="20.00" routeLength="159.54" waitingTime="0.00" waitingCount="0" stopTime="0.00" timeLoss="9.95" rerouteNo="0" devices="tripinfo_flow_route_0_duration_20250327_2130.3" vType="car" speedFactor="1.09" vaporized=""/>
    <tripinfo id="flow_route_19_duration_20250327_2130.0" depart="0.00" departLane="133126040#0_0" departPos="0.65" departSpeed="0.00" departDelay="0.00" arrival="44.00" arrivalLane="133126031#0_1" arrivalPos="163.43" arrivalSpeed="16.03" duration="44.00" routeLength="291.65" waitingTime="4.00" waitingCount="1" stopTime="0.00" timeLoss="25.11" rerouteNo="0" devices="tripinfo_flow_route_19_duration_20250327_2130.0" vType="car" speedFactor="1.08" vaporized=""/>
    <tripinfo id="flow_route_19_duration_20250327_2130.1" depart="7.00" departLane="133126040#0_0" departPos="3.51" departSpeed="0.00" departDelay="0.33" arrival="45.00" arrivalLane="133126031#0_1" arrivalPos="131.88" arrivalSpeed="15.91" duration="38.00" routeLength="257.25" waitingTime="0.00" waitingCount="0" stopTime="0.00" timeLoss="20.50" rerouteNo="0" devices="tripinfo_flow_route_19_duration_20250327_2130.1" vType="car" speedFactor="0.94" vaporized=""/>
    <tripinfo id="flow_route_19_duration_20250327_2130.2" depart="14.00" departLane="133126040#0_0" departPos="28.56" departSpeed="0.00" departDelay="0.67" arrival="49.00" arrivalLane="133126031#0_1" arrivalPos="136.79" arrivalSpeed="16.31" duration="35.00" routeLength="237.10" waitingTime="0.00" waitingCount="0" stopTime="0.00" timeLoss="18.80" rerouteNo="0" devices="tripinfo_flow_route_19_duration_20250327_2130.2" vType="car" speedFactor="1.03" vaporized=""/>
    <tripinfo id="flow_route_0_duration_20250327_2130.6" depart="33.00" departLane="1318793176#1_0" departPos="6.06" departSpeed="0.00" departDelay="5.31" arrival="51.00" arrivalLane="133126031#0_0" arrivalPos="9.26" arrivalSpeed="9.91" duration="18.00" routeLength="123.62" waitingTime="0.00" waitingCount="0" stopTime="0.00" timeLoss="9.07" rerouteNo="0" devices="tripinfo_flow_route_0_duration_20250327_2130.6" vType="car" speedFactor="0.88" vaporized=""/>
    <tripinfo id="flow_route_19_duration_20250327_2130.3" depart="20.00" departLane="133126040#0_0" departPos="64.49" departSpeed="0.00" departDelay="0.00" arrival="52.00" arrivalLane="133126031#0_1" arrivalPos="222.19" arrivalSpeed="16.33" duration="32.00" routeLength="286.57" waitingTime="0.00" waitingCount="0" stopTime="0.00" timeLoss="13.44" rerouteNo="0" devices="tripinfo_flow_route_19_duration_20250327_2130.3" vType="car" speedFactor="1.12" vaporized=""/>
    <tripinfo id="flow_route_0_duration_20250327_2130.2" depart="13.00" departLane="1318793176#1_0" departPos="1.38" departSpeed="0.00" departDelay="3.77" arrival="53.00" arrivalLane="133126031#0_0" arrivalPos="318.11" arrivalSpeed="16.40" duration="40.00" routeLength="437.15" waitingTime="0.00" waitingCount="0" stopTime="0.00" timeLoss="11.54" rerouteNo="0" devices="tripinfo_flow_route_0_duration_20250327_2130.2" vType="car" speedFactor="0.86" vaporized=""/>
    <tripinfo id="flow_route_0_duration_20250327_2130.5" depart="28.00" departLane="1318793176#1_0" departPos="2.98" departSpeed="0.00" departDelay="4.93" arrival="53.00" arrivalLane="133126031#0_0" arrivalPos="102.35" arrivalSpeed="16.17" duration="25.00" routeLength="219.80" waitingTime="0.00" waitingCount="0" stopTime="0.00" timeLoss="10.59" rerouteNo="0" devices="tripinfo_flow_route_0_duration_20250327_2130.5" vType="car" speedFactor="0.99" vaporized=""/>
    <tripinfo id="flow_route_19_duration_20250327_2130.4" depart="27.00" departLane="133126040#0_0" departPos="16.42" departSpeed="0.00" departDelay="0.34" arrival="53.00" arrivalLane="133126031#0_1" arrivalPos="60.98" arrivalSpeed="11.84" duration="26.00" routeLength="173.42" waitingTime="0.00" waitingCount="0" stopTime="0.00" timeLoss="13.06" rerouteNo="0" devices="tripinfo_flow_route_19_duration_20250327_2130.4" vType="car" speedFactor="0.93" vaporized=""/>
    <tripinfo id="flow_route_0_duration_20250327_2130.7" depart="37.00" departLane="1318793176#1_0" departPos="2.27" departSpeed="0.00" departDelay="4.70" arrival="56.00" arrivalLane="133126031#0_0" arrivalPos="28.61" arrivalSpeed="12.67" duration="19.00" routeLength="146.76" waitingTime="0.00" waitingCount="0" stopTime="0.00" timeLoss="9.07" rerouteNo="0" devices="tripinfo_flow_route_0_duration_20250327_2130.7" vType="car" speedFactor="0.94" vaporized=""/>
    <tripinfo id="flow_route_0_duration_20250327_2130.4" depart="24.00" departLane="1318793176#1_0" departPos="5.26" departSpeed="0.00" departDelay="5.54" arrival="59.00" arrivalLane="133126031#0_0" arrivalPos="269.93" arrivalSpeed="16.28" duration="35.00" routeLength="385.09" waitingTime="0.00" waitingCount="0" stopTime="0.00" timeLoss="11.05" rerouteNo="0" devices="tripinfo_flow_route_0_duration_20250327_2130.4" vType="car" speedFactor="1.05" vaporized=""/>
    <tripinfo id="flow_route_19_duration_20250327_2130.5" depart="34.00" departLane="133126040#0_0" departPos="8.65" departSpeed="0.00" departDelay="0.67" arrival="61.00" arrivalLane="133126031#0_1" arrivalPos="60.08" arrivalSpeed="11.98" duration="27.00" routeLength="180.30" waitingTime="0.00" waitingCount="0" stopTime="0.00" timeLoss="14.89" rerouteNo="0" devices="tripinfo_flow_route_19_duration_20250327_2130.5" vType="car" speedFactor="1.16" vaporized=""/>
    <tripinfo id="flow_route_19_duration_20250327_2130.6" depart="40.00" departLane="133126040#0_0" departPos="89.29" departSpeed="0.00" departDelay="0.00" arrival="62.00" arrivalLane="133126031#0_1" arrivalPos="129.61" arrivalSpeed="15.60" duration="22.00" routeLength="169.19" waitingTime="0.00" waitingCount="0" stopTime="0.00" timeLoss="9.76" rerouteNo="0" devices="tripinfo_flow_route_19_duration_20250327_2130.6" vType="car" speedFactor="1.01" vaporized=""/>
    <tripinfo id="flow_route_0_duration_20250327_2130.8" depart="42.00" departLane="1318793176#1_0" departPos="3.90" departSpeed="0.00" departDelay="5.08" arrival="67.00" arrivalLane="133126031#0_0" arrivalPos="96.45" arrivalSpeed="16.59" duration="25.00" routeLength="212.97" waitingTime="0.00" waitingCount="0" stopTime="0.00" timeLoss="10.92" rerouteNo="0" devices="tripinfo_flow_route_0_duration_20250327_2130.8" vType="car" speedFactor="1.02" vaporized=""/>
    <tripinfo id="flow_route_0_duration_20250327_2130.9" depart="45.00" departLane="1318793176#1_0" departPos="1.12" departSpeed="0.00" departDelay="3.47" arrival="73.00" arrivalLane="133126031#0_0" arrivalPos="138.73" arrivalSpeed="16.38" duration="28.00" routeLength="258.03" waitingTime="0.00" waitingCount="0" stopTime="0.00" timeLoss="11.57" rerouteNo="0" devices="tripinfo_flow_route_0_duration_20250327_2130.9" vType="car" speedFactor="0.97" vaporized=""/>
    <tripinfo id="flow_route_19_duration_20250327_2130.7" depart="47.00" departLane="133126040#0_0" departPos="53.29" departSpeed="0.00" departDelay="0.34" arrival="79.00" arrivalLane="133126031#0_1" arrivalPos="207.92" arrivalSpeed="16.28" duration="32.00" routeLength="283.50" waitingTime="0.00" waitingCount="0" stopTime="0.00" timeLoss="12.38" rerouteNo="0" devices="tripinfo_flow_route_19_duration_20250327_2130.7" vType="car" speedFactor="0.83" vaporized=""/>
    <tripinfo id="flow_route_19_duration_20250327_2130.8" depart="54.00" departLane="133126040#0_0" departPos="10.98" departSpeed="0.00" departDelay="0.67" arrival="84.00" arrivalLane="133126031#0_1" arrivalPos="114.02" arrivalSpeed="15.32" duration="30.00" routeLength="231.91" waitingTime="0.00" waitingCount="0" stopTime="0.00" timeLoss="13.18" rerouteNo="0" devices="tripinfo_flow_route_19_duration_20250327_2130.8" vType="car" speedFactor="0.92" vaporized=""/>
    <tripinfo id="flow_route_0_duration_20250327_2130.10" depart="51.00" departLane="1318793176#1_0" departPos="6.13" departSpeed="0.00" departDelay="4.85" arrival="89.00" arrivalLane="133126031#0_0" arrivalPos="291.16" arrivalSpeed="16.17" duration="38.00" routeLength="405.45" waitingTime="1.00" waitingCount="1" stopTime="0.00" timeLoss="11.45" rerouteNo="0" devices="tripinfo_flow_route_0_duration_20250327_2130.10" vType="car" speedFactor="0.89" vaporized=""/>
    <tripinfo id="flow_route_0_duration_20250327_2130.11" depart="57.00" departLane="1318793176#1_0" departPos="3.00" departSpeed="0.00" departDelay="6.24" arrival="94.00" arrivalLane="133126031#0_0" arrivalPos="290.59" arrivalSpeed="16.48" duration="37.00" routeLength="408.01" waitingTime="0.00" waitingCount="0" stopTime="0.00" timeLoss="10.61" rerouteNo="0" devices="tripinfo_flow_route_0_duration_20250327_2130.11" vType="car" speedFactor="0.87" vaporized=""/>
    <tripinfo id="flow_route_0_duration_20250327_2130.12" depart="62.00" departLane="1318793176#1_0" departPos="3.97" departSpeed="0.00" departDelay="6.62" arrival="95.00" arrivalLane="133126031#0_0" arrivalPos="220.09" arrivalSpeed="16.46" duration="33.00" routeLength="336.54" waitingTime="0.00" waitingCount="0" stopTime="0.00" timeLoss="10.92" rerouteNo="0" devices="tripinfo_flow_route_0_duration_20250327_2130.12" vType="car" speedFactor="0.95" vaporized=""/>
    <tripinfo id="flow_route_48_duration_20250327_2130.0" depart="2.00" departLane="380351865#0_0" departPos="1.03" departSpeed="0.00" departDelay="2.00" arrival="103.00" arrivalLane="133126031#0_0" arrivalPos="14.50" arrivalSpeed="8.70" duration="101.00" routeLength="180.64" waitingTime="67.00" waitingCount="1" stopTime="0.00" timeLoss="82.89" rerouteNo="0" devices="tripinfo_flow_route_48_duration_20250327_2130.0" vType="car" speedFactor="0.83" vaporized=""/>
    <tripinfo id="flow_route_48_duration_20250327_2130.1" depart="30.00" departLane="380351865#0_0" departPos="16.94" departSpeed="0.00" departDelay="0.00" arrival="105.00" arrivalLane="133126031#0_1" arrivalPos="22.27" arrivalSpeed="9.89" duration="75.00" routeLength="172.50" waitingTime="43.00" waitingCount="1" stopTime="0.00" timeLoss="60.20" rerouteNo="0" devices="tripinfo_flow_route_48_duration_20250327_2130.1" vType="car" speedFactor="0.94" vaporized=""/>
    <tripinfo id="flow_route_47_duration_20250327_2130.0" depart="0.00" departLane="380351865#0_0" departPos="11.49" departSpeed="0.00" departDelay="0.00" arrival="107.00" arrivalLane="1318793173#0_1" arrivalPos="63.76" arrivalSpeed="11.64" duration="107.00" routeLength="213.71" waitingTime="72.00" waitingCount="1" stopTime="0.00" timeLoss="89.93" rerouteNo="0" devices="tripinfo_flow_route_47_duration_20250327_2130.0" vType="car" speedFactor="1.03" vaporized=""/>
    <tripinfo id="flow_route_49_duration_20250327_2130.0" depart="8.00" departLane="380351865#0_0" departPos="5.15" departSpeed="0.00" departDelay="8.00" arrival="113.00" arrivalLane="1318893695#0_0" arrivalPos="148.83" arrivalSpeed="15.12" duration="105.00" routeLength="287.56" waitingTime="65.00" waitingCount="1" stopTime="0.00" timeLoss="83.48" rerouteNo="0" devices="tripinfo_flow_route_49_duration_20250327_2130.0" vType="car" speedFactor="1.05" vaporized=""/>
</tripinfos>
