<?xml version="1.0" encoding="UTF-8"?>

<!-- generated on 2025-05-06 21:09:05 by Eclipse SUMO sumo Version 1.20.0
<configuration xmlns:xsi="http://www.w3.org/2001/XMLSchema-instance" xsi:noNamespaceSchemaLocation="http://sumo.dlr.de/xsd/sumoConfiguration.xsd">

    <input>
        <net-file value="osm.net.xml"/>
        <route-files value="xml/route_static_cluster10852700972_12154751993_8.rou.xml"/>
    </input>

    <output>
        <tripinfo-output value="xml/tripinfo_static_cluster10852700972_12154751993_8.xml"/>
    </output>

    <traci_server>
        <remote-port value="46005"/>
    </traci_server>

</configuration>
-->

<tripinfos xmlns:xsi="http://www.w3.org/2001/XMLSchema-instance" xsi:noNamespaceSchemaLocation="http://sumo.dlr.de/xsd/tripinfo_file.xsd">
    <tripinfo id="flow_route_60_duration_20250327_2200.1" depart="7.00" departLane="186407684#0_0" departPos="41.08" departSpeed="0.00" departDelay="1.00" arrival="20.00" arrivalLane="791826085_0" arrivalPos="1.97" arrivalSpeed="10.15" duration="13.00" routeLength="69.82" waitingTime="0.00" waitingCount="0" stopTime="0.00" timeLoss="7.87" rerouteNo="0" devices="tripinfo_flow_route_60_duration_20250327_2200.1" vType="car" speedFactor="0.83" vaporized=""/>
    <tripinfo id="flow_route_61_duration_20250327_2200.0" depart="0.00" departLane="186407684#0_0" departPos="65.67" departSpeed="0.00" departDelay="0.00" arrival="23.00" arrivalLane="1341093416#0_1" arrivalPos="161.76" arrivalSpeed="16.55" duration="23.00" routeLength="210.27" waitingTime="0.00" waitingCount="0" stopTime="0.00" timeLoss="9.88" rerouteNo="0" devices="tripinfo_flow_route_61_duration_20250327_2200.0" vType="car" speedFactor="1.03" vaporized=""/>
    <tripinfo id="flow_route_60_duration_20250327_2200.0" depart="0.00" departLane="186407684#0_0" departPos="48.06" departSpeed="0.00" departDelay="0.00" arrival="25.00" arrivalLane="791826085_0" arrivalPos="160.28" arrivalSpeed="16.12" duration="25.00" routeLength="221.15" waitingTime="0.00" waitingCount="0" stopTime="0.00" timeLoss="11.01" rerouteNo="0" devices="tripinfo_flow_route_60_duration_20250327_2200.0" vType="car" speedFactor="1.08" vaporized=""/>
    <tripinfo id="flow_route_61_duration_20250327_2200.1" depart="16.00" departLane="186407684#0_0" departPos="45.21" departSpeed="0.00" departDelay="1.00" arrival="37.00" arrivalLane="1341093416#0_1" arrivalPos="88.28" arrivalSpeed="15.77" duration="21.00" routeLength="157.25" waitingTime="0.00" waitingCount="0" stopTime="0.00" timeLoss="9.23" rerouteNo="0" devices="tripinfo_flow_route_61_duration_20250327_2200.1" vType="car" speedFactor="0.86" vaporized=""/>
    <tripinfo id="flow_route_60_duration_20250327_2200.3" depart="18.00" departLane="186407684#0_0" departPos="55.83" departSpeed="0.00" departDelay="0.00" arrival="38.00" arrivalLane="791826085_0" arrivalPos="100.14" arrivalSpeed="14.99" duration="20.00" routeLength="153.24" waitingTime="0.00" waitingCount="0" stopTime="0.00" timeLoss="10.64" rerouteNo="0" devices="tripinfo_flow_route_60_duration_20250327_2200.3" vType="car" speedFactor="1.09" vaporized=""/>
    <tripinfo id="flow_route_56_duration_20250327_2200.0" depart="0.00" departLane="1341093415#0_0" departPos="44.11" departSpeed="0.00" departDelay="0.00" arrival="40.00" arrivalLane="409155823_0" arrivalPos="4.00" arrivalSpeed="6.92" duration="40.00" routeLength="164.73" waitingTime="11.00" waitingCount="1" stopTime="0.00" timeLoss="29.00" rerouteNo="0" devices="tripinfo_flow_route_56_duration_20250327_2200.0" vType="car" speedFactor="1.01" vaporized=""/>
    <tripinfo id="flow_route_54_duration_20250327_2200.1" depart="12.00" departLane="1341093415#0_0" departPos="47.15" departSpeed="0.00" departDelay="0.00" arrival="44.00" arrivalLane="1341093416#0_2" arrivalPos="123.96" arrivalSpeed="16.31" duration="32.00" routeLength="283.64" waitingTime="0.00" waitingCount="0" stopTime="0.00" timeLoss="13.95" rerouteNo="0" devices="tripinfo_flow_route_54_duration_20250327_2200.1" vType="car" speedFactor="1.05" vaporized=""/>
    <tripinfo id="flow_route_56_duration_20250327_2200.1" depart="20.00" departLane="1341093415#0_0" departPos="146.92" departSpeed="0.00" departDelay="0.00" arrival="50.00" arrivalLane="409155823_0" arrivalPos="82.66" arrivalSpeed="12.62" duration="30.00" routeLength="140.58" waitingTime="1.00" waitingCount="1" stopTime="0.00" timeLoss="20.69" rerouteNo="0" devices="tripinfo_flow_route_56_duration_20250327_2200.1" vType="car" speedFactor="1.03" vaporized=""/>
    <tripinfo id="flow_route_55_duration_20250327_2200.0" depart="0.00" departLane="1341093415#0_0" departPos="132.48" departSpeed="0.00" departDelay="0.00" arrival="56.00" arrivalLane="791826085_0" arrivalPos="232.37" arrivalSpeed="15.35" duration="56.00" routeLength="289.60" waitingTime="17.00" waitingCount="1" stopTime="0.00" timeLoss="36.57" rerouteNo="0" devices="tripinfo_flow_route_55_duration_20250327_2200.0" vType="car" speedFactor="0.94" vaporized=""/>
    <tripinfo id="flow_route_54_duration_20250327_2200.0" depart="0.00" departLane="1341093415#0_0" departPos="7.77" departSpeed="0.00" departDelay="0.00" arrival="58.00" arrivalLane="1341093416#0_0" arrivalPos="244.31" arrivalSpeed="16.12" duration="58.00" routeLength="443.35" waitingTime="7.00" waitingCount="1" stopTime="0.00" timeLoss="30.79" rerouteNo="0" devices="tripinfo_flow_route_54_duration_20250327_2200.0" vType="car" speedFactor="1.06" vaporized=""/>
    <tripinfo id="flow_route_54_duration_20250327_2200.2" depart="24.00" departLane="1341093415#0_0" departPos="97.02" departSpeed="0.00" departDelay="0.00" arrival="59.00" arrivalLane="1341093416#0_1" arrivalPos="243.38" arrivalSpeed="16.43" duration="35.00" routeLength="353.18" waitingTime="0.00" waitingCount="0" stopTime="0.00" timeLoss="13.41" rerouteNo="0" devices="tripinfo_flow_route_54_duration_20250327_2200.2" vType="car" speedFactor="1.05" vaporized=""/>
    <tripinfo id="flow_route_55_duration_20250327_2200.2" depart="30.00" departLane="1341093415#0_0" departPos="28.36" departSpeed="0.00" departDelay="0.00" arrival="60.00" arrivalLane="791826085_0" arrivalPos="10.57" arrivalSpeed="8.68" duration="30.00" routeLength="171.92" waitingTime="0.00" waitingCount="0" stopTime="0.00" timeLoss="18.30" rerouteNo="0" devices="tripinfo_flow_route_55_duration_20250327_2200.2" vType="car" speedFactor="0.99" vaporized=""/>
    <tripinfo id="flow_route_55_duration_20250327_2200.1" depart="15.00" departLane="1341093415#0_0" departPos="121.85" departSpeed="0.00" departDelay="0.00" arrival="62.00" arrivalLane="791826085_0" arrivalPos="285.55" arrivalSpeed="15.32" duration="47.00" routeLength="353.42" waitingTime="3.00" waitingCount="1" stopTime="0.00" timeLoss="22.80" rerouteNo="0" devices="tripinfo_flow_route_55_duration_20250327_2200.1" vType="car" speedFactor="0.94" vaporized=""/>
    <tripinfo id="flow_route_54_duration_20250327_2200.3" depart="36.00" departLane="1341093415#0_0" departPos="22.35" departSpeed="0.00" departDelay="0.00" arrival="65.00" arrivalLane="1341093416#0_1" arrivalPos="90.84" arrivalSpeed="16.32" duration="29.00" routeLength="275.31" waitingTime="0.00" waitingCount="0" stopTime="0.00" timeLoss="12.01" rerouteNo="0" devices="tripinfo_flow_route_54_duration_20250327_2200.3" vType="car" speedFactor="0.94" vaporized=""/>
    <tripinfo id="flow_route_56_duration_20250327_2200.2" depart="40.00" departLane="1341093415#0_0" departPos="47.07" departSpeed="0.00" departDelay="0.00" arrival="67.00" arrivalLane="409155823_0" arrivalPos="84.91" arrivalSpeed="16.16" duration="27.00" routeLength="242.68" waitingTime="0.00" waitingCount="0" stopTime="0.00" timeLoss="11.33" rerouteNo="0" devices="tripinfo_flow_route_56_duration_20250327_2200.2" vType="car" speedFactor="1.16" vaporized=""/>
    <tripinfo id="flow_route_55_duration_20250327_2200.3" depart="45.00" departLane="1341093415#0_0" departPos="144.68" departSpeed="0.00" departDelay="0.00" arrival="70.00" arrivalLane="791826085_0" arrivalPos="186.42" arrivalSpeed="16.57" duration="25.00" routeLength="231.45" waitingTime="0.00" waitingCount="0" stopTime="0.00" timeLoss="10.02" rerouteNo="0" devices="tripinfo_flow_route_55_duration_20250327_2200.3" vType="car" speedFactor="1.01" vaporized=""/>
    <tripinfo id="flow_route_54_duration_20250327_2200.4" depart="48.00" departLane="1341093415#0_0" departPos="106.27" departSpeed="0.00" departDelay="0.00" arrival="76.00" arrivalLane="1341093416#0_0" arrivalPos="183.19" arrivalSpeed="16.25" duration="28.00" routeLength="283.74" waitingTime="0.00" waitingCount="0" stopTime="0.00" timeLoss="10.64" rerouteNo="0" devices="tripinfo_flow_route_54_duration_20250327_2200.4" vType="car" speedFactor="0.89" vaporized=""/>
    <tripinfo id="flow_route_61_duration_20250327_2200.3" depart="45.00" departLane="186407684#0_0" departPos="7.85" departSpeed="0.00" departDelay="0.00" arrival="80.00" arrivalLane="1341093416#0_2" arrivalPos="66.19" arrivalSpeed="11.72" duration="35.00" routeLength="168.36" waitingTime="5.00" waitingCount="1" stopTime="0.00" timeLoss="23.75" rerouteNo="0" devices="tripinfo_flow_route_61_duration_20250327_2200.3" vType="car" speedFactor="0.97" vaporized=""/>
    <tripinfo id="flow_route_60_duration_20250327_2200.6" depart="36.00" departLane="186407684#0_0" departPos="36.25" departSpeed="0.00" departDelay="0.00" arrival="82.00" arrivalLane="791826085_0" arrivalPos="42.19" arrivalSpeed="10.94" duration="46.00" routeLength="114.87" waitingTime="20.00" waitingCount="1" stopTime="0.00" timeLoss="38.44" rerouteNo="0" devices="tripinfo_flow_route_60_duration_20250327_2200.6" vType="car" speedFactor="0.94" vaporized=""/>
    <tripinfo id="flow_route_60_duration_20250327_2200.5" depart="31.00" departLane="186407684#0_0" departPos="2.63" departSpeed="0.00" departDelay="1.00" arrival="85.00" arrivalLane="791826085_1" arrivalPos="98.41" arrivalSpeed="13.86" duration="54.00" routeLength="204.72" waitingTime="19.00" waitingCount="1" stopTime="0.00" timeLoss="40.36" rerouteNo="0" devices="tripinfo_flow_route_60_duration_20250327_2200.5" vType="car" speedFactor="0.93" vaporized=""/>
    <tripinfo id="flow_route_60_duration_20250327_2200.4" depart="24.00" departLane="186407684#0_0" departPos="20.86" departSpeed="0.00" departDelay="0.00" arrival="87.00" arrivalLane="791826085_0" arrivalPos="129.34" arrivalSpeed="14.65" duration="63.00" routeLength="217.40" waitingTime="29.00" waitingCount="1" stopTime="0.00" timeLoss="49.57" rerouteNo="0" devices="tripinfo_flow_route_60_duration_20250327_2200.4" vType="car" speedFactor="1.12" vaporized=""/>
    <tripinfo id="flow_route_60_duration_20250327_2200.7" depart="42.00" departLane="186407684#0_0" departPos="14.80" departSpeed="0.00" departDelay="0.00" arrival="87.00" arrivalLane="791826085_0" arrivalPos="72.77" arrivalSpeed="13.26" duration="45.00" routeLength="166.90" waitingTime="14.00" waitingCount="1" stopTime="0.00" timeLoss="34.29" rerouteNo="0" devices="tripinfo_flow_route_60_duration_20250327_2200.7" vType="car" speedFactor="1.02" vaporized=""/>
    <tripinfo id="flow_route_60_duration_20250327_2200.2" depart="12.00" departLane="186407684#0_0" departPos="5.31" departSpeed="0.00" departDelay="0.00" arrival="89.00" arrivalLane="791826085_0" arrivalPos="184.68" arrivalSpeed="14.52" duration="77.00" routeLength="288.30" waitingTime="34.00" waitingCount="1" stopTime="0.00" timeLoss="57.34" rerouteNo="0" devices="tripinfo_flow_route_60_duration_20250327_2200.2" vType="car" speedFactor="0.89" vaporized=""/>
    <tripinfo id="flow_route_61_duration_20250327_2200.2" depart="31.00" departLane="186407684#0_0" departPos="60.38" departSpeed="0.00" departDelay="1.00" arrival="90.00" arrivalLane="1341093416#0_0" arrivalPos="209.62" arrivalSpeed="16.49" duration="59.00" routeLength="263.42" waitingTime="23.00" waitingCount="1" stopTime="0.00" timeLoss="41.77" rerouteNo="0" devices="tripinfo_flow_route_61_duration_20250327_2200.2" vType="car" speedFactor="0.88" vaporized=""/>
    <tripinfo id="flow_route_60_duration_20250327_2200.8" depart="48.00" departLane="186407684#0_0" departPos="60.95" departSpeed="0.00" departDelay="0.00" arrival="97.00" arrivalLane="791826085_1" arrivalPos="233.37" arrivalSpeed="13.48" duration="49.00" routeLength="281.34" waitingTime="12.00" waitingCount="1" stopTime="0.00" timeLoss="28.49" rerouteNo="0" devices="tripinfo_flow_route_60_duration_20250327_2200.8" vType="car" speedFactor="0.83" vaporized=""/>
    <tripinfo id="flow_route_60_duration_20250327_2200.9" depart="55.00" departLane="186407684#0_0" departPos="27.13" departSpeed="0.00" departDelay="1.00" arrival="104.00" arrivalLane="791826085_1" arrivalPos="304.95" arrivalSpeed="14.08" duration="49.00" routeLength="386.75" waitingTime="3.00" waitingCount="1" stopTime="0.00" timeLoss="21.98" rerouteNo="0" devices="tripinfo_flow_route_60_duration_20250327_2200.9" vType="car" speedFactor="0.87" vaporized=""/>
</tripinfos>
