<?xml version="1.0" encoding="UTF-8"?>

<!-- generated on 2025-05-06 21:09:14 by Eclipse SUMO sumo Version 1.20.0
<configuration xmlns:xsi="http://www.w3.org/2001/XMLSchema-instance" xsi:noNamespaceSchemaLocation="http://sumo.dlr.de/xsd/sumoConfiguration.xsd">

    <input>
        <net-file value="osm.net.xml"/>
        <route-files value="xml/route_rl_cluster_356722183_3828703848_9.rou.xml"/>
    </input>

    <output>
        <tripinfo-output value="xml/tripinfo_rl_cluster_356722183_3828703848_9.xml"/>
    </output>

    <traci_server>
        <remote-port value="43411"/>
    </traci_server>

</configuration>
-->

<tripinfos xmlns:xsi="http://www.w3.org/2001/XMLSchema-instance" xsi:noNamespaceSchemaLocation="http://sumo.dlr.de/xsd/tripinfo_file.xsd">
    <tripinfo id="flow_route_18_duration_20250327_1910.0" depart="0.00" departLane="133126040#0_0" departPos="80.59" departSpeed="0.00" departDelay="0.00" arrival="13.00" arrivalLane="1318893695#0_0" arrivalPos="9.11" arrivalSpeed="9.55" duration="13.00" routeLength="59.37" waitingTime="0.00" waitingCount="0" stopTime="0.00" timeLoss="9.13" rerouteNo="0" devices="tripinfo_flow_route_18_duration_20250327_1910.0" vType="car" speedFactor="1.01" vaporized=""/>
    <tripinfo id="flow_route_19_duration_20250327_1910.5" depart="5.00" departLane="133126040#0_0" departPos="105.80" departSpeed="0.00" departDelay="0.53" arrival="20.00" arrivalLane="133126031#0_1" arrivalPos="46.94" arrivalSpeed="10.43" duration="15.00" routeLength="70.01" waitingTime="0.00" waitingCount="0" stopTime="0.00" timeLoss="9.34" rerouteNo="0" devices="tripinfo_flow_route_19_duration_20250327_1910.5" vType="car" speedFactor="1.01" vaporized=""/>
    <tripinfo id="flow_route_19_duration_20250327_1910.1" depart="2.00" departLane="133126040#0_0" departPos="103.83" departSpeed="0.00" departDelay="1.11" arrival="22.00" arrivalLane="133126031#0_1" arrivalPos="131.88" arrivalSpeed="15.16" duration="20.00" routeLength="156.92" waitingTime="0.00" waitingCount="0" stopTime="0.00" timeLoss="8.87" rerouteNo="0" devices="tripinfo_flow_route_19_duration_20250327_1910.1" vType="car" speedFactor="1.01" vaporized=""/>
    <tripinfo id="flow_route_1_duration_20250327_1910.0" depart="5.00" departLane="1318793176#1_0" departPos="0.45" departSpeed="0.00" departDelay="5.00" arrival="29.00" arrivalLane="1318793173#0_1" arrivalPos="77.00" arrivalSpeed="15.42" duration="24.00" routeLength="200.44" waitingTime="0.00" waitingCount="0" stopTime="0.00" timeLoss="10.68" rerouteNo="0" devices="tripinfo_flow_route_1_duration_20250327_1910.0" vType="car" speedFactor="0.94" vaporized=""/>
    <tripinfo id="flow_route_19_duration_20250327_1910.7" depart="7.00" departLane="133126040#0_0" departPos="91.25" departSpeed="0.00" departDelay="0.74" arrival="29.00" arrivalLane="133126031#0_1" arrivalPos="130.85" arrivalSpeed="16.38" duration="22.00" routeLength="168.47" waitingTime="0.00" waitingCount="0" stopTime="0.00" timeLoss="10.37" rerouteNo="0" devices="tripinfo_flow_route_19_duration_20250327_1910.7" vType="car" speedFactor="1.23" vaporized=""/>
    <tripinfo id="flow_route_0_duration_20250327_1910.0" depart="0.00" departLane="1318793176#1_0" departPos="2.64" departSpeed="0.00" departDelay="0.00" arrival="36.00" arrivalLane="133126031#0_0" arrivalPos="296.30" arrivalSpeed="16.37" duration="36.00" routeLength="414.08" waitingTime="0.00" waitingCount="0" stopTime="0.00" timeLoss="10.30" rerouteNo="0" devices="tripinfo_flow_route_0_duration_20250327_1910.0" vType="car" speedFactor="1.06" vaporized=""/>
    <tripinfo id="flow_route_0_duration_20250327_1910.1" depart="11.00" departLane="1318793176#1_0" departPos="5.12" departSpeed="0.00" departDelay="10.93" arrival="40.00" arrivalLane="133126031#0_0" arrivalPos="150.35" arrivalSpeed="16.53" duration="29.00" routeLength="265.65" waitingTime="0.00" waitingCount="0" stopTime="0.00" timeLoss="11.09" rerouteNo="0" devices="tripinfo_flow_route_0_duration_20250327_1910.1" vType="car" speedFactor="0.89" vaporized=""/>
    <tripinfo id="flow_route_19_duration_20250327_1910.11" depart="10.00" departLane="133126040#0_0" departPos="101.40" departSpeed="0.00" departDelay="0.16" arrival="40.00" arrivalLane="133126031#0_1" arrivalPos="87.89" arrivalSpeed="12.92" duration="30.00" routeLength="115.36" waitingTime="6.00" waitingCount="2" stopTime="0.00" timeLoss="21.23" rerouteNo="0" devices="tripinfo_flow_route_19_duration_20250327_1910.11" vType="car" speedFactor="0.93" vaporized=""/>
    <tripinfo id="flow_route_19_duration_20250327_1910.3" depart="4.00" departLane="133126040#0_0" departPos="76.87" departSpeed="0.00" departDelay="1.32" arrival="44.00" arrivalLane="133126031#0_1" arrivalPos="112.74" arrivalSpeed="14.36" duration="40.00" routeLength="164.73" waitingTime="6.00" waitingCount="2" stopTime="0.00" timeLoss="28.21" rerouteNo="0" devices="tripinfo_flow_route_19_duration_20250327_1910.3" vType="car" speedFactor="1.02" vaporized=""/>
    <tripinfo id="flow_route_0_duration_20250327_1910.3" depart="20.00" departLane="1318793176#1_0" departPos="0.77" departSpeed="0.00" departDelay="19.78" arrival="45.00" arrivalLane="133126031#0_0" arrivalPos="87.96" arrivalSpeed="15.07" duration="25.00" routeLength="207.62" waitingTime="0.00" waitingCount="0" stopTime="0.00" timeLoss="10.34" rerouteNo="0" devices="tripinfo_flow_route_0_duration_20250327_1910.3" vType="car" speedFactor="0.86" vaporized=""/>
    <tripinfo id="flow_route_0_duration_20250327_1910.4" depart="25.00" departLane="1318793176#1_0" departPos="2.97" departSpeed="0.00" departDelay="24.71" arrival="45.00" arrivalLane="133126031#0_0" arrivalPos="20.04" arrivalSpeed="14.36" duration="20.00" routeLength="137.49" waitingTime="0.00" waitingCount="0" stopTime="0.00" timeLoss="10.47" rerouteNo="0" devices="tripinfo_flow_route_0_duration_20250327_1910.4" vType="car" speedFactor="1.09" vaporized=""/>
    <tripinfo id="flow_route_0_duration_20250327_1910.2" depart="15.00" departLane="1318793176#1_0" departPos="2.53" departSpeed="0.00" departDelay="14.86" arrival="46.00" arrivalLane="133126031#0_0" arrivalPos="188.31" arrivalSpeed="16.29" duration="31.00" routeLength="306.20" waitingTime="0.00" waitingCount="0" stopTime="0.00" timeLoss="10.92" rerouteNo="0" devices="tripinfo_flow_route_0_duration_20250327_1910.2" vType="car" speedFactor="0.94" vaporized=""/>
    <tripinfo id="flow_route_19_duration_20250327_1910.17" depart="17.00" departLane="133126040#0_0" departPos="101.09" departSpeed="0.00" departDelay="1.79" arrival="50.00" arrivalLane="133126031#0_1" arrivalPos="39.67" arrivalSpeed="9.93" duration="33.00" routeLength="67.45" waitingTime="17.00" waitingCount="3" stopTime="0.00" timeLoss="27.48" rerouteNo="0" devices="tripinfo_flow_route_19_duration_20250327_1910.17" vType="car" speedFactor="0.96" vaporized=""/>
    <tripinfo id="flow_route_19_duration_20250327_1910.16" depart="15.00" departLane="133126040#0_0" departPos="105.00" departSpeed="0.00" departDelay="0.68" arrival="54.00" arrivalLane="133126031#0_1" arrivalPos="173.10" arrivalSpeed="16.54" duration="39.00" routeLength="196.97" waitingTime="13.00" waitingCount="1" stopTime="0.00" timeLoss="25.57" rerouteNo="0" devices="tripinfo_flow_route_19_duration_20250327_1910.16" vType="car" speedFactor="1.04" vaporized=""/>
    <tripinfo id="flow_route_19_duration_20250327_1910.29" depart="31.00" departLane="133126040#0_0" departPos="101.78" departSpeed="0.00" departDelay="5.05" arrival="56.00" arrivalLane="133126031#0_1" arrivalPos="42.94" arrivalSpeed="9.91" duration="25.00" routeLength="70.03" waitingTime="7.00" waitingCount="1" stopTime="0.00" timeLoss="19.65" rerouteNo="0" devices="tripinfo_flow_route_19_duration_20250327_1910.29" vType="car" speedFactor="1.18" vaporized=""/>
    <tripinfo id="flow_route_19_duration_20250327_1910.4" depart="4.00" departLane="133126040#0_0" departPos="49.30" departSpeed="0.00" departDelay="0.42" arrival="57.00" arrivalLane="133126031#0_1" arrivalPos="34.82" arrivalSpeed="9.70" duration="53.00" routeLength="114.40" waitingTime="9.00" waitingCount="4" stopTime="0.00" timeLoss="44.64" rerouteNo="0" devices="tripinfo_flow_route_19_duration_20250327_1910.4" vType="car" speedFactor="0.98" vaporized=""/>
    <tripinfo id="flow_route_0_duration_20250327_1910.6" depart="33.00" departLane="1318793176#1_0" departPos="0.67" departSpeed="0.00" departDelay="32.57" arrival="58.00" arrivalLane="133126031#0_0" arrivalPos="107.07" arrivalSpeed="16.52" duration="25.00" routeLength="226.82" waitingTime="0.00" waitingCount="0" stopTime="0.00" timeLoss="10.58" rerouteNo="0" devices="tripinfo_flow_route_0_duration_20250327_1910.6" vType="car" speedFactor="1.05" vaporized=""/>
    <tripinfo id="flow_route_19_duration_20250327_1910.13" depart="13.00" departLane="133126040#0_0" departPos="96.34" departSpeed="0.00" departDelay="1.37" arrival="60.00" arrivalLane="133126031#0_1" arrivalPos="246.16" arrivalSpeed="16.57" duration="47.00" routeLength="278.69" waitingTime="13.00" waitingCount="2" stopTime="0.00" timeLoss="29.28" rerouteNo="0" devices="tripinfo_flow_route_19_duration_20250327_1910.13" vType="car" speedFactor="1.09" vaporized=""/>
    <tripinfo id="flow_route_19_duration_20250327_1910.15" depart="14.00" departLane="133126040#0_0" departPos="88.24" departSpeed="0.00" departDelay="0.58" arrival="62.00" arrivalLane="133126031#0_1" arrivalPos="73.31" arrivalSpeed="12.42" duration="48.00" routeLength="113.94" waitingTime="23.00" waitingCount="3" stopTime="0.00" timeLoss="39.45" rerouteNo="0" devices="tripinfo_flow_route_19_duration_20250327_1910.15" vType="car" speedFactor="0.98" vaporized=""/>
    <tripinfo id="flow_route_0_duration_20250327_1910.8" depart="43.00" departLane="1318793176#1_0" departPos="2.33" departSpeed="0.00" departDelay="42.42" arrival="63.00" arrivalLane="133126031#0_0" arrivalPos="15.36" arrivalSpeed="11.94" duration="20.00" routeLength="133.45" waitingTime="1.00" waitingCount="1" stopTime="0.00" timeLoss="11.28" rerouteNo="0" devices="tripinfo_flow_route_0_duration_20250327_1910.8" vType="car" speedFactor="0.99" vaporized=""/>
    <tripinfo id="flow_route_0_duration_20250327_1910.5" depart="30.00" departLane="1318793176#1_0" departPos="4.19" departSpeed="0.00" departDelay="29.64" arrival="66.00" arrivalLane="133126031#0_0" arrivalPos="291.18" arrivalSpeed="16.33" duration="36.00" routeLength="407.40" waitingTime="0.00" waitingCount="0" stopTime="0.00" timeLoss="10.79" rerouteNo="0" devices="tripinfo_flow_route_0_duration_20250327_1910.5" vType="car" speedFactor="1.03" vaporized=""/>
    <tripinfo id="flow_route_19_duration_20250327_1910.37" depart="46.00" departLane="133126040#0_0" departPos="99.31" departSpeed="0.00" departDelay="12.89" arrival="68.00" arrivalLane="133126031#0_1" arrivalPos="59.94" arrivalSpeed="11.17" duration="22.00" routeLength="89.50" waitingTime="2.00" waitingCount="1" stopTime="0.00" timeLoss="14.49" rerouteNo="0" devices="tripinfo_flow_route_19_duration_20250327_1910.37" vType="car" speedFactor="0.84" vaporized=""/>
    <tripinfo id="flow_route_0_duration_20250327_1910.7" depart="39.00" departLane="1318793176#1_0" departPos="1.28" departSpeed="0.00" departDelay="38.50" arrival="70.00" arrivalLane="133126031#0_0" arrivalPos="227.33" arrivalSpeed="16.40" duration="31.00" routeLength="346.47" waitingTime="0.00" waitingCount="0" stopTime="0.00" timeLoss="9.91" rerouteNo="0" devices="tripinfo_flow_route_0_duration_20250327_1910.7" vType="car" speedFactor="1.12" vaporized=""/>
    <tripinfo id="flow_route_19_duration_20250327_1910.34" depart="41.00" departLane="133126040#0_0" departPos="92.33" departSpeed="0.00" departDelay="10.57" arrival="77.00" arrivalLane="133126031#0_1" arrivalPos="156.88" arrivalSpeed="16.14" duration="36.00" routeLength="193.42" waitingTime="5.00" waitingCount="2" stopTime="0.00" timeLoss="22.24" rerouteNo="0" devices="tripinfo_flow_route_19_duration_20250327_1910.34" vType="car" speedFactor="0.93" vaporized=""/>
    <tripinfo id="flow_route_19_duration_20250327_1910.42" depart="63.00" departLane="133126040#0_0" departPos="99.36" departSpeed="0.00" departDelay="25.41" arrival="77.00" arrivalLane="133126031#0_1" arrivalPos="51.43" arrivalSpeed="11.31" duration="14.00" routeLength="80.94" waitingTime="0.00" waitingCount="0" stopTime="0.00" timeLoss="7.68" rerouteNo="0" devices="tripinfo_flow_route_19_duration_20250327_1910.42" vType="car" speedFactor="1.01" vaporized=""/>
    <tripinfo id="flow_route_0_duration_20250327_1910.9" depart="50.00" departLane="1318793176#1_0" departPos="5.42" departSpeed="0.00" departDelay="49.35" arrival="79.00" arrivalLane="133126031#0_0" arrivalPos="170.59" arrivalSpeed="16.59" duration="29.00" routeLength="285.58" waitingTime="0.00" waitingCount="0" stopTime="0.00" timeLoss="10.21" rerouteNo="0" devices="tripinfo_flow_route_0_duration_20250327_1910.9" vType="car" speedFactor="0.93" vaporized=""/>
    <tripinfo id="flow_route_19_duration_20250327_1910.38" depart="49.00" departLane="133126040#0_0" departPos="97.20" departSpeed="0.00" departDelay="14.99" arrival="79.00" arrivalLane="133126031#0_1" arrivalPos="149.88" arrivalSpeed="16.46" duration="30.00" routeLength="181.54" waitingTime="4.00" waitingCount="2" stopTime="0.00" timeLoss="17.38" rerouteNo="0" devices="tripinfo_flow_route_19_duration_20250327_1910.38" vType="car" speedFactor="1.05" vaporized=""/>
    <tripinfo id="flow_route_0_duration_20250327_1910.10" depart="54.00" departLane="1318793176#1_0" departPos="3.76" departSpeed="0.00" departDelay="53.28" arrival="80.00" arrivalLane="133126031#0_0" arrivalPos="102.11" arrivalSpeed="16.13" duration="26.00" routeLength="218.77" waitingTime="0.00" waitingCount="0" stopTime="0.00" timeLoss="10.57" rerouteNo="0" devices="tripinfo_flow_route_0_duration_20250327_1910.10" vType="car" speedFactor="0.88" vaporized=""/>
    <tripinfo id="flow_route_48_duration_20250327_1910.0" depart="3.00" departLane="380351865#0_0" departPos="0.80" departSpeed="0.00" departDelay="3.00" arrival="87.00" arrivalLane="133126031#0_1" arrivalPos="14.50" arrivalSpeed="9.39" duration="84.00" routeLength="180.87" waitingTime="48.00" waitingCount="1" stopTime="0.00" timeLoss="66.17" rerouteNo="0" devices="tripinfo_flow_route_48_duration_20250327_1910.0" vType="car" speedFactor="0.83" vaporized=""/>
    <tripinfo id="flow_route_47_duration_20250327_1910.0" depart="0.00" departLane="380351865#0_0" departPos="11.49" departSpeed="0.00" departDelay="0.00" arrival="89.00" arrivalLane="1318793173#0_1" arrivalPos="63.76" arrivalSpeed="10.74" duration="89.00" routeLength="213.71" waitingTime="53.00" waitingCount="1" stopTime="0.00" timeLoss="72.31" rerouteNo="0" devices="tripinfo_flow_route_47_duration_20250327_1910.0" vType="car" speedFactor="1.03" vaporized=""/>
    <tripinfo id="flow_route_19_duration_20250327_1910.6" depart="7.00" departLane="133126040#0_0" departPos="50.07" departSpeed="0.00" departDelay="1.63" arrival="89.00" arrivalLane="133126031#0_1" arrivalPos="273.06" arrivalSpeed="16.43" duration="82.00" routeLength="351.86" waitingTime="21.00" waitingCount="4" stopTime="0.00" timeLoss="58.80" rerouteNo="0" devices="tripinfo_flow_route_19_duration_20250327_1910.6" vType="car" speedFactor="0.92" vaporized=""/>
    <tripinfo id="flow_route_0_duration_20250327_1910.11" depart="59.00" departLane="1318793176#1_0" departPos="3.72" departSpeed="0.00" departDelay="58.21" arrival="92.00" arrivalLane="133126031#0_0" arrivalPos="210.66" arrivalSpeed="16.55" duration="33.00" routeLength="327.37" waitingTime="0.00" waitingCount="0" stopTime="0.00" timeLoss="12.23" rerouteNo="0" devices="tripinfo_flow_route_0_duration_20250327_1910.11" vType="car" speedFactor="0.94" vaporized=""/>
    <tripinfo id="flow_route_49_duration_20250327_1910.0" depart="6.00" departLane="380351865#0_0" departPos="16.74" departSpeed="0.00" departDelay="6.00" arrival="94.00" arrivalLane="1318893695#0_0" arrivalPos="148.83" arrivalSpeed="15.30" duration="88.00" routeLength="275.96" waitingTime="49.00" waitingCount="1" stopTime="0.00" timeLoss="66.70" rerouteNo="0" devices="tripinfo_flow_route_49_duration_20250327_1910.0" vType="car" speedFactor="1.05" vaporized=""/>
    <tripinfo id="flow_route_48_duration_20250327_1910.2" depart="11.00" departLane="380351865#0_0" departPos="5.83" departSpeed="0.00" departDelay="10.25" arrival="94.00" arrivalLane="133126031#0_0" arrivalPos="78.72" arrivalSpeed="13.12" duration="83.00" routeLength="240.06" waitingTime="44.00" waitingCount="1" stopTime="0.00" timeLoss="62.71" rerouteNo="0" devices="tripinfo_flow_route_48_duration_20250327_1910.2" vType="car" speedFactor="0.89" vaporized=""/>
    <tripinfo id="flow_route_48_duration_20250327_1910.6" depart="33.00" departLane="380351865#0_0" departPos="2.43" departSpeed="0.00" departDelay="30.75" arrival="95.00" arrivalLane="133126031#0_0" arrivalPos="28.61" arrivalSpeed="11.89" duration="62.00" routeLength="193.35" waitingTime="26.00" waitingCount="1" stopTime="0.00" timeLoss="45.45" rerouteNo="0" devices="tripinfo_flow_route_48_duration_20250327_1910.6" vType="car" speedFactor="0.97" vaporized=""/>
    <tripinfo id="flow_route_48_duration_20250327_1910.1" depart="9.00" departLane="380351865#0_0" departPos="12.62" departSpeed="0.00" departDelay="8.63" arrival="99.00" arrivalLane="133126031#0_0" arrivalPos="181.01" arrivalSpeed="16.46" duration="90.00" routeLength="335.57" waitingTime="47.00" waitingCount="1" stopTime="0.00" timeLoss="65.55" rerouteNo="0" devices="tripinfo_flow_route_48_duration_20250327_1910.1" vType="car" speedFactor="0.97" vaporized=""/>
    <tripinfo id="flow_route_48_duration_20250327_1910.8" depart="42.00" departLane="380351865#0_0" departPos="1.05" departSpeed="0.00" departDelay="39.00" arrival="100.00" arrivalLane="133126031#0_0" arrivalPos="68.89" arrivalSpeed="14.19" duration="58.00" routeLength="235.02" waitingTime="19.00" waitingCount="1" stopTime="0.00" timeLoss="40.47" rerouteNo="0" devices="tripinfo_flow_route_48_duration_20250327_1910.8" vType="car" speedFactor="1.12" vaporized=""/>
    <tripinfo id="flow_route_48_duration_20250327_1910.3" depart="16.00" departLane="380351865#0_0" departPos="2.39" departSpeed="0.00" departDelay="14.88" arrival="104.00" arrivalLane="133126031#0_1" arrivalPos="222.19" arrivalSpeed="16.30" duration="88.00" routeLength="386.97" waitingTime="39.00" waitingCount="1" stopTime="0.00" timeLoss="60.99" rerouteNo="0" devices="tripinfo_flow_route_48_duration_20250327_1910.3" vType="car" speedFactor="1.03" vaporized=""/>
    <tripinfo id="flow_route_48_duration_20250327_1910.5" depart="29.00" departLane="380351865#0_0" departPos="5.89" departSpeed="0.00" departDelay="27.13" arrival="104.00" arrivalLane="133126031#0_1" arrivalPos="198.28" arrivalSpeed="16.39" duration="75.00" routeLength="359.55" waitingTime="28.00" waitingCount="1" stopTime="0.00" timeLoss="50.55" rerouteNo="0" devices="tripinfo_flow_route_48_duration_20250327_1910.5" vType="car" speedFactor="1.09" vaporized=""/>
    <tripinfo id="flow_route_48_duration_20250327_1910.7" depart="38.00" departLane="380351865#0_0" departPos="1.10" departSpeed="0.00" departDelay="35.38" arrival="106.00" arrivalLane="133126031#0_1" arrivalPos="188.60" arrivalSpeed="16.44" duration="68.00" routeLength="354.68" waitingTime="21.00" waitingCount="1" stopTime="0.00" timeLoss="43.06" rerouteNo="0" devices="tripinfo_flow_route_48_duration_20250327_1910.7" vType="car" speedFactor="1.08" vaporized=""/>
    <tripinfo id="flow_route_48_duration_20250327_1910.4" depart="21.00" departLane="380351865#0_0" departPos="2.72" departSpeed="0.00" departDelay="19.50" arrival="107.00" arrivalLane="133126031#0_0" arrivalPos="237.96" arrivalSpeed="16.28" duration="86.00" routeLength="402.41" waitingTime="36.00" waitingCount="1" stopTime="0.00" timeLoss="56.57" rerouteNo="0" devices="tripinfo_flow_route_48_duration_20250327_1910.4" vType="car" speedFactor="0.96" vaporized=""/>
    <tripinfo id="flow_route_48_duration_20250327_1910.12" depart="64.00" departLane="380351865#0_0" departPos="1.04" departSpeed="0.00" departDelay="59.50" arrival="107.00" arrivalLane="133126031#0_1" arrivalPos="123.58" arrivalSpeed="16.23" duration="43.00" routeLength="289.71" waitingTime="0.00" waitingCount="0" stopTime="0.00" timeLoss="22.20" rerouteNo="0" devices="tripinfo_flow_route_48_duration_20250327_1910.12" vType="car" speedFactor="1.12" vaporized=""/>
    <tripinfo id="flow_route_48_duration_20250327_1910.10" depart="51.00" departLane="380351865#0_0" departPos="7.50" departSpeed="0.00" departDelay="47.25" arrival="110.00" arrivalLane="133126031#0_0" arrivalPos="207.92" arrivalSpeed="16.25" duration="59.00" routeLength="367.59" waitingTime="11.00" waitingCount="1" stopTime="0.00" timeLoss="33.64" rerouteNo="0" devices="tripinfo_flow_route_48_duration_20250327_1910.10" vType="car" speedFactor="1.09" vaporized=""/>
    <tripinfo id="flow_route_48_duration_20250327_1910.16" depart="87.00" departLane="380351865#0_0" departPos="0.59" departSpeed="0.00" departDelay="81.00" arrival="110.00" arrivalLane="133126031#0_1" arrivalPos="4.86" arrivalSpeed="12.90" duration="23.00" routeLength="171.45" waitingTime="0.00" waitingCount="0" stopTime="0.00" timeLoss="7.99" rerouteNo="0" devices="tripinfo_flow_route_48_duration_20250327_1910.16" vType="car" speedFactor="0.99" vaporized=""/>
    <tripinfo id="flow_route_49_duration_20250327_1910.1" depart="55.00" departLane="380351865#0_0" departPos="5.85" departSpeed="0.00" departDelay="51.25" arrival="112.00" arrivalLane="1318893695#0_0" arrivalPos="185.20" arrivalSpeed="16.37" duration="57.00" routeLength="323.23" waitingTime="9.00" waitingCount="1" stopTime="0.00" timeLoss="33.03" rerouteNo="0" devices="tripinfo_flow_route_49_duration_20250327_1910.1" vType="car" speedFactor="1.03" vaporized=""/>
    <tripinfo id="flow_route_48_duration_20250327_1910.9" depart="49.00" departLane="380351865#0_0" departPos="14.34" departSpeed="0.00" departDelay="45.63" arrival="114.00" arrivalLane="133126031#0_1" arrivalPos="291.16" arrivalSpeed="16.58" duration="65.00" routeLength="444.00" waitingTime="14.00" waitingCount="1" stopTime="0.00" timeLoss="34.15" rerouteNo="0" devices="tripinfo_flow_route_48_duration_20250327_1910.9" vType="car" speedFactor="1.01" vaporized=""/>
    <tripinfo id="flow_route_48_duration_20250327_1910.13" depart="69.00" departLane="380351865#0_0" departPos="2.09" departSpeed="0.00" departDelay="64.13" arrival="114.00" arrivalLane="133126031#0_1" arrivalPos="159.63" arrivalSpeed="16.25" duration="45.00" routeLength="324.71" waitingTime="1.00" waitingCount="1" stopTime="0.00" timeLoss="22.11" rerouteNo="0" devices="tripinfo_flow_route_48_duration_20250327_1910.13" vType="car" speedFactor="1.10" vaporized=""/>
    <tripinfo id="flow_route_0_duration_20250327_1910.16" depart="86.00" departLane="1318793176#1_0" departPos="1.41" departSpeed="0.00" departDelay="84.85" arrival="115.00" arrivalLane="133126031#0_0" arrivalPos="9.92" arrivalSpeed="8.71" duration="29.00" routeLength="128.92" waitingTime="0.00" waitingCount="0" stopTime="0.00" timeLoss="19.87" rerouteNo="0" devices="tripinfo_flow_route_0_duration_20250327_1910.16" vType="car" speedFactor="0.92" vaporized=""/>
    <tripinfo id="flow_route_48_duration_20250327_1910.11" depart="60.00" departLane="380351865#0_0" departPos="0.55" departSpeed="0.00" departDelay="55.88" arrival="115.00" arrivalLane="133126031#0_1" arrivalPos="293.31" arrivalSpeed="16.33" duration="55.00" routeLength="459.92" waitingTime="2.00" waitingCount="1" stopTime="0.00" timeLoss="22.01" rerouteNo="0" devices="tripinfo_flow_route_48_duration_20250327_1910.11" vType="car" speedFactor="0.91" vaporized=""/>
    <tripinfo id="flow_route_0_duration_20250327_1910.14" depart="78.00" departLane="1318793176#1_0" departPos="6.35" departSpeed="0.00" departDelay="76.99" arrival="116.00" arrivalLane="133126031#0_0" arrivalPos="52.91" arrivalSpeed="10.19" duration="38.00" routeLength="166.98" waitingTime="2.00" waitingCount="1" stopTime="0.00" timeLoss="25.58" rerouteNo="0" devices="tripinfo_flow_route_0_duration_20250327_1910.14" vType="car" speedFactor="0.83" vaporized=""/>
    <tripinfo id="flow_route_48_duration_20250327_1910.15" depart="81.00" departLane="380351865#0_0" departPos="4.77" departSpeed="0.00" departDelay="75.38" arrival="117.00" arrivalLane="133126031#0_1" arrivalPos="182.65" arrivalSpeed="16.46" duration="36.00" routeLength="345.05" waitingTime="0.00" waitingCount="0" stopTime="0.00" timeLoss="11.49" rerouteNo="0" devices="tripinfo_flow_route_48_duration_20250327_1910.15" vType="car" speedFactor="1.00" vaporized=""/>
    <tripinfo id="flow_route_48_duration_20250327_1910.14" depart="78.00" departLane="380351865#0_0" departPos="7.89" departSpeed="0.00" departDelay="72.75" arrival="120.00" arrivalLane="133126031#0_1" arrivalPos="314.19" arrivalSpeed="16.48" duration="42.00" routeLength="473.47" waitingTime="0.00" waitingCount="0" stopTime="0.00" timeLoss="10.76" rerouteNo="0" devices="tripinfo_flow_route_48_duration_20250327_1910.14" vType="car" speedFactor="1.18" vaporized=""/>
    <tripinfo id="flow_route_0_duration_20250327_1910.19" depart="100.00" departLane="1318793176#1_0" departPos="1.50" departSpeed="0.00" departDelay="98.63" arrival="124.00" arrivalLane="133126031#0_0" arrivalPos="43.02" arrivalSpeed="11.18" duration="24.00" routeLength="161.94" waitingTime="0.00" waitingCount="0" stopTime="0.00" timeLoss="13.36" rerouteNo="0" devices="tripinfo_flow_route_0_duration_20250327_1910.19" vType="car" speedFactor="0.93" vaporized=""/>
    <tripinfo id="flow_route_0_duration_20250327_1910.12" depart="65.00" departLane="1318793176#1_0" departPos="4.85" departSpeed="0.00" departDelay="64.14" arrival="125.00" arrivalLane="133126031#0_0" arrivalPos="312.28" arrivalSpeed="16.41" duration="60.00" routeLength="427.85" waitingTime="13.00" waitingCount="1" stopTime="0.00" timeLoss="33.18" rerouteNo="0" devices="tripinfo_flow_route_0_duration_20250327_1910.12" vType="car" speedFactor="0.94" vaporized=""/>
    <tripinfo id="flow_route_0_duration_20250327_1910.13" depart="69.00" departLane="1318793176#1_0" departPos="2.44" departSpeed="0.00" departDelay="68.06" arrival="125.00" arrivalLane="133126031#0_0" arrivalPos="274.12" arrivalSpeed="16.58" duration="56.00" routeLength="392.10" waitingTime="9.00" waitingCount="1" stopTime="0.00" timeLoss="31.38" rerouteNo="0" devices="tripinfo_flow_route_0_duration_20250327_1910.13" vType="car" speedFactor="1.16" vaporized=""/>
    <tripinfo id="flow_route_0_duration_20250327_1910.20" depart="104.00" departLane="1318793176#1_0" departPos="2.01" departSpeed="0.00" departDelay="102.56" arrival="126.00" arrivalLane="133126031#0_0" arrivalPos="41.70" arrivalSpeed="15.22" duration="22.00" routeLength="160.11" waitingTime="0.00" waitingCount="0" stopTime="0.00" timeLoss="12.04" rerouteNo="0" devices="tripinfo_flow_route_0_duration_20250327_1910.20" vType="car" speedFactor="1.18" vaporized=""/>
    <tripinfo id="flow_route_1_duration_20250327_1910.1" depart="73.00" departLane="1318793176#1_0" departPos="0.06" departSpeed="0.00" departDelay="72.02" arrival="127.00" arrivalLane="1318793173#0_1" arrivalPos="95.93" arrivalSpeed="13.71" duration="54.00" routeLength="219.76" waitingTime="20.00" waitingCount="1" stopTime="0.00" timeLoss="40.44" rerouteNo="0" devices="tripinfo_flow_route_1_duration_20250327_1910.1" vType="car" speedFactor="1.02" vaporized=""/>
    <tripinfo id="flow_route_0_duration_20250327_1910.18" depart="97.00" departLane="1318793176#1_0" departPos="6.61" departSpeed="0.00" departDelay="95.70" arrival="127.00" arrivalLane="133126031#0_0" arrivalPos="110.18" arrivalSpeed="15.30" duration="30.00" routeLength="223.98" waitingTime="0.00" waitingCount="0" stopTime="0.00" timeLoss="16.07" rerouteNo="0" devices="tripinfo_flow_route_0_duration_20250327_1910.18" vType="car" speedFactor="1.13" vaporized=""/>
    <tripinfo id="flow_route_19_duration_20250327_1910.24" depart="22.00" departLane="133126040#0_0" departPos="83.05" departSpeed="0.00" departDelay="0.52" arrival="130.00" arrivalLane="133126031#0_1" arrivalPos="47.06" arrivalSpeed="10.05" duration="108.00" routeLength="92.87" waitingTime="75.00" waitingCount="7" stopTime="0.00" timeLoss="101.06" rerouteNo="0" devices="tripinfo_flow_route_19_duration_20250327_1910.24" vType="car" speedFactor="0.92" vaporized=""/>
    <tripinfo id="flow_route_0_duration_20250327_1910.17" depart="90.00" departLane="1318793176#1_0" departPos="0.31" departSpeed="0.00" departDelay="88.78" arrival="133.00" arrivalLane="133126031#0_0" arrivalPos="227.82" arrivalSpeed="16.52" duration="43.00" routeLength="347.93" waitingTime="1.00" waitingCount="1" stopTime="0.00" timeLoss="20.63" rerouteNo="0" devices="tripinfo_flow_route_0_duration_20250327_1910.17" vType="car" speedFactor="0.95" vaporized=""/>
    <tripinfo id="flow_route_0_duration_20250327_1910.15" depart="82.00" departLane="1318793176#1_0" departPos="1.39" departSpeed="0.00" departDelay="80.92" arrival="135.00" arrivalLane="133126031#0_0" arrivalPos="318.11" arrivalSpeed="16.40" duration="53.00" routeLength="437.14" waitingTime="0.00" waitingCount="0" stopTime="0.00" timeLoss="24.72" rerouteNo="0" devices="tripinfo_flow_route_0_duration_20250327_1910.15" vType="car" speedFactor="0.87" vaporized=""/>
    <tripinfo id="flow_route_0_duration_20250327_1910.21" depart="111.00" departLane="1318793176#1_0" departPos="3.94" departSpeed="0.00" departDelay="109.49" arrival="137.00" arrivalLane="133126031#0_0" arrivalPos="136.79" arrivalSpeed="16.50" duration="26.00" routeLength="253.27" waitingTime="0.00" waitingCount="0" stopTime="0.00" timeLoss="10.42" rerouteNo="0" devices="tripinfo_flow_route_0_duration_20250327_1910.21" vType="car" speedFactor="1.15" vaporized=""/>