<?xml version="1.0" encoding="UTF-8"?>

<!-- generated on 2025-05-06 21:08:02 by Eclipse SUMO sumo Version 1.20.0
<configuration xmlns:xsi="http://www.w3.org/2001/XMLSchema-instance" xsi:noNamespaceSchemaLocation="http://sumo.dlr.de/xsd/sumoConfiguration.xsd">

    <input>
        <net-file value="osm.net.xml"/>
        <route-files value="xml/route_rl_GS_cluster_1342409365_3839031467_2.rou.xml"/>
    </input>

    <output>
        <tripinfo-output value="xml/tripinfo_rl_GS_cluster_1342409365_3839031467_2.xml"/>
    </output>

    <traci_server>
        <remote-port value="50911"/>
    </traci_server>

</configuration>
-->

<tripinfos xmlns:xsi="http://www.w3.org/2001/XMLSchema-instance" xsi:noNamespaceSchemaLocation="http://sumo.dlr.de/xsd/tripinfo_file.xsd">
    <tripinfo id="flow_route_128_duration_20250327_2140.0" depart="0.00" departLane="134133272_0" departPos="226.49" departSpeed="0.00" departDelay="0.00" arrival="31.00" arrivalLane="380585338#0_0" arrivalPos="7.57" arrivalSpeed="5.61" duration="31.00" routeLength="279.28" waitingTime="0.00" waitingCount="0" stopTime="0.00" timeLoss="10.70" rerouteNo="0" devices="tripinfo_flow_route_128_duration_20250327_2140.0" vType="car" speedFactor="0.83" vaporized=""/>
    <tripinfo id="flow_route_92_duration_20250327_2140.1" depart="4.00" departLane="133000063_0" departPos="109.11" departSpeed="0.00" departDelay="0.84" arrival="37.00" arrivalLane="186409193_0" arrivalPos="29.97" arrivalSpeed="15.39" duration="33.00" routeLength="312.72" waitingTime="0.00" waitingCount="0" stopTime="0.00" timeLoss="13.51" rerouteNo="0" devices="tripinfo_flow_route_92_duration_20250327_2140.1" vType="car" speedFactor="1.09" vaporized=""/>
    <tripinfo id="flow_route_91_duration_20250327_2140.0" depart="0.00" departLane="133000063_0" departPos="128.34" departSpeed="0.00" departDelay="0.00" arrival="47.00" arrivalLane="683079387#1_0" arrivalPos="9.10" arrivalSpeed="16.31" duration="47.00" routeLength="599.49" waitingTime="0.00" waitingCount="0" stopTime="0.00" timeLoss="10.72" rerouteNo="0" devices="tripinfo_flow_route_91_duration_20250327_2140.0" vType="car" speedFactor="1.06" vaporized=""/>
    <tripinfo id="flow_route_92_duration_20250327_2140.2" depart="7.00" departLane="133000063_0" departPos="5.58" departSpeed="0.00" departDelay="0.69" arrival="53.00" arrivalLane="186409193_0" arrivalPos="23.17" arrivalSpeed="14.32" duration="46.00" routeLength="409.44" waitingTime="0.00" waitingCount="0" stopTime="0.00" timeLoss="20.21" rerouteNo="0" devices="tripinfo_flow_route_92_duration_20250327_2140.2" vType="car" speedFactor="1.05" vaporized=""/>
    <tripinfo id="flow_route_92_duration_20250327_2140.5" depart="20.00" departLane="133000063_0" departPos="170.91" departSpeed="0.00" departDelay="4.22" arrival="53.00" arrivalLane="186409193_0" arrivalPos="55.79" arrivalSpeed="14.68" duration="33.00" routeLength="276.74" waitingTime="0.00" waitingCount="0" stopTime="0.00" timeLoss="13.17" rerouteNo="0" devices="tripinfo_flow_route_92_duration_20250327_2140.5" vType="car" speedFactor="0.89" vaporized=""/>
    <tripinfo id="flow_route_92_duration_20250327_2140.4" depart="15.00" departLane="133000063_0" departPos="84.84" departSpeed="0.00" departDelay="2.37" arrival="57.00" arrivalLane="186409193_0" arrivalPos="5.20" arrivalSpeed="13.57" duration="42.00" routeLength="312.22" waitingTime="0.00" waitingCount="0" stopTime="0.00" timeLoss="22.12" rerouteNo="0" devices="tripinfo_flow_route_92_duration_20250327_2140.4" vType="car" speedFactor="1.02" vaporized=""/>
    <tripinfo id="flow_route_103_duration_20250327_2140.0" depart="1.00" departLane="1342963997_0" departPos="57.81" departSpeed="0.00" departDelay="1.00" arrival="60.00" arrivalLane="683079387#1_0" arrivalPos="6.02" arrivalSpeed="16.50" duration="59.00" routeLength="524.42" waitingTime="3.00" waitingCount="1" stopTime="0.00" timeLoss="26.54" rerouteNo="0" devices="tripinfo_flow_route_103_duration_20250327_2140.0" vType="car" speedFactor="1.03" vaporized=""/>
    <tripinfo id="flow_route_93_duration_20250327_2140.0" depart="0.00" departLane="133000063_0" departPos="115.92" departSpeed="0.00" departDelay="0.00" arrival="65.00" arrivalLane="380585336_1" arrivalPos="19.16" arrivalSpeed="16.45" duration="65.00" routeLength="758.54" waitingTime="0.00" waitingCount="0" stopTime="0.00" timeLoss="18.63" rerouteNo="0" devices="tripinfo_flow_route_93_duration_20250327_2140.0" vType="car" speedFactor="1.01" vaporized=""/>
    <tripinfo id="flow_route_145_duration_20250327_2140.0" depart="0.00" departLane="683079388#0_0" departPos="22.61" departSpeed="0.00" departDelay="0.00" arrival="68.00" arrivalLane="380585336_0" arrivalPos="229.76" arrivalSpeed="15.56" duration="68.00" routeLength="831.39" waitingTime="0.00" waitingCount="0" stopTime="0.00" timeLoss="15.07" rerouteNo="0" devices="tripinfo_flow_route_145_duration_20250327_2140.0" vType="car" speedFactor="0.94" vaporized=""/>
    <tripinfo id="flow_route_102_duration_20250327_2140.0" depart="0.00" departLane="1342963997_0" departPos="83.70" departSpeed="0.00" departDelay="0.00" arrival="69.00" arrivalLane="380585336_1" arrivalPos="207.08" arrivalSpeed="16.40" duration="69.00" routeLength="834.32" waitingTime="0.00" waitingCount="0" stopTime="0.00" timeLoss="17.88" rerouteNo="0" devices="tripinfo_flow_route_102_duration_20250327_2140.0" vType="car" speedFactor="1.08" vaporized=""/>
    <tripinfo id="flow_route_91_duration_20250327_2140.1" depart="13.00" departLane="133000063_0" departPos="115.08" departSpeed="0.00" departDelay="1.00" arrival="70.00" arrivalLane="683079387#1_0" arrivalPos="2.70" arrivalSpeed="15.26" duration="57.00" routeLength="606.35" waitingTime="0.00" waitingCount="0" stopTime="0.00" timeLoss="18.18" rerouteNo="0" devices="tripinfo_flow_route_91_duration_20250327_2140.1" vType="car" speedFactor="0.94" vaporized=""/>
    <tripinfo id="flow_route_145_duration_20250327_2140.1" depart="13.00" departLane="683079388#0_0" departPos="15.39" departSpeed="0.00" departDelay="1.00" arrival="78.00" arrivalLane="380585336_0" arrivalPos="70.77" arrivalSpeed="11.93" duration="65.00" routeLength="679.61" waitingTime="1.00" waitingCount="1" stopTime="0.00" timeLoss="23.85" rerouteNo="0" devices="tripinfo_flow_route_145_duration_20250327_2140.1" vType="car" speedFactor="1.16" vaporized=""/>
    <tripinfo id="flow_route_93_duration_20250327_2140.4" depart="12.00" departLane="133000063_0" departPos="98.45" departSpeed="0.00" departDelay="2.77" arrival="82.00" arrivalLane="380585336_1" arrivalPos="54.51" arrivalSpeed="14.18" duration="70.00" routeLength="811.35" waitingTime="0.00" waitingCount="0" stopTime="0.00" timeLoss="15.03" rerouteNo="0" devices="tripinfo_flow_route_93_duration_20250327_2140.4" vType="car" speedFactor="0.88" vaporized=""/>
    <tripinfo id="flow_route_129_duration_20250327_2140.0" depart="0.00" departLane="134133272_0" departPos="105.80" departSpeed="0.00" departDelay="0.00" arrival="83.00" arrivalLane="683079387#1_0" arrivalPos="7.59" arrivalSpeed="16.56" duration="83.00" routeLength="945.90" waitingTime="1.00" waitingCount="1" stopTime="0.00" timeLoss="25.09" rerouteNo="0" devices="tripinfo_flow_route_129_duration_20250327_2140.0" vType="car" speedFactor="1.05" vaporized=""/>
    <tripinfo id="flow_route_144_duration_20250327_2140.3" depart="23.00" departLane="683079388#0_0" departPos="9.08" departSpeed="0.00" departDelay="0.50" arrival="85.00" arrivalLane="380585338#0_2" arrivalPos="13.89" arrivalSpeed="7.60" duration="62.00" routeLength="584.55" waitingTime="3.00" waitingCount="1" stopTime="0.00" timeLoss="26.52" rerouteNo="0" devices="tripinfo_flow_route_144_duration_20250327_2140.3" vType="car" speedFactor="1.18" vaporized=""/>
    <tripinfo id="flow_route_129_duration_20250327_2140.1" depart="20.00" departLane="134133272_0" departPos="135.60" departSpeed="0.00" departDelay="0.00" arrival="88.00" arrivalLane="683079387#1_0" arrivalPos="1.83" arrivalSpeed="15.69" duration="68.00" routeLength="910.34" waitingTime="0.00" waitingCount="0" stopTime="0.00" timeLoss="10.13" rerouteNo="0" devices="tripinfo_flow_route_129_duration_20250327_2140.1" vType="car" speedFactor="0.95" vaporized=""/>
    <tripinfo id="flow_route_144_duration_20250327_2140.0" depart="0.00" departLane="683079388#0_0" departPos="1.56" departSpeed="0.00" departDelay="0.00" arrival="89.00" arrivalLane="380585338#0_0" arrivalPos="42.98" arrivalSpeed="9.39" duration="89.00" routeLength="621.16" waitingTime="25.00" waitingCount="1" stopTime="0.00" timeLoss="46.56" rerouteNo="0" devices="tripinfo_flow_route_144_duration_20250327_2140.0" vType="car" speedFactor="0.89" vaporized=""/>
    <tripinfo id="flow_route_93_duration_20250327_2140.5" depart="13.00" departLane="133000063_0" departPos="123.25" departSpeed="0.00" departDelay="1.47" arrival="92.00" arrivalLane="380585336_1" arrivalPos="94.02" arrivalSpeed="15.23" duration="79.00" routeLength="826.06" waitingTime="0.00" waitingCount="0" stopTime="0.00" timeLoss="25.85" rerouteNo="0" devices="tripinfo_flow_route_93_duration_20250327_2140.5" vType="car" speedFactor="0.94" vaporized=""/>
    <tripinfo id="flow_route_144_duration_20250327_2140.2" depart="15.00" departLane="683079388#0_0" departPos="4.35" departSpeed="0.00" departDelay="0.00" arrival="92.00" arrivalLane="380585338#0_0" arrivalPos="53.45" arrivalSpeed="10.85" duration="77.00" routeLength="628.84" waitingTime="15.00" waitingCount="1" stopTime="0.00" timeLoss="37.81" rerouteNo="0" devices="tripinfo_flow_route_144_duration_20250327_2140.2" vType="car" speedFactor="0.97" vaporized=""/>
    <tripinfo id="flow_route_144_duration_20250327_2140.4" depart="30.00" departLane="683079388#0_0" departPos="11.77" departSpeed="0.00" departDelay="0.00" arrival="94.00" arrivalLane="380585338#0_1" arrivalPos="85.55" arrivalSpeed="13.35" duration="64.00" routeLength="653.53" waitingTime="0.00" waitingCount="0" stopTime="0.00" timeLoss="24.07" rerouteNo="0" devices="tripinfo_flow_route_144_duration_20250327_2140.4" vType="car" speedFactor="1.03" vaporized=""/>
    <tripinfo id="flow_route_144_duration_20250327_2140.1" depart="9.00" departLane="683079388#0_0" departPos="17.69" departSpeed="0.00" departDelay="1.50" arrival="95.00" arrivalLane="380585338#0_0" arrivalPos="132.76" arrivalSpeed="14.94" duration="86.00" routeLength="694.81" waitingTime="20.00" waitingCount="1" stopTime="0.00" timeLoss="43.64" rerouteNo="0" devices="tripinfo_flow_route_144_duration_20250327_2140.1" vType="car" speedFactor="0.99" vaporized=""/>
    <tripinfo id="flow_route_144_duration_20250327_2140.5" depart="38.00" departLane="683079388#0_0" departPos="21.83" departSpeed="0.00" departDelay="0.50" arrival="98.00" arrivalLane="380585338#0_0" arrivalPos="117.27" arrivalSpeed="14.03" duration="60.00" routeLength="675.18" waitingTime="0.00" waitingCount="0" stopTime="0.00" timeLoss="12.23" rerouteNo="0" devices="tripinfo_flow_route_144_duration_20250327_2140.5" vType="car" speedFactor="0.85" vaporized=""/>
    <tripinfo id="flow_route_129_duration_20250327_2140.2" depart="40.00" departLane="134133272_0" departPos="235.62" departSpeed="0.00" departDelay="0.00" arrival="101.00" arrivalLane="683079387#1_0" arrivalPos="6.77" arrivalSpeed="16.37" duration="61.00" routeLength="815.26" waitingTime="0.00" waitingCount="0" stopTime="0.00" timeLoss="11.57" rerouteNo="0" devices="tripinfo_flow_route_129_duration_20250327_2140.2" vType="car" speedFactor="1.17" vaporized=""/>
    <tripinfo id="flow_route_93_duration_20250327_2140.2" depart="7.00" departLane="133000063_0" departPos="40.77" departSpeed="0.00" departDelay="2.39" arrival="103.00" arrivalLane="380585336_2" arrivalPos="395.67" arrivalSpeed="16.30" duration="96.00" routeLength="1210.19" waitingTime="0.00" waitingCount="0" stopTime="0.00" timeLoss="22.42" rerouteNo="0" devices="tripinfo_flow_route_93_duration_20250327_2140.2" vType="car" speedFactor="1.03" vaporized=""/>
    <tripinfo id="flow_route_144_duration_20250327_2140.6" depart="45.00" departLane="683079388#0_0" departPos="14.18" departSpeed="0.00" departDelay="0.00" arrival="103.00" arrivalLane="380585338#0_0" arrivalPos="142.58" arrivalSpeed="14.66" duration="58.00" routeLength="708.14" waitingTime="0.00" waitingCount="0" stopTime="0.00" timeLoss="10.32" rerouteNo="0" devices="tripinfo_flow_route_144_duration_20250327_2140.6" vType="car" speedFactor="0.90" vaporized=""/>
    <tripinfo id="flow_route_92_duration_20250327_2140.0" depart="0.00" departLane="133000063_0" departPos="1.04" departSpeed="0.00" departDelay="0.00" arrival="107.00" arrivalLane="186409193_0" arrivalPos="41.62" arrivalSpeed="15.26" duration="107.00" routeLength="432.44" waitingTime="38.00" waitingCount="1" stopTime="0.00" timeLoss="78.14" rerouteNo="0" devices="tripinfo_flow_route_92_duration_20250327_2140.0" vType="car" speedFactor="0.94" vaporized=""/>
    <tripinfo id="flow_route_92_duration_20250327_2140.3" depart="10.00" departLane="133000063_0" departPos="21.60" departSpeed="0.00" departDelay="0.53" arrival="107.00" arrivalLane="186409193_0" arrivalPos="19.35" arrivalSpeed="13.74" duration="97.00" routeLength="389.62" waitingTime="37.00" waitingCount="1" stopTime="0.00" timeLoss="71.06" rerouteNo="0" devices="tripinfo_flow_route_92_duration_20250327_2140.3" vType="car" speedFactor="0.93" vaporized=""/>
    <tripinfo id="flow_route_92_duration_20250327_2140.7" depart="33.00" departLane="133000063_0" departPos="120.48" departSpeed="0.00" departDelay="10.90" arrival="109.00" arrivalLane="186409193_0" arrivalPos="2.74" arrivalSpeed="12.80" duration="76.00" routeLength="274.12" waitingTime="29.00" waitingCount="2" stopTime="0.00" timeLoss="57.58" rerouteNo="0" devices="tripinfo_flow_route_92_duration_20250327_2140.7" vType="car" speedFactor="0.93" vaporized=""/>
    <tripinfo id="flow_route_144_duration_20250327_2140.7" depart="54.00" departLane="683079388#0_0" departPos="11.95" departSpeed="0.00" departDelay="1.50" arrival="110.00" arrivalLane="380585338#0_0" arrivalPos="147.83" arrivalSpeed="15.36" duration="56.00" routeLength="715.62" waitingTime="0.00" waitingCount="0" stopTime="0.00" timeLoss="9.96" rerouteNo="0" devices="tripinfo_flow_route_144_duration_20250327_2140.7" vType="car" speedFactor="0.94" vaporized=""/>
    <tripinfo id="flow_route_93_duration_20250327_2140.1" depart="4.00" departLane="133000063_0" departPos="52.89" departSpeed="0.00" departDelay="1.69" arrival="111.00" arrivalLane="380585336_0" arrivalPos="288.04" arrivalSpeed="13.95" duration="107.00" routeLength="1090.45" waitingTime="0.00" waitingCount="0" stopTime="0.00" timeLoss="31.30" rerouteNo="0" devices="tripinfo_flow_route_93_duration_20250327_2140.1" vType="car" speedFactor="0.86" vaporized=""/>
    <tripinfo id="flow_route_92_duration_20250327_2140.6" depart="25.00" departLane="133000063_0" departPos="67.13" departSpeed="0.00" departDelay="6.06" arrival="113.00" arrivalLane="186409193_0" arrivalPos="31.94" arrivalSpeed="14.32" duration="88.00" routeLength="356.67" waitingTime="28.00" waitingCount="2" stopTime="0.00" timeLoss="62.80" rerouteNo="0" devices="tripinfo_flow_route_92_duration_20250327_2140.6" vType="car" speedFactor="0.87" vaporized=""/>
    <tripinfo id="flow_route_92_duration_20250327_2140.8" depart="46.00" departLane="133000063_0" departPos="2.52" departSpeed="0.00" departDelay="20.74" arrival="125.00" arrivalLane="186409193_0" arrivalPos="34.18" arrivalSpeed="12.80" duration="79.00" routeLength="423.52" waitingTime="5.00" waitingCount="1" stopTime="0.00" timeLoss="52.84" rerouteNo="0" devices="tripinfo_flow_route_92_duration_20250327_2140.8" vType="car" speedFactor="0.99" vaporized=""/>
    <tripinfo id="flow_route_102_duration_20250327_2140.1" depart="30.00" departLane="1342963997_0" departPos="127.62" departSpeed="0.00" departDelay="0.00" arrival="126.00" arrivalLane="380585336_0" arrivalPos="389.72" arrivalSpeed="14.94" duration="96.00" routeLength="973.05" waitingTime="6.00" waitingCount="1" stopTime="0.00" timeLoss="31.46" rerouteNo="0" devices="tripinfo_flow_route_102_duration_20250327_2140.1" vType="car" speedFactor="0.90" vaporized=""/>
    <tripinfo id="flow_route_92_duration_20250327_2140.10" depart="56.00" departLane="133000063_0" departPos="26.41" departSpeed="0.00" departDelay="24.43" arrival="127.00" arrivalLane="186409193_0" arrivalPos="33.51" arrivalSpeed="13.09" duration="71.00" routeLength="398.96" waitingTime="0.00" waitingCount="0" stopTime="0.00" timeLoss="44.99" rerouteNo="0" devices="tripinfo_flow_route_92_duration_20250327_2140.10" vType="car" speedFactor="0.96" vaporized=""/>
    <tripinfo id="flow_route_145_duration_20250327_2140.2" depart="25.00" departLane="683079388#0_0" departPos="21.32" departSpeed="0.00" departDelay="1.00" arrival="128.00" arrivalLane="380585336_0" arrivalPos="285.97" arrivalSpeed="16.30" duration="103.00" routeLength="888.89" waitingTime="25.00" waitingCount="1" stopTime="0.00" timeLoss="48.88" rerouteNo="0" devices="tripinfo_flow_route_145_duration_20250327_2140.2" vType="car" speedFactor="1.17" vaporized=""/>
    <tripinfo id="flow_route_92_duration_20250327_2140.12" depart="74.00" departLane="133000063_0" departPos="97.93" departSpeed="0.00" departDelay="36.12" arrival="128.00" arrivalLane="186409193_0" arrivalPos="22.82" arrivalSpeed="13.38" duration="54.00" routeLength="316.75" waitingTime="0.00" waitingCount="0" stopTime="0.00" timeLoss="31.57" rerouteNo="0" devices="tripinfo_flow_route_92_duration_20250327_2140.12" vType="car" speedFactor="0.88" vaporized=""/>
    <tripinfo id="flow_route_145_duration_20250327_2140.3" depart="37.00" departLane="683079388#0_0" departPos="1.10" departSpeed="0.00" departDelay="1.00" arrival="131.00" arrivalLane="380585336_0" arrivalPos="300.55" arrivalSpeed="16.16" duration="94.00" routeLength="923.69" waitingTime="11.00" waitingCount="1" stopTime="0.00" timeLoss="37.94" rerouteNo="0" devices="tripinfo_flow_route_145_duration_20250327_2140.3" vType="car" speedFactor="1.00" vaporized=""/>
    <tripinfo id="flow_route_91_duration_20250327_2140.3" depart="70.00" departLane="133000063_0" departPos="80.23" departSpeed="0.00" departDelay="34.00" arrival="132.00" arrivalLane="683079387#1_1" arrivalPos="1.27" arrivalSpeed="16.32" duration="62.00" routeLength="639.77" waitingTime="0.00" waitingCount="0" stopTime="0.00" timeLoss="23.45" rerouteNo="0" devices="tripinfo_flow_route_91_duration_20250327_2140.3" vType="car" speedFactor="1.09" vaporized=""/>
    <tripinfo id="flow_route_92_duration_20250327_2140.11" depart="65.00" departLane="133000063_0" departPos="38.92" departSpeed="0.00" departDelay="30.27" arrival="133.00" arrivalLane="186409193_0" arrivalPos="45.63" arrivalSpeed="15.07" duration="68.00" routeLength="398.56" waitingTime="0.00" waitingCount="0" stopTime="0.00" timeLoss="43.04" rerouteNo="0" devices="tripinfo_flow_route_92_duration_20250327_2140.11" vType="car" speedFactor="1.04" vaporized=""/>
    <tripinfo id="flow_route_145_duration_20250327_2140.4" depart="48.00" departLane="683079388#0_0" departPos="8.75" departSpeed="0.00" departDelay="0.00" arrival="135.00" arrivalLane="380585336_0" arrivalPos="336.23" arrivalSpeed="16.37" duration="87.00" routeLength="951.72" waitingTime="3.00" waitingCount="1" stopTime="0.00" timeLoss="29.46" rerouteNo="0" devices="tripinfo_flow_route_145_duration_20250327_2140.4" vType="car" speedFactor="1.08" vaporized=""/>
    <tripinfo id="flow_route_92_duration_20250327_2140.9" depart="53.00" departLane="133000063_0" departPos="141.12" departSpeed="0.00" departDelay="24.59" arrival="141.00" arrivalLane="186409193_0" arrivalPos="6.12" arrivalSpeed="13.86" duration="88.00" routeLength="256.85" waitingTime="21.00" waitingCount="3" stopTime="0.00" timeLoss="71.57" rerouteNo="0" devices="tripinfo_flow_route_92_duration_20250327_2140.9" vType="car" speedFactor="1.18" vaporized=""/>
    <tripinfo id="flow_route_91_duration_20250327_2140.2" depart="33.00" departLane="133000063_0" departPos="17.49" departSpeed="0.00" departDelay="9.00" arrival="142.00" arrivalLane="683079387#1_0" arrivalPos="2.96" arrivalSpeed="16.32" duration="109.00" routeLength="704.20" waitingTime="22.00" waitingCount="2" stopTime="0.00" timeLoss="65.74" rerouteNo="0" devices="tripinfo_flow_route_91_duration_20250327_2140.2" vType="car" speedFactor="1.15" vaporized=""/>
    <tripinfo id="flow_route_93_duration_20250327_2140.9" depart="33.00" departLane="133000063_0" departPos="59.06" departSpeed="0.00" departDelay="12.24" arrival="148.00" arrivalLane="380585336_2" arrivalPos="36.24" arrivalSpeed="16.18" duration="115.00" routeLength="832.48" waitingTime="13.00" waitingCount="2" stopTime="0.00" timeLoss="64.28" rerouteNo="0" devices="tripinfo_flow_route_93_duration_20250327_2140.9" vType="car" speedFactor="1.13" vaporized=""/>
    <tripinfo id="flow_route_92_duration_20250327_2140.13" depart="77.00" departLane="133000063_0" departPos="5.96" departSpeed="0.00" departDelay="35.96" arrival="150.00" arrivalLane="186409193_0" arrivalPos="22.17" arrivalSpeed="15.02" duration="73.00" routeLength="408.06" waitingTime="0.00" waitingCount="0" stopTime="0.00" timeLoss="47.65" rerouteNo="0" devices="tripinfo_flow_route_92_duration_20250327_2140.13" vType="car" speedFactor="1.02" vaporized=""/>
    <tripinfo id="flow_route_93_duration_20250327_2140.3" depart="9.00" departLane="133000063_0" departPos="5.14" departSpeed="0.00" departDelay="2.08" arrival="153.00" arrivalLane="380585336_1" arrivalPos="229.35" arrivalSpeed="16.45" duration="144.00" routeLength="1079.51" waitingTime="27.00" waitingCount="2" stopTime="0.00" timeLoss="78.85" rerouteNo="0" devices="tripinfo_flow_route_93_duration_20250327_2140.3" vType="car" speedFactor="1.12" vaporized=""/>
    <tripinfo id="flow_route_92_duration_20250327_2140.14" depart="87.00" departLane="133000063_0" departPos="32.83" departSpeed="0.00" departDelay="42.80" arrival="154.00" arrivalLane="186409193_0" arrivalPos="37.45" arrivalSpeed="15.71" duration="67.00" routeLength="396.49" waitingTime="0.00" waitingCount="0" stopTime="0.00" timeLoss="41.82" rerouteNo="0" devices="tripinfo_flow_route_92_duration_20250327_2140.14" vType="car" speedFactor="1.00" vaporized=""/>
    <tripinfo id="flow_route_93_duration_20250327_2140.6" depart="18.00" departLane="133000063_0" departPos="4.79" departSpeed="0.00" departDelay="4.16" arrival="156.00" arrivalLane="380585336_0" arrivalPos="393.99" arrivalSpeed="16.55" duration="138.00" routeLength="1244.49" waitingTime="33.00" waitingCount="1" stopTime="0.00" timeLoss="62.48" rerouteNo="0" devices="tripinfo_flow_route_93_duration_20250327_2140.6" vType="car" speedFactor="1.01" vaporized=""/>
    <tripinfo id="flow_route_93_duration_20250327_2140.10" depart="39.00" departLane="133000063_0" departPos="26.45" departSpeed="0.00" departDelay="15.93" arrival="156.00" arrivalLane="380585336_1" arrivalPos="89.48" arrivalSpeed="16.42" duration="117.00" routeLength="918.32" waitingTime="4.00" waitingCount="3" stopTime="0.00" timeLoss="61.52" rerouteNo="0" devices="tripinfo_flow_route_93_duration_20250327_2140.10" vType="car" speedFactor="1.01" vaporized=""/>
    <tripinfo id="flow_route_93_duration_20250327_2140.12" depart="52.00" departLane="133000063_0" departPos="70.94" departSpeed="0.00" departDelay="24.32" arrival="160.00" arrivalLane="380585336_1" arrivalPos="10.05" arrivalSpeed="16.13" duration="108.00" routeLength="794.40" waitingTime="3.00" waitingCount="2" stopTime="0.00" timeLoss="58.37" rerouteNo="0" devices="tripinfo_flow_route_93_duration_20250327_2140.12" vType="car" speedFactor="0.97" vaporized=""/>
    <tripinfo id="flow_route_93_duration_20250327_2140.7" depart="22.00" departLane="133000063_0" departPos="35.68" departSpeed="0.00" departDelay="5.85" arrival="166.00" arrivalLane="380585336_0" arrivalPos="270.36" arrivalSpeed="13.56" duration="144.00" routeLength="1089.97" waitingTime="17.00" waitingCount="1" stopTime="0.00" timeLoss="65.30" rerouteNo="0" devices="tripinfo_flow_route_93_duration_20250327_2140.7" vType="car" speedFactor="0.83" vaporized=""/>
    <tripinfo id="flow_route_93_duration_20250327_2140.11" depart="47.00" departLane="133000063_0" departPos="83.14" departSpeed="0.00" departDelay="21.62" arrival="166.00" arrivalLane="380585336_1" arrivalPos="175.78" arrivalSpeed="16.33" duration="119.00" routeLength="947.93" waitingTime="14.00" waitingCount="2" stopTime="0.00" timeLoss="61.15" rerouteNo="0" devices="tripinfo_flow_route_93_duration_20250327_2140.11" vType="car" speedFactor="1.02" vaporized=""/>
    <tripinfo id="flow_route_93_duration_20250327_2140.13" depart="56.00" departLane="133000063_0" departPos="35.74" departSpeed="0.00" departDelay="26.01" arrival="170.00" arrivalLane="380585336_1" arrivalPos="263.45" arrivalSpeed="16.46" duration="114.00" routeLength="1083.00" waitingTime="1.00" waitingCount="1" stopTime="0.00" timeLoss="47.82" rerouteNo="0" devices="tripinfo_flow_route_93_duration_20250327_2140.13" vType="car" speedFactor="1.10" vaporized=""/>
    <tripinfo id="flow_route_93_duration_20250327_2140.14" depart="62.00" departLane="133000063_0" departPos="22.30" departSpeed="0.00" departDelay="29.70" arrival="181.00" arrivalLane="380585336_1" arrivalPos="124.86" arrivalSpeed="16.15" duration="119.00" routeLength="957.84" waitingTime="0.00" waitingCount="0" stopTime="0.00" timeLoss="60.90" rerouteNo="0" devices="tripinfo_flow_route_93_duration_20250327_2140.14" vType="car" speedFactor="1.09" vaporized=""/>
    <tripinfo id="flow_route_92_duration_20250327_2140.17" depart="110.00" departLane="133000063_0" departPos="158.16" departSpeed="0.00" departDelay="56.33" arrival="183.00" arrivalLane="186409193_0" arrivalPos="28.48" arrivalSpeed="14.14" duration="73.00" routeLength="262.17" waitingTime="35.00" waitingCount="1" stopTime="0.00" timeLoss="54.51" rerouteNo="0" devices="tripinfo_flow_route_92_duration_20250327_2140.17" vType="car" speedFactor="0.88" vaporized=""/>
    <tripinfo id="flow_route_93_duration_20250327_2140.15" depart="68.00" departLane="133000063_0" departPos="55.26" departSpeed="0.00" departDelay="33.40" arrival="184.00" arrivalLane="380585336_1" arrivalPos="118.49" arrivalSpeed="16.42" duration="116.00" routeLength="918.52" waitingTime="0.00" waitingCount="0" stopTime="0.00" timeLoss="60.10" rerouteNo="0" devices="tripinfo_flow_route_93_duration_20250327_2140.15" vType="car" speedFactor="1.04" vaporized=""/>
    <tripinfo id="flow_route_93_duration_20250327_2140.18" depart="82.00" departLane="133000063_0" departPos="1.26" departSpeed="0.00" departDelay="40.47" arrival="184.00" arrivalLane="380585336_2" arrivalPos="286.88" arrivalSpeed="16.48" duration="102.00" routeLength="1140.91" waitingTime="0.00" waitingCount="0" stopTime="0.00" timeLoss="32.80" rerouteNo="0" devices="tripinfo_flow_route_93_duration_20250327_2140.18" vType="car" speedFactor="1.10" vaporized=""/>
    <tripinfo id="flow_route_93_duration_20250327_2140.19" depart="84.00" departLane="133000063_0" departPos="74.11" departSpeed="0.00" departDelay="40.17" arrival="185.00" arrivalLane="380585336_1" arrivalPos="43.35" arrivalSpeed="16.46" duration="101.00" routeLength="824.53" waitingTime="0.00" waitingCount="0" stopTime="0.00" timeLoss="50.38" rerouteNo="0" devices="tripinfo_flow_route_93_duration_20250327_2140.19" vType="car" speedFactor="1.00" vaporized=""/>
    <tripinfo id="flow_route_92_duration_20250327_2140.18" depart="113.00" departLane="133000063_0" departPos="93.81" departSpeed="0.00" departDelay="56.17" arrival="186.00" arrivalLane="186409193_0" arrivalPos="18.89" arrivalSpeed="13.97" duration="73.00" routeLength="316.94" waitingTime="21.00" waitingCount="2" stopTime="0.00" timeLoss="52.92" rerouteNo="0" devices="tripinfo_flow_route_92_duration_20250327_2140.18" vType="car" speedFactor="1.04" vaporized=""/>
    <tripinfo id="flow_route_93_duration_20250327_2140.16" depart="70.00" departLane="133000063_0" departPos="32.82" departSpeed="0.00" departDelay="33.09" arrival="190.00" arrivalLane="380585336_1" arrivalPos="156.58" arrivalSpeed="14.81" duration="120.00" routeLength="979.06" waitingTime="0.00" waitingCount="0" stopTime="0.00" timeLoss="54.87" rerouteNo="0" devices="tripinfo_flow_route_93_duration_20250327_2140.16" vType="car" speedFactor="0.90" vaporized=""/>
    <tripinfo id="flow_route_92_duration_20250327_2140.15" depart="99.00" departLane="133000063_0" departPos="59.72" departSpeed="0.00" departDelay="51.65" arrival="190.00" arrivalLane="186409193_0" arrivalPos="20.20" arrivalSpeed="13.69" duration="91.00" routeLength="352.34" waitingTime="28.00" waitingCount="2" stopTime="0.00" timeLoss="68.59" rerouteNo="0" devices="tripinfo_flow_route_92_duration_20250327_2140.15" vType="car" speedFactor="0.97" vaporized=""/>
    <tripinfo id="flow_route_93_duration_20250327_2140.8" depart="33.00" departLane="133000063_0" departPos="70.80" departSpeed="0.00" departDelay="14.54" arrival="192.00" arrivalLane="380585336_0" arrivalPos="391.07" arrivalSpeed="15.14" duration="159.00" routeLength="1175.55" waitingTime="19.00" waitingCount="1" stopTime="0.00" timeLoss="81.60" rerouteNo="0" devices="tripinfo_flow_route_93_duration_20250327_2140.8" vType="car" speedFactor="0.92" vaporized=""/>
    <tripinfo id="flow_route_92_duration_20250327_2140.16" depart="106.00" departLane="133000063_0" departPos="2.29" departSpeed="0.00" departDelay="55.49" arrival="192.00" arrivalLane="186409193_0" arrivalPos="0.68" arrivalSpeed="12.63" duration="86.00" routeLength="390.25" waitingTime="11.00" waitingCount="2" stopTime="0.00" timeLoss="62.03" rerouteNo="0" devices="tripinfo_flow_route_92_duration_20250327_2140.16" vType="car" speedFactor="1.02" vaporized=""/>