<?xml version="1.0" encoding="UTF-8"?>

<!-- generated on 2025-05-06 21:09:03 by Eclipse SUMO sumo Version 1.20.0
<configuration xmlns:xsi="http://www.w3.org/2001/XMLSchema-instance" xsi:noNamespaceSchemaLocation="http://sumo.dlr.de/xsd/sumoConfiguration.xsd">

    <input>
        <net-file value="osm.net.xml"/>
        <route-files value="xml/route_rl_cluster_11657899598_353811979_6712514804_8.rou.xml"/>
    </input>

    <output>
        <tripinfo-output value="xml/tripinfo_rl_cluster_11657899598_353811979_6712514804_8.xml"/>
    </output>

    <traci_server>
        <remote-port value="57783"/>
    </traci_server>

</configuration>
-->

<tripinfos xmlns:xsi="http://www.w3.org/2001/XMLSchema-instance" xsi:noNamespaceSchemaLocation="http://sumo.dlr.de/xsd/tripinfo_file.xsd">
    <tripinfo id="flow_route_136_duration_20250327_1950.0" depart="0.00" departLane="688883939#0_0" departPos="70.95" departSpeed="0.00" departDelay="0.00" arrival="22.00" arrivalLane="186410975#0_1" arrivalPos="11.74" arrivalSpeed="11.21" duration="22.00" routeLength="133.80" waitingTime="1.00" waitingCount="1" stopTime="0.00" timeLoss="11.77" rerouteNo="0" devices="tripinfo_flow_route_136_duration_20250327_1950.0" vType="car" speedFactor="1.01" vaporized=""/>
    <tripinfo id="flow_route_137_duration_20250327_1950.0" depart="0.00" departLane="1310781056_0" departPos="52.86" departSpeed="0.00" departDelay="0.00" arrival="22.00" arrivalLane="714011134#0_0" arrivalPos="51.79" arrivalSpeed="16.36" duration="22.00" routeLength="192.73" waitingTime="0.00" waitingCount="0" stopTime="0.00" timeLoss="9.90" rerouteNo="0" devices="tripinfo_flow_route_137_duration_20250327_1950.0" vType="car" speedFactor="1.08" vaporized=""/>
    <tripinfo id="flow_route_134_duration_20250327_1950.0" depart="0.00" departLane="688883939#0_0" departPos="78.56" departSpeed="0.00" departDelay="0.00" arrival="28.00" arrivalLane="809719540#0_0" arrivalPos="239.32" arrivalSpeed="16.14" duration="28.00" routeLength="300.42" waitingTime="0.00" waitingCount="0" stopTime="0.00" timeLoss="9.69" rerouteNo="0" devices="tripinfo_flow_route_134_duration_20250327_1950.0" vType="car" speedFactor="1.06" vaporized=""/>
    <tripinfo id="flow_route_139_duration_20250327_1950.0" depart="1.00" departLane="1310781056_0" departPos="36.51" departSpeed="0.00" departDelay="1.00" arrival="28.00" arrivalLane="1254157399#1_1" arrivalPos="26.95" arrivalSpeed="9.73" duration="27.00" routeLength="180.27" waitingTime="0.00" waitingCount="0" stopTime="0.00" timeLoss="13.77" rerouteNo="0" devices="tripinfo_flow_route_139_duration_20250327_1950.0" vType="car" speedFactor="0.83" vaporized=""/>
    <tripinfo id="flow_route_138_duration_20250327_1950.0" depart="1.00" departLane="1310781056_0" departPos="99.29" departSpeed="0.00" departDelay="1.00" arrival="35.00" arrivalLane="186410975#0_0" arrivalPos="152.27" arrivalSpeed="11.40" duration="34.00" routeLength="305.80" waitingTime="0.00" waitingCount="0" stopTime="0.00" timeLoss="11.04" rerouteNo="0" devices="tripinfo_flow_route_138_duration_20250327_1950.0" vType="car" speedFactor="1.03" vaporized=""/>
    <tripinfo id="flow_route_136_duration_20250327_1950.2" depart="20.00" departLane="688883939#0_0" departPos="87.04" departSpeed="0.00" departDelay="0.00" arrival="44.00" arrivalLane="186410975#0_1" arrivalPos="74.86" arrivalSpeed="10.72" duration="24.00" routeLength="180.85" waitingTime="0.00" waitingCount="0" stopTime="0.00" timeLoss="8.64" rerouteNo="0" devices="tripinfo_flow_route_136_duration_20250327_1950.2" vType="car" speedFactor="0.99" vaporized=""/>
    <tripinfo id="flow_route_135_duration_20250327_1950.0" depart="0.00" departLane="688883939#0_0" departPos="0.64" departSpeed="0.00" departDelay="0.00" arrival="45.00" arrivalLane="1254157399#1_0" arrivalPos="440.36" arrivalSpeed="16.54" duration="45.00" routeLength="573.44" waitingTime="0.00" waitingCount="0" stopTime="0.00" timeLoss="9.39" rerouteNo="0" devices="tripinfo_flow_route_135_duration_20250327_1950.0" vType="car" speedFactor="0.94" vaporized=""/>
    <tripinfo id="flow_route_139_duration_20250327_1950.2" depart="18.00" departLane="1310781056_0" departPos="81.86" departSpeed="0.00" departDelay="0.86" arrival="45.00" arrivalLane="1254157399#1_1" arrivalPos="111.66" arrivalSpeed="15.62" duration="27.00" routeLength="219.63" waitingTime="0.00" waitingCount="0" stopTime="0.00" timeLoss="12.02" rerouteNo="0" devices="tripinfo_flow_route_139_duration_20250327_1950.2" vType="car" speedFactor="1.01" vaporized=""/>
    <tripinfo id="flow_route_153_duration_20250327_1950.3" depart="13.00" departLane="31861355#0_0" departPos="596.90" departSpeed="0.00" departDelay="4.82" arrival="49.00" arrivalLane="809719540#0_0" arrivalPos="34.75" arrivalSpeed="8.55" duration="36.00" routeLength="68.96" waitingTime="16.00" waitingCount="1" stopTime="0.00" timeLoss="31.02" rerouteNo="0" devices="tripinfo_flow_route_153_duration_20250327_1950.3" vType="car" speedFactor="1.16" vaporized=""/>
    <tripinfo id="flow_route_153_duration_20250327_1950.1" depart="3.00" departLane="31861355#0_0" departPos="583.90" departSpeed="0.00" departDelay="0.27" arrival="52.00" arrivalLane="809719540#0_0" arrivalPos="82.48" arrivalSpeed="12.21" duration="49.00" routeLength="129.68" waitingTime="22.00" waitingCount="1" stopTime="0.00" timeLoss="39.96" rerouteNo="0" devices="tripinfo_flow_route_153_duration_20250327_1950.1" vType="car" speedFactor="1.03" vaporized=""/>
    <tripinfo id="flow_route_152_duration_20250327_1950.2" depart="7.00" departLane="31861355#0_0" departPos="475.38" departSpeed="0.00" departDelay="1.55" arrival="55.00" arrivalLane="714011134#0_1" arrivalPos="57.37" arrivalSpeed="12.17" duration="48.00" routeLength="242.87" waitingTime="9.00" waitingCount="1" stopTime="0.00" timeLoss="32.92" rerouteNo="0" devices="tripinfo_flow_route_152_duration_20250327_1950.2" vType="car" speedFactor="0.99" vaporized=""/>
    <tripinfo id="flow_route_135_duration_20250327_1950.1" depart="16.00" departLane="688883939#0_0" departPos="18.87" departSpeed="0.00" departDelay="1.00" arrival="55.00" arrivalLane="1254157399#1_0" arrivalPos="337.93" arrivalSpeed="16.29" duration="39.00" routeLength="452.78" waitingTime="0.00" waitingCount="0" stopTime="0.00" timeLoss="11.33" rerouteNo="0" devices="tripinfo_flow_route_135_duration_20250327_1950.1" vType="car" speedFactor="1.13" vaporized=""/>
    <tripinfo id="flow_route_152_duration_20250327_1950.1" depart="3.00" departLane="31861355#0_0" departPos="393.90" departSpeed="0.00" departDelay="0.27" arrival="56.00" arrivalLane="714011134#0_1" arrivalPos="54.06" arrivalSpeed="11.86" duration="53.00" routeLength="321.04" waitingTime="8.00" waitingCount="1" stopTime="0.00" timeLoss="33.65" rerouteNo="0" devices="tripinfo_flow_route_152_duration_20250327_1950.1" vType="car" speedFactor="1.09" vaporized=""/>
    <tripinfo id="flow_route_136_duration_20250327_1950.1" depart="12.00" departLane="688883939#0_0" departPos="98.58" departSpeed="0.00" departDelay="2.00" arrival="56.00" arrivalLane="186410975#0_0" arrivalPos="248.96" arrivalSpeed="10.92" duration="44.00" routeLength="343.40" waitingTime="1.00" waitingCount="1" stopTime="0.00" timeLoss="13.91" rerouteNo="0" devices="tripinfo_flow_route_136_duration_20250327_1950.1" vType="car" speedFactor="1.02" vaporized=""/>
    <tripinfo id="flow_route_152_duration_20250327_1950.3" depart="12.00" departLane="31861355#0_0" departPos="370.74" departSpeed="0.00" departDelay="3.82" arrival="57.00" arrivalLane="714011134#0_1" arrivalPos="34.92" arrivalSpeed="12.15" duration="45.00" routeLength="325.06" waitingTime="0.00" waitingCount="0" stopTime="0.00" timeLoss="23.47" rerouteNo="0" devices="tripinfo_flow_route_152_duration_20250327_1950.3" vType="car" speedFactor="0.94" vaporized=""/>
    <tripinfo id="flow_route_152_duration_20250327_1950.0" depart="0.00" departLane="31861355#0_0" departPos="164.48" departSpeed="0.00" departDelay="0.00" arrival="58.00" arrivalLane="714011134#0_1" arrivalPos="26.08" arrivalSpeed="11.72" duration="58.00" routeLength="522.49" waitingTime="0.00" waitingCount="0" stopTime="0.00" timeLoss="21.91" rerouteNo="0" devices="tripinfo_flow_route_152_duration_20250327_1950.0" vType="car" speedFactor="0.89" vaporized=""/>
    <tripinfo id="flow_route_139_duration_20250327_1950.1" depart="9.00" departLane="1310781056_0" departPos="46.65" departSpeed="0.00" departDelay="0.43" arrival="58.00" arrivalLane="1254157399#1_0" arrivalPos="423.41" arrivalSpeed="16.37" duration="49.00" routeLength="566.59" waitingTime="0.00" waitingCount="0" stopTime="0.00" timeLoss="12.88" rerouteNo="0" devices="tripinfo_flow_route_139_duration_20250327_1950.1" vType="car" speedFactor="0.94" vaporized=""/>
    <tripinfo id="flow_route_152_duration_20250327_1950.4" depart="13.00" departLane="31861355#0_0" departPos="306.29" departSpeed="0.00" departDelay="2.09" arrival="60.00" arrivalLane="714011134#0_1" arrivalPos="25.44" arrivalSpeed="11.87" duration="47.00" routeLength="380.03" waitingTime="0.00" waitingCount="0" stopTime="0.00" timeLoss="23.26" rerouteNo="0" devices="tripinfo_flow_route_152_duration_20250327_1950.4" vType="car" speedFactor="0.97" vaporized=""/>
    <tripinfo id="flow_route_152_duration_20250327_1950.10" depart="37.00" departLane="31861355#0_0" departPos="561.72" departSpeed="0.00" departDelay="9.73" arrival="62.00" arrivalLane="714011134#0_1" arrivalPos="29.64" arrivalSpeed="12.57" duration="25.00" routeLength="128.80" waitingTime="0.00" waitingCount="0" stopTime="0.00" timeLoss="15.89" rerouteNo="0" devices="tripinfo_flow_route_152_duration_20250327_1950.10" vType="car" speedFactor="0.88" vaporized=""/>
    <tripinfo id="flow_route_153_duration_20250327_1950.7" depart="25.00" departLane="31861355#0_0" departPos="543.36" departSpeed="0.00" departDelay="5.91" arrival="63.00" arrivalLane="809719540#0_0" arrivalPos="165.22" arrivalSpeed="16.52" duration="38.00" routeLength="252.97" waitingTime="1.00" waitingCount="1" stopTime="0.00" timeLoss="22.15" rerouteNo="0" devices="tripinfo_flow_route_153_duration_20250327_1950.7" vType="car" speedFactor="1.10" vaporized=""/>
    <tripinfo id="flow_route_152_duration_20250327_1950.6" depart="17.00" departLane="31861355#0_0" departPos="352.66" departSpeed="0.00" departDelay="0.64" arrival="64.00" arrivalLane="714011134#0_1" arrivalPos="33.08" arrivalSpeed="13.56" duration="47.00" routeLength="341.30" waitingTime="0.00" waitingCount="0" stopTime="0.00" timeLoss="26.17" rerouteNo="0" devices="tripinfo_flow_route_152_duration_20250327_1950.6" vType="car" speedFactor="1.18" vaporized=""/>
    <tripinfo id="flow_route_152_duration_20250327_1950.7" depart="25.00" departLane="31861355#0_0" departPos="283.41" departSpeed="0.00" departDelay="5.91" arrival="71.00" arrivalLane="714011134#0_1" arrivalPos="44.60" arrivalSpeed="14.40" duration="46.00" routeLength="422.08" waitingTime="0.00" waitingCount="0" stopTime="0.00" timeLoss="19.78" rerouteNo="0" devices="tripinfo_flow_route_152_duration_20250327_1950.7" vType="car" speedFactor="1.18" vaporized=""/>
    <tripinfo id="flow_route_151_duration_20250327_1950.2" depart="4.00" departLane="31861355#0_0" departPos="551.93" departSpeed="0.00" departDelay="0.00" arrival="72.00" arrivalLane="186410975#0_0" arrivalPos="212.76" arrivalSpeed="11.42" duration="68.00" routeLength="388.04" waitingTime="17.00" waitingCount="1" stopTime="0.00" timeLoss="38.90" rerouteNo="0" devices="tripinfo_flow_route_151_duration_20250327_1950.2" vType="car" speedFactor="1.05" vaporized=""/>
    <tripinfo id="flow_route_153_duration_20250327_1950.0" depart="0.00" departLane="31861355#0_0" departPos="37.47" departSpeed="0.00" departDelay="0.00" arrival="73.00" arrivalLane="809719540#0_0" arrivalPos="146.46" arrivalSpeed="15.15" duration="73.00" routeLength="740.10" waitingTime="0.00" waitingCount="0" stopTime="0.00" timeLoss="24.31" rerouteNo="0" devices="tripinfo_flow_route_153_duration_20250327_1950.0" vType="car" speedFactor="0.94" vaporized=""/>
    <tripinfo id="flow_route_152_duration_20250327_1950.9" depart="34.00" departLane="31861355#0_0" departPos="368.54" departSpeed="0.00" departDelay="9.46" arrival="73.00" arrivalLane="714011134#0_1" arrivalPos="51.92" arrivalSpeed="15.78" duration="39.00" routeLength="344.27" waitingTime="0.00" waitingCount="0" stopTime="0.00" timeLoss="17.44" rerouteNo="0" devices="tripinfo_flow_route_152_duration_20250327_1950.9" vType="car" speedFactor="1.04" vaporized=""/>
    <tripinfo id="flow_route_151_duration_20250327_1950.0" depart="0.00" departLane="31861355#0_0" departPos="352.12" departSpeed="0.00" departDelay="0.00" arrival="74.00" arrivalLane="186410975#0_0" arrivalPos="191.84" arrivalSpeed="11.20" duration="74.00" routeLength="566.94" waitingTime="9.00" waitingCount="1" stopTime="0.00" timeLoss="34.08" rerouteNo="0" devices="tripinfo_flow_route_151_duration_20250327_1950.0" vType="car" speedFactor="1.05" vaporized=""/>
    <tripinfo id="flow_route_151_duration_20250327_1950.15" depart="39.00" departLane="31861355#0_0" departPos="409.54" departSpeed="0.00" departDelay="9.00" arrival="74.00" arrivalLane="186410975#0_0" arrivalPos="10.99" arrivalSpeed="9.82" duration="35.00" routeLength="328.66" waitingTime="0.00" waitingCount="0" stopTime="0.00" timeLoss="14.15" rerouteNo="0" devices="tripinfo_flow_route_151_duration_20250327_1950.15" vType="car" speedFactor="1.02" vaporized=""/>
    <tripinfo id="flow_route_151_duration_20250327_1950.5" depart="13.00" departLane="31861355#0_0" departPos="191.38" departSpeed="0.00" departDelay="3.00" arrival="75.00" arrivalLane="186410975#0_1" arrivalPos="68.16" arrivalSpeed="10.74" duration="62.00" routeLength="603.99" waitingTime="0.00" waitingCount="0" stopTime="0.00" timeLoss="22.94" rerouteNo="0" devices="tripinfo_flow_route_151_duration_20250327_1950.5" vType="car" speedFactor="1.01" vaporized=""/>
    <tripinfo id="flow_route_153_duration_20250327_1950.4" depart="13.00" departLane="31861355#0_0" departPos="360.69" departSpeed="0.00" departDelay="2.09" arrival="76.00" arrivalLane="809719540#0_0" arrivalPos="218.02" arrivalSpeed="14.41" duration="63.00" routeLength="488.44" waitingTime="0.00" waitingCount="0" stopTime="0.00" timeLoss="27.93" rerouteNo="0" devices="tripinfo_flow_route_153_duration_20250327_1950.4" vType="car" speedFactor="0.89" vaporized=""/>
    <tripinfo id="flow_route_153_duration_20250327_1950.6" depart="20.00" departLane="31861355#0_0" departPos="242.35" departSpeed="0.00" departDelay="3.64" arrival="78.00" arrivalLane="809719540#0_0" arrivalPos="91.06" arrivalSpeed="12.60" duration="58.00" routeLength="479.82" waitingTime="0.00" waitingCount="0" stopTime="0.00" timeLoss="28.50" rerouteNo="0" devices="tripinfo_flow_route_153_duration_20250327_1950.6" vType="car" speedFactor="1.15" vaporized=""/>
    <tripinfo id="flow_route_151_duration_20250327_1950.10" depart="25.00" departLane="31861355#0_0" departPos="441.95" departSpeed="0.00" departDelay="5.00" arrival="78.00" arrivalLane="186410975#0_1" arrivalPos="175.17" arrivalSpeed="10.57" duration="53.00" routeLength="460.43" waitingTime="0.00" waitingCount="0" stopTime="0.00" timeLoss="18.98" rerouteNo="0" devices="tripinfo_flow_route_151_duration_20250327_1950.10" vType="car" speedFactor="0.97" vaporized=""/>
    <tripinfo id="flow_route_153_duration_20250327_1950.9" depart="34.00" departLane="31861355#0_0" departPos="356.51" departSpeed="0.00" departDelay="9.46" arrival="79.00" arrivalLane="809719540#0_0" arrivalPos="114.18" arrivalSpeed="14.00" duration="45.00" routeLength="388.79" waitingTime="0.00" waitingCount="0" stopTime="0.00" timeLoss="19.53" rerouteNo="0" devices="tripinfo_flow_route_153_duration_20250327_1950.9" vType="car" speedFactor="1.04" vaporized=""/>
    <tripinfo id="flow_route_151_duration_20250327_1950.14" depart="34.00" departLane="31861355#0_0" departPos="532.62" departSpeed="0.00" departDelay="6.00" arrival="80.00" arrivalLane="186410975#0_0" arrivalPos="201.58" arrivalSpeed="9.87" duration="46.00" routeLength="396.18" waitingTime="0.00" waitingCount="0" stopTime="0.00" timeLoss="13.21" rerouteNo="0" devices="tripinfo_flow_route_151_duration_20250327_1950.14" vType="car" speedFactor="0.90" vaporized=""/>
    <tripinfo id="flow_route_151_duration_20250327_1950.9" depart="21.00" departLane="31861355#0_0" departPos="259.40" departSpeed="0.00" departDelay="3.00" arrival="81.00" arrivalLane="186410975#0_0" arrivalPos="12.09" arrivalSpeed="13.02" duration="60.00" routeLength="479.90" waitingTime="0.00" waitingCount="0" stopTime="0.00" timeLoss="30.07" rerouteNo="0" devices="tripinfo_flow_route_151_duration_20250327_1950.9" vType="car" speedFactor="1.17" vaporized=""/>
    <tripinfo id="flow_route_151_duration_20250327_1950.3" depart="6.00" departLane="31861355#0_0" departPos="20.16" departSpeed="0.00" departDelay="0.00" arrival="87.00" arrivalLane="186410975#0_1" arrivalPos="102.36" arrivalSpeed="12.33" duration="81.00" routeLength="809.41" waitingTime="0.00" waitingCount="0" stopTime="0.00" timeLoss="29.52" rerouteNo="0" devices="tripinfo_flow_route_151_duration_20250327_1950.3" vType="car" speedFactor="1.12" vaporized=""/>
    <tripinfo id="flow_route_151_duration_20250327_1950.1" depart="2.00" departLane="31861355#0_0" departPos="28.73" departSpeed="0.00" departDelay="0.00" arrival="89.00" arrivalLane="186410975#0_1" arrivalPos="176.45" arrivalSpeed="9.06" duration="87.00" routeLength="874.93" waitingTime="0.00" waitingCount="0" stopTime="0.00" timeLoss="20.18" rerouteNo="0" devices="tripinfo_flow_route_151_duration_20250327_1950.1" vType="car" speedFactor="0.86" vaporized=""/>
    <tripinfo id="flow_route_136_duration_20250327_1950.4" depart="40.00" departLane="688883939#0_0" departPos="89.75" departSpeed="0.00" departDelay="0.00" arrival="92.00" arrivalLane="186410975#0_1" arrivalPos="3.01" arrivalSpeed="10.06" duration="52.00" routeLength="106.28" waitingTime="31.00" waitingCount="1" stopTime="0.00" timeLoss="43.25" rerouteNo="0" devices="tripinfo_flow_route_136_duration_20250327_1950.4" vType="car" speedFactor="0.91" vaporized=""/>
    <tripinfo id="flow_route_138_duration_20250327_1950.1" depart="20.00" departLane="1310781056_0" departPos="66.34" departSpeed="0.00" departDelay="0.00" arrival="96.00" arrivalLane="186410975#0_0" arrivalPos="54.81" arrivalSpeed="11.08" duration="76.00" routeLength="241.29" waitingTime="38.00" waitingCount="1" stopTime="0.00" timeLoss="58.91" rerouteNo="0" devices="tripinfo_flow_route_138_duration_20250327_1950.1" vType="car" speedFactor="1.02" vaporized=""/>
    <tripinfo id="flow_route_151_duration_20250327_1950.11" depart="25.00" departLane="31861355#0_0" departPos="356.70" departSpeed="0.00" departDelay="3.00" arrival="97.00" arrivalLane="186410975#0_0" arrivalPos="252.13" arrivalSpeed="9.65" duration="72.00" routeLength="622.63" waitingTime="0.00" waitingCount="0" stopTime="0.00" timeLoss="21.83" rerouteNo="0" devices="tripinfo_flow_route_151_duration_20250327_1950.11" vType="car" speedFactor="0.90" vaporized=""/>
    <tripinfo id="flow_route_139_duration_20250327_1950.3" depart="27.00" departLane="1310781056_0" departPos="75.05" departSpeed="0.00" departDelay="1.29" arrival="98.00" arrivalLane="1254157399#1_1" arrivalPos="183.14" arrivalSpeed="16.31" duration="71.00" routeLength="297.92" waitingTime="30.00" waitingCount="1" stopTime="0.00" timeLoss="51.87" rerouteNo="0" devices="tripinfo_flow_route_139_duration_20250327_1950.3" vType="car" speedFactor="1.09" vaporized=""/>
    <tripinfo id="flow_route_136_duration_20250327_1950.3" depart="31.00" departLane="688883939#0_0" departPos="36.33" departSpeed="0.00" departDelay="1.00" arrival="99.00" arrivalLane="186410975#0_1" arrivalPos="123.90" arrivalSpeed="12.62" duration="68.00" routeLength="280.59" waitingTime="28.00" waitingCount="1" stopTime="0.00" timeLoss="47.44" rerouteNo="0" devices="tripinfo_flow_route_136_duration_20250327_1950.3" vType="car" speedFactor="1.17" vaporized=""/>
    <tripinfo id="flow_route_135_duration_20250327_1950.2" depart="31.00" departLane="688883939#0_0" departPos="95.35" departSpeed="0.00" departDelay="1.00" arrival="100.00" arrivalLane="1254157399#1_0" arrivalPos="229.67" arrivalSpeed="16.52" duration="69.00" routeLength="268.04" waitingTime="37.00" waitingCount="1" stopTime="0.00" timeLoss="51.92" rerouteNo="0" devices="tripinfo_flow_route_135_duration_20250327_1950.2" vType="car" speedFactor="0.85" vaporized=""/>
    <tripinfo id="flow_route_151_duration_20250327_1950.4" depart="10.00" departLane="31861355#0_0" departPos="138.75" departSpeed="0.00" departDelay="2.00" arrival="101.00" arrivalLane="186410975#0_0" arrivalPos="246.91" arrivalSpeed="9.36" duration="91.00" routeLength="835.37" waitingTime="0.00" waitingCount="0" stopTime="0.00" timeLoss="25.91" rerouteNo="0" devices="tripinfo_flow_route_151_duration_20250327_1950.4" vType="car" speedFactor="0.88" vaporized=""/>
    <tripinfo id="flow_route_138_duration_20250327_1950.2" depart="40.00" departLane="1310781056_0" departPos="92.91" departSpeed="0.00" departDelay="0.00" arrival="105.00" arrivalLane="186410975#0_0" arrivalPos="125.55" arrivalSpeed="10.04" duration="65.00" routeLength="285.45" waitingTime="20.00" waitingCount="1" stopTime="0.00" timeLoss="42.08" rerouteNo="0" devices="tripinfo_flow_route_138_duration_20250327_1950.2" vType="car" speedFactor="0.91" vaporized=""/>
    <tripinfo id="flow_route_151_duration_20250327_1950.7" depart="14.00" departLane="31861355#0_0" departPos="94.41" departSpeed="0.00" departDelay="0.00" arrival="106.00" arrivalLane="186410975#0_0" arrivalPos="246.47" arrivalSpeed="9.45" duration="92.00" routeLength="879.27" waitingTime="0.00" waitingCount="0" stopTime="0.00" timeLoss="22.83" rerouteNo="0" devices="tripinfo_flow_route_151_duration_20250327_1950.7" vType="car" speedFactor="0.87" vaporized=""/>
    <tripinfo id="flow_route_139_duration_20250327_1950.5" depart="43.00" departLane="1310781056_0" departPos="37.74" departSpeed="0.00" departDelay="0.15" arrival="108.00" arrivalLane="1254157399#1_0" arrivalPos="286.09" arrivalSpeed="16.49" duration="65.00" routeLength="438.17" waitingTime="13.00" waitingCount="1" stopTime="0.00" timeLoss="36.43" rerouteNo="0" devices="tripinfo_flow_route_139_duration_20250327_1950.5" vType="car" speedFactor="0.94" vaporized=""/>
    <tripinfo id="flow_route_136_duration_20250327_1950.5" depart="50.00" departLane="688883939#0_0" departPos="23.26" departSpeed="0.00" departDelay="0.00" arrival="114.00" arrivalLane="186410975#0_1" arrivalPos="219.59" arrivalSpeed="10.98" duration="64.00" routeLength="389.35" waitingTime="5.00" waitingCount="1" stopTime="0.00" timeLoss="32.16" rerouteNo="0" devices="tripinfo_flow_route_136_duration_20250327_1950.5" vType="car" speedFactor="1.00" vaporized=""/>
    <tripinfo id="flow_route_139_duration_20250327_1950.6" depart="52.00" departLane="1310781056_0" departPos="84.04" departSpeed="0.00" departDelay="0.57" arrival="114.00" arrivalLane="1254157399#1_0" arrivalPos="351.42" arrivalSpeed="16.30" duration="62.00" routeLength="457.21" waitingTime="11.00" waitingCount="1" stopTime="0.00" timeLoss="33.13" rerouteNo="0" devices="tripinfo_flow_route_139_duration_20250327_1950.6" vType="car" speedFactor="0.98" vaporized=""/>
    <tripinfo id="flow_route_135_duration_20250327_1950.3" depart="45.00" departLane="688883939#0_0" departPos="38.64" departSpeed="0.00" departDelay="0.00" arrival="115.00" arrivalLane="1254157399#1_0" arrivalPos="446.94" arrivalSpeed="16.55" duration="70.00" routeLength="542.02" waitingTime="17.00" waitingCount="1" stopTime="0.00" timeLoss="36.99" rerouteNo="0" devices="tripinfo_flow_route_135_duration_20250327_1950.3" vType="car" speedFactor="1.03" vaporized=""/>
    <tripinfo id="flow_route_139_duration_20250327_1950.4" depart="35.00" departLane="1310781056_0" departPos="62.28" departSpeed="0.00" departDelay="0.72" arrival="120.00" arrivalLane="1254157399#1_1" arrivalPos="507.48" arrivalSpeed="16.38" duration="85.00" routeLength="635.03" waitingTime="24.00" waitingCount="1" stopTime="0.00" timeLoss="44.66" rerouteNo="0" devices="tripinfo_flow_route_139_duration_20250327_1950.4" vType="car" speedFactor="0.97" vaporized=""/>
    <tripinfo id="flow_route_152_duration_20250327_1950.5" depart="14.00" departLane="31861355#0_0" departPos="17.31" departSpeed="0.00" departDelay="0.37" arrival="124.00" arrivalLane="714011134#0_1" arrivalPos="19.32" arrivalSpeed="9.79" duration="110.00" routeLength="662.89" waitingTime="36.00" waitingCount="1" stopTime="0.00" timeLoss="66.09" rerouteNo="0" devices="tripinfo_flow_route_152_duration_20250327_1950.5" vType="car" speedFactor="0.92" vaporized=""/>
    <tripinfo id="flow_route_153_duration_20250327_1950.2" depart="7.00" departLane="31861355#0_0" departPos="98.93" departSpeed="0.00" departDelay="1.55" arrival="128.00" arrivalLane="809719540#0_0" arrivalPos="63.58" arrivalSpeed="11.47" duration="121.00" routeLength="595.76" waitingTime="37.00" waitingCount="1" stopTime="0.00" timeLoss="80.38" rerouteNo="0" devices="tripinfo_flow_route_153_duration_20250327_1950.2" vType="car" speedFactor="0.93" vaporized=""/>
    <tripinfo id="flow_route_152_duration_20250327_1950.8" depart="27.00" departLane="31861355#0_0" departPos="63.13" departSpeed="0.00" departDelay="5.18" arrival="128.00" arrivalLane="714011134#0_1" arrivalPos="2.51" arrivalSpeed="9.86" duration="101.00" routeLength="600.26" waitingTime="35.00" waitingCount="1" stopTime="0.00" timeLoss="64.59" rerouteNo="0" devices="tripinfo_flow_route_152_duration_20250327_1950.8" vType="car" speedFactor="1.03" vaporized=""/>
    <tripinfo id="flow_route_152_duration_20250327_1950.11" depart="40.00" departLane="31861355#0_0" departPos="256.10" departSpeed="0.00" departDelay="10.00" arrival="130.00" arrivalLane="714011134#0_1" arrivalPos="41.17" arrivalSpeed="12.64" duration="90.00" routeLength="445.95" waitingTime="36.00" waitingCount="1" stopTime="0.00" timeLoss="62.38" rerouteNo="0" devices="tripinfo_flow_route_152_duration_20250327_1950.11" vType="car" speedFactor="1.10" vaporized=""/>
    <tripinfo id="flow_route_151_duration_20250327_1950.8" depart="17.00" departLane="31861355#0_0" departPos="53.49" departSpeed="0.00" departDelay="1.00" arrival="132.00" arrivalLane="186410975#0_0" arrivalPos="17.29" arrivalSpeed="10.34" duration="115.00" routeLength="691.01" waitingTime="36.00" waitingCount="1" stopTime="0.00" timeLoss="69.32" rerouteNo="0" devices="tripinfo_flow_route_151_duration_20250327_1950.8" vType="car" speedFactor="0.93" vaporized=""/>
    <tripinfo id="flow_route_153_duration_20250327_1950.5" depart="14.00" departLane="31861355#0_0" departPos="173.39" departSpeed="0.00" departDelay="0.37" arrival="133.00" arrivalLane="809719540#0_0" arrivalPos="172.34" arrivalSpeed="15.40" duration="119.00" routeLength="630.07" waitingTime="38.00" waitingCount="1" stopTime="0.00" timeLoss="77.61" rerouteNo="0" devices="tripinfo_flow_route_153_duration_20250327_1950.5" vType="car" speedFactor="0.95" vaporized=""/>
    <tripinfo id="flow_route_152_duration_20250327_1950.14" depart="56.00" departLane="31861355#0_0" departPos="375.91" departSpeed="0.00" departDelay="17.82" arrival="134.00" arrivalLane="714011134#0_1" arrivalPos="49.56" arrivalSpeed="12.97" duration="78.00" routeLength="334.53" waitingTime="33.00" waitingCount="1" stopTime="0.00" timeLoss="56.41" rerouteNo="0" devices="tripinfo_flow_route_152_duration_20250327_1950.14" vType="car" speedFactor="0.94" vaporized=""/>
    <tripinfo id="flow_route_151_duration_20250327_1950.18" depart="52.00" departLane="31861355#0_0" departPos="354.17" departSpeed="0.00" departDelay="16.00" arrival="140.00" arrivalLane="186410975#0_0" arrivalPos="3.77" arrivalSpeed="11.74" duration="88.00" routeLength="376.81" waitingTime="29.00" waitingCount="1" stopTime="0.00" timeLoss="64.10" rerouteNo="0" devices="tripinfo_flow_route_151_duration_20250327_1950.18" vType="car" speedFactor="1.08" vaporized=""/>
    <tripinfo id="flow_route_153_duration_20250327_1950.16" depart="65.00" departLane="31861355#0_0" departPos="473.20" departSpeed="0.00" departDelay="21.37" arrival="140.00" arrivalLane="809719540#0_0" arrivalPos="119.94" arrivalSpeed="14.16" duration="75.00" routeLength="277.84" waitingTime="30.00" waitingCount="1" stopTime="0.00" timeLoss="56.47" rerouteNo="0" devices="tripinfo_flow_route_153_duration_20250327_1950.16" vType="car" speedFactor="0.98" vaporized=""/>
    <tripinfo id="flow_route_153_duration_20250327_1950.8" depart="28.00" departLane="31861355#0_0" departPos="77.29" departSpeed="0.00" departDelay="6.18" arrival="142.00" arrivalLane="809719540#0_0" arrivalPos="81.32" arrivalSpeed="12.06" duration="114.00" routeLength="635.14" waitingTime="29.00" waitingCount="1" stopTime="0.00" timeLoss="72.76" rerouteNo="0" devices="tripinfo_flow_route_153_duration_20250327_1950.8" vType="car" speedFactor="0.96" vaporized=""/>
    <tripinfo id="flow_route_152_duration_20250327_1950.12" depart="47.00" departLane="31861355#0_0" departPos="60.75" departSpeed="0.00" departDelay="14.28" arrival="145.00" arrivalLane="714011134#0_1" arrivalPos="62.08" arrivalSpeed="14.92" duration="98.00" routeLength="662.21" waitingTime="27.00" waitingCount="1" stopTime="0.00" timeLoss="53.23" rerouteNo="0" devices="tripinfo_flow_route_152_duration_20250327_1950.12" vType="car" speedFactor="0.90" vaporized=""/>
    <tripinfo id="flow_route_151_duration_20250327_1950.25" depart="71.00" departLane="31861355#0_0" departPos="571.00" departSpeed="0.00" departDelay="21.00" arrival="145.00" arrivalLane="186410975#0_1" arrivalPos="120.23" arrivalSpeed="10.97" duration="74.00" routeLength="276.45" waitingTime="33.00" waitingCount="1" stopTime="0.00" timeLoss="53.42" rerouteNo="0" devices="tripinfo_flow_route_151_duration_20250327_1950.25" vType="car" speedFactor="1.02" vaporized=""/>