<?xml version="1.0" encoding="UTF-8"?>

<!-- generated on 2025-05-06 21:07:44 by Eclipse SUMO sumo Version 1.20.0
<configuration xmlns:xsi="http://www.w3.org/2001/XMLSchema-instance" xsi:noNamespaceSchemaLocation="http://sumo.dlr.de/xsd/sumoConfiguration.xsd">

    <input>
        <net-file value="osm.net.xml"/>
        <route-files value="xml/route_static_cluster10852700972_12154751993_0.rou.xml"/>
    </input>

    <output>
        <tripinfo-output value="xml/tripinfo_static_cluster10852700972_12154751993_0.xml"/>
    </output>

    <traci_server>
        <remote-port value="52751"/>
    </traci_server>

</configuration>
-->

<tripinfos xmlns:xsi="http://www.w3.org/2001/XMLSchema-instance" xsi:noNamespaceSchemaLocation="http://sumo.dlr.de/xsd/tripinfo_file.xsd">
    <tripinfo id="flow_route_61_duration_20250327_2120.0" depart="0.00" departLane="186407684#0_0" departPos="65.67" departSpeed="0.00" departDelay="0.00" arrival="24.00" arrivalLane="1341093416#0_1" arrivalPos="161.76" arrivalSpeed="16.42" duration="24.00" routeLength="210.27" waitingTime="0.00" waitingCount="0" stopTime="0.00" timeLoss="10.03" rerouteNo="0" devices="tripinfo_flow_route_61_duration_20250327_2120.0" vType="car" speedFactor="1.03" vaporized=""/>
    <tripinfo id="flow_route_60_duration_20250327_2120.0" depart="0.00" departLane="186407684#0_0" departPos="48.06" departSpeed="0.00" departDelay="0.00" arrival="25.00" arrivalLane="791826085_0" arrivalPos="160.28" arrivalSpeed="16.17" duration="25.00" routeLength="221.15" waitingTime="0.00" waitingCount="0" stopTime="0.00" timeLoss="10.89" rerouteNo="0" devices="tripinfo_flow_route_60_duration_20250327_2120.0" vType="car" speedFactor="1.08" vaporized=""/>
    <tripinfo id="flow_route_61_duration_20250327_2120.1" depart="12.00" departLane="186407684#0_0" departPos="23.31" departSpeed="0.00" departDelay="0.00" arrival="36.00" arrivalLane="1341093416#0_1" arrivalPos="127.82" arrivalSpeed="16.28" duration="24.00" routeLength="218.69" waitingTime="0.00" waitingCount="0" stopTime="0.00" timeLoss="9.59" rerouteNo="0" devices="tripinfo_flow_route_61_duration_20250327_2120.1" vType="car" speedFactor="0.89" vaporized=""/>
    <tripinfo id="flow_route_60_duration_20250327_2120.1" depart="12.00" departLane="186407684#0_0" departPos="49.91" departSpeed="0.00" departDelay="0.00" arrival="39.00" arrivalLane="791826085_0" arrivalPos="219.49" arrivalSpeed="16.21" duration="27.00" routeLength="278.51" waitingTime="0.00" waitingCount="0" stopTime="0.00" timeLoss="10.00" rerouteNo="0" devices="tripinfo_flow_route_60_duration_20250327_2120.1" vType="car" speedFactor="1.05" vaporized=""/>
    <tripinfo id="flow_route_56_duration_20250327_2120.0" depart="0.00" departLane="1341093415#0_0" departPos="44.11" departSpeed="0.00" departDelay="0.00" arrival="40.00" arrivalLane="409155823_0" arrivalPos="4.00" arrivalSpeed="6.75" duration="40.00" routeLength="164.73" waitingTime="11.00" waitingCount="1" stopTime="0.00" timeLoss="29.12" rerouteNo="0" devices="tripinfo_flow_route_56_duration_20250327_2120.0" vType="car" speedFactor="1.01" vaporized=""/>
    <tripinfo id="flow_route_56_duration_20250327_2120.1" depart="13.00" departLane="1341093415#0_0" departPos="10.74" departSpeed="0.00" departDelay="1.00" arrival="42.00" arrivalLane="409155823_0" arrivalPos="0.53" arrivalSpeed="7.18" duration="29.00" routeLength="194.63" waitingTime="0.00" waitingCount="0" stopTime="0.00" timeLoss="15.29" rerouteNo="0" devices="tripinfo_flow_route_56_duration_20250327_2120.1" vType="car" speedFactor="0.83" vaporized=""/>
    <tripinfo id="flow_route_61_duration_20250327_2120.2" depart="24.00" departLane="186407684#0_0" departPos="82.76" departSpeed="0.00" departDelay="0.00" arrival="45.00" arrivalLane="1341093416#0_1" arrivalPos="140.65" arrivalSpeed="15.46" duration="21.00" routeLength="172.07" waitingTime="0.00" waitingCount="0" stopTime="0.00" timeLoss="9.71" rerouteNo="0" devices="tripinfo_flow_route_61_duration_20250327_2120.2" vType="car" speedFactor="1.03" vaporized=""/>
    <tripinfo id="flow_route_56_duration_20250327_2120.2" depart="24.00" departLane="1341093415#0_0" departPos="54.73" departSpeed="0.00" departDelay="0.00" arrival="51.00" arrivalLane="409155823_0" arrivalPos="60.18" arrivalSpeed="12.37" duration="27.00" routeLength="210.29" waitingTime="0.00" waitingCount="0" stopTime="0.00" timeLoss="12.22" rerouteNo="0" devices="tripinfo_flow_route_56_duration_20250327_2120.2" vType="car" speedFactor="0.86" vaporized=""/>
    <tripinfo id="flow_route_55_duration_20250327_2120.0" depart="0.00" departLane="1341093415#0_0" departPos="132.48" departSpeed="0.00" departDelay="0.00" arrival="56.00" arrivalLane="791826085_0" arrivalPos="232.37" arrivalSpeed="15.35" duration="56.00" routeLength="289.60" waitingTime="17.00" waitingCount="1" stopTime="0.00" timeLoss="36.42" rerouteNo="0" devices="tripinfo_flow_route_55_duration_20250327_2120.0" vType="car" speedFactor="0.94" vaporized=""/>
    <tripinfo id="flow_route_54_duration_20250327_2120.0" depart="0.00" departLane="1341093415#0_0" departPos="7.77" departSpeed="0.00" departDelay="0.00" arrival="58.00" arrivalLane="1341093416#0_0" arrivalPos="244.31" arrivalSpeed="16.11" duration="58.00" routeLength="443.35" waitingTime="6.00" waitingCount="1" stopTime="0.00" timeLoss="30.65" rerouteNo="0" devices="tripinfo_flow_route_54_duration_20250327_2120.0" vType="car" speedFactor="1.06" vaporized=""/>
    <tripinfo id="flow_route_56_duration_20250327_2120.3" depart="36.00" departLane="1341093415#0_0" departPos="97.02" departSpeed="0.00" departDelay="0.00" arrival="58.00" arrivalLane="409155823_0" arrivalPos="72.56" arrivalSpeed="14.97" duration="22.00" routeLength="180.39" waitingTime="0.00" waitingCount="0" stopTime="0.00" timeLoss="9.98" rerouteNo="0" devices="tripinfo_flow_route_56_duration_20250327_2120.3" vType="car" speedFactor="1.05" vaporized=""/>
    <tripinfo id="flow_route_55_duration_20250327_2120.1" depart="20.00" departLane="1341093415#0_0" departPos="57.39" departSpeed="0.00" departDelay="0.00" arrival="61.00" arrivalLane="791826085_0" arrivalPos="285.55" arrivalSpeed="15.19" duration="41.00" routeLength="417.88" waitingTime="0.00" waitingCount="0" stopTime="0.00" timeLoss="14.16" rerouteNo="0" devices="tripinfo_flow_route_55_duration_20250327_2120.1" vType="car" speedFactor="0.94" vaporized=""/>
    <tripinfo id="flow_route_55_duration_20250327_2120.2" depart="40.00" departLane="1341093415#0_0" departPos="136.26" departSpeed="0.00" departDelay="0.00" arrival="61.00" arrivalLane="791826085_0" arrivalPos="98.41" arrivalSpeed="13.95" duration="21.00" routeLength="151.86" waitingTime="0.00" waitingCount="0" stopTime="0.00" timeLoss="10.70" rerouteNo="0" devices="tripinfo_flow_route_55_duration_20250327_2120.2" vType="car" speedFactor="0.93" vaporized=""/>
    <tripinfo id="flow_route_56_duration_20250327_2120.4" depart="48.00" departLane="1341093415#0_0" departPos="122.11" departSpeed="0.00" departDelay="0.00" arrival="64.00" arrivalLane="409155823_0" arrivalPos="14.01" arrivalSpeed="9.84" duration="16.00" routeLength="96.74" waitingTime="0.00" waitingCount="0" stopTime="0.00" timeLoss="8.75" rerouteNo="0" devices="tripinfo_flow_route_56_duration_20250327_2120.4" vType="car" speedFactor="0.88" vaporized=""/>
    <tripinfo id="flow_route_60_duration_20250327_2120.2" depart="24.00" departLane="186407684#0_0" departPos="55.83" departSpeed="0.00" departDelay="0.00" arrival="74.00" arrivalLane="791826085_1" arrivalPos="15.07" arrivalSpeed="7.18" duration="50.00" routeLength="68.17" waitingTime="30.00" waitingCount="1" stopTime="0.00" timeLoss="45.82" rerouteNo="0" devices="tripinfo_flow_route_60_duration_20250327_2120.2" vType="car" speedFactor="1.09" vaporized=""/>
    <tripinfo id="flow_route_61_duration_20250327_2120.4" depart="48.00" departLane="186407684#0_0" departPos="11.40" departSpeed="0.00" departDelay="0.00" arrival="77.00" arrivalLane="1341093416#0_1" arrivalPos="8.18" arrivalSpeed="7.50" duration="29.00" routeLength="110.96" waitingTime="4.00" waitingCount="1" stopTime="0.00" timeLoss="21.05" rerouteNo="0" devices="tripinfo_flow_route_61_duration_20250327_2120.4" vType="car" speedFactor="0.94" vaporized=""/>
    <tripinfo id="flow_route_61_duration_20250327_2120.3" depart="36.00" departLane="186407684#0_0" departPos="2.86" departSpeed="0.00" departDelay="0.00" arrival="83.00" arrivalLane="1341093416#0_2" arrivalPos="108.74" arrivalSpeed="13.86" duration="47.00" routeLength="215.90" waitingTime="13.00" waitingCount="1" stopTime="0.00" timeLoss="33.20" rerouteNo="0" devices="tripinfo_flow_route_61_duration_20250327_2120.3" vType="car" speedFactor="0.99" vaporized=""/>
    <tripinfo id="flow_route_60_duration_20250327_2120.3" depart="36.00" departLane="186407684#0_0" departPos="20.86" departSpeed="0.00" departDelay="0.00" arrival="95.00" arrivalLane="791826085_0" arrivalPos="289.48" arrivalSpeed="16.52" duration="59.00" routeLength="377.55" waitingTime="15.00" waitingCount="1" stopTime="0.00" timeLoss="35.99" rerouteNo="0" devices="tripinfo_flow_route_60_duration_20250327_2120.3" vType="car" speedFactor="1.12" vaporized=""/>
    <tripinfo id="flow_route_60_duration_20250327_2120.4" depart="48.00" departLane="186407684#0_0" departPos="29.20" departSpeed="0.00" departDelay="0.00" arrival="100.00" arrivalLane="791826085_0" arrivalPos="311.97" arrivalSpeed="15.30" duration="52.00" routeLength="391.70" waitingTime="5.00" waitingCount="1" stopTime="0.00" timeLoss="26.24" rerouteNo="0" devices="tripinfo_flow_route_60_duration_20250327_2120.4" vType="car" speedFactor="0.94" vaporized=""/>
</tripinfos>
