<?xml version="1.0" encoding="UTF-8"?>

<!-- generated on 2025-05-06 21:09:06 by Eclipse SUMO sumo Version 1.20.0
<configuration xmlns:xsi="http://www.w3.org/2001/XMLSchema-instance" xsi:noNamespaceSchemaLocation="http://sumo.dlr.de/xsd/sumoConfiguration.xsd">

    <input>
        <net-file value="osm.net.xml"/>
        <route-files value="xml/route_static_cluster7571105647_7571105653_cluster_1141265322_11869698130_256036890_4227138136_#4more_8.rou.xml"/>
    </input>

    <output>
        <tripinfo-output value="xml/tripinfo_static_cluster7571105647_7571105653_cluster_1141265322_11869698130_256036890_4227138136_#4more_8.xml"/>
    </output>

    <traci_server>
        <remote-port value="48075"/>
    </traci_server>

</configuration>
-->

<tripinfos xmlns:xsi="http://www.w3.org/2001/XMLSchema-instance" xsi:noNamespaceSchemaLocation="http://sumo.dlr.de/xsd/tripinfo_file.xsd">
    <tripinfo id="flow_route_143_duration_20250327_2000.0" depart="0.00" departLane="1253222187#0_0" departPos="157.10" departSpeed="0.00" departDelay="0.00" arrival="28.00" arrivalLane="1310781056_0" arrivalPos="55.73" arrivalSpeed="16.37" duration="28.00" routeLength="267.13" waitingTime="0.00" waitingCount="0" stopTime="0.00" timeLoss="11.65" rerouteNo="0" devices="tripinfo_flow_route_143_duration_20250327_2000.0" vType="car" speedFactor="1.08" vaporized=""/>
    <tripinfo id="flow_route_140_duration_20250327_2000.1" depart="6.00" departLane="809719540#0_0" departPos="252.23" departSpeed="0.00" departDelay="0.00" arrival="41.00" arrivalLane="-809772643#1_0" arrivalPos="9.55" arrivalSpeed="8.86" duration="35.00" routeLength="64.78" waitingTime="16.00" waitingCount="1" stopTime="0.00" timeLoss="30.38" rerouteNo="0" devices="tripinfo_flow_route_140_duration_20250327_2000.1" vType="car" speedFactor="0.94" vaporized=""/>
    <tripinfo id="flow_route_140_duration_20250327_2000.6" depart="36.00" departLane="809719540#0_0" departPos="227.10" departSpeed="0.00" departDelay="0.00" arrival="52.00" arrivalLane="-809772643#1_0" arrivalPos="8.81" arrivalSpeed="12.08" duration="16.00" routeLength="89.16" waitingTime="0.00" waitingCount="0" stopTime="0.00" timeLoss="9.33" rerouteNo="0" devices="tripinfo_flow_route_140_duration_20250327_2000.6" vType="car" speedFactor="0.90" vaporized=""/>
    <tripinfo id="flow_route_142_duration_20250327_2000.0" depart="0.00" departLane="1253222187#0_0" departPos="114.97" departSpeed="0.00" departDelay="0.00" arrival="53.00" arrivalLane="683079388#0_0" arrivalPos="1.17" arrivalSpeed="16.33" duration="53.00" routeLength="684.52" waitingTime="0.00" waitingCount="0" stopTime="0.00" timeLoss="11.28" rerouteNo="0" devices="tripinfo_flow_route_142_duration_20250327_2000.0" vType="car" speedFactor="1.01" vaporized=""/>
    <tripinfo id="flow_route_140_duration_20250327_2000.3" depart="18.00" departLane="809719540#0_0" departPos="74.90" departSpeed="0.00" departDelay="0.00" arrival="53.00" arrivalLane="-809772643#1_1" arrivalPos="132.67" arrivalSpeed="16.40" duration="35.00" routeLength="368.05" waitingTime="0.00" waitingCount="0" stopTime="0.00" timeLoss="11.90" rerouteNo="0" devices="tripinfo_flow_route_140_duration_20250327_2000.3" vType="car" speedFactor="1.01" vaporized=""/>
    <tripinfo id="flow_route_140_duration_20250327_2000.0" depart="0.00" departLane="809719540#0_0" departPos="199.64" departSpeed="0.00" departDelay="0.00" arrival="54.00" arrivalLane="-809772643#1_0" arrivalPos="184.22" arrivalSpeed="16.50" duration="54.00" routeLength="294.87" waitingTime="16.00" waitingCount="1" stopTime="0.00" timeLoss="35.80" rerouteNo="0" devices="tripinfo_flow_route_140_duration_20250327_2000.0" vType="car" speedFactor="1.06" vaporized=""/>
    <tripinfo id="flow_route_140_duration_20250327_2000.2" depart="12.00" departLane="809719540#0_0" departPos="153.53" departSpeed="0.00" departDelay="0.00" arrival="57.00" arrivalLane="-809772643#1_0" arrivalPos="199.43" arrivalSpeed="16.15" duration="45.00" routeLength="353.34" waitingTime="0.00" waitingCount="0" stopTime="0.00" timeLoss="22.87" rerouteNo="0" devices="tripinfo_flow_route_140_duration_20250327_2000.2" vType="car" speedFactor="0.99" vaporized=""/>
    <tripinfo id="flow_route_140_duration_20250327_2000.4" depart="24.00" departLane="809719540#0_0" departPos="137.74" departSpeed="0.00" departDelay="0.00" arrival="57.00" arrivalLane="-809772643#1_1" arrivalPos="140.32" arrivalSpeed="15.65" duration="33.00" routeLength="312.86" waitingTime="0.00" waitingCount="0" stopTime="0.00" timeLoss="12.50" rerouteNo="0" devices="tripinfo_flow_route_140_duration_20250327_2000.4" vType="car" speedFactor="0.95" vaporized=""/>
    <tripinfo id="flow_route_140_duration_20250327_2000.5" depart="30.00" departLane="809719540#0_0" departPos="187.88" departSpeed="0.00" departDelay="0.00" arrival="60.00" arrivalLane="-809772643#1_0" arrivalPos="94.24" arrivalSpeed="16.22" duration="30.00" routeLength="213.81" waitingTime="0.00" waitingCount="0" stopTime="0.00" timeLoss="16.57" rerouteNo="0" devices="tripinfo_flow_route_140_duration_20250327_2000.5" vType="car" speedFactor="1.01" vaporized=""/>
    <tripinfo id="flow_route_142_duration_20250327_2000.2" depart="6.00" departLane="1253222187#0_0" departPos="173.80" departSpeed="0.00" departDelay="0.55" arrival="61.00" arrivalLane="683079388#0_0" arrivalPos="13.24" arrivalSpeed="13.82" duration="55.00" routeLength="637.76" waitingTime="0.00" waitingCount="0" stopTime="0.00" timeLoss="9.95" rerouteNo="0" devices="tripinfo_flow_route_142_duration_20250327_2000.2" vType="car" speedFactor="0.86" vaporized=""/>
    <tripinfo id="flow_route_142_duration_20250327_2000.5" depart="14.00" departLane="1253222187#0_0" departPos="150.87" departSpeed="0.00" departDelay="0.37" arrival="67.00" arrivalLane="683079388#0_0" arrivalPos="2.30" arrivalSpeed="15.59" duration="53.00" routeLength="649.74" waitingTime="0.00" waitingCount="0" stopTime="0.00" timeLoss="10.87" rerouteNo="0" devices="tripinfo_flow_route_142_duration_20250327_2000.5" vType="car" speedFactor="0.94" vaporized=""/>
    <tripinfo id="flow_route_146_duration_20250327_2000.2" depart="16.00" departLane="683079387#1_0" departPos="3.14" departSpeed="0.00" departDelay="8.50" arrival="73.00" arrivalLane="-809772643#1_1" arrivalPos="112.54" arrivalSpeed="14.33" duration="57.00" routeLength="722.37" waitingTime="0.00" waitingCount="0" stopTime="0.00" timeLoss="13.04" rerouteNo="0" devices="tripinfo_flow_route_146_duration_20250327_2000.2" vType="car" speedFactor="1.03" vaporized=""/>
    <tripinfo id="flow_route_146_duration_20250327_2000.3" depart="20.00" departLane="683079387#1_0" departPos="1.83" departSpeed="0.00" departDelay="8.75" arrival="75.00" arrivalLane="-809772643#1_0" arrivalPos="46.13" arrivalSpeed="14.24" duration="55.00" routeLength="657.28" waitingTime="0.00" waitingCount="0" stopTime="0.00" timeLoss="9.60" rerouteNo="0" devices="tripinfo_flow_route_146_duration_20250327_2000.3" vType="car" speedFactor="0.88" vaporized=""/>
    <tripinfo id="flow_route_146_duration_20250327_2000.1" depart="11.00" departLane="683079387#1_0" departPos="3.38" departSpeed="0.00" departDelay="7.25" arrival="76.00" arrivalLane="-809772643#1_1" arrivalPos="181.04" arrivalSpeed="14.65" duration="65.00" routeLength="790.62" waitingTime="0.00" waitingCount="0" stopTime="0.00" timeLoss="11.06" rerouteNo="0" devices="tripinfo_flow_route_146_duration_20250327_2000.1" vType="car" speedFactor="0.89" vaporized=""/>
    <tripinfo id="flow_route_147_duration_20250327_2000.0" depart="6.00" departLane="683079387#1_0" departPos="3.14" departSpeed="0.00" departDelay="6.00" arrival="77.00" arrivalLane="1310781056_0" arrivalPos="4.95" arrivalSpeed="14.52" duration="71.00" routeLength="681.64" waitingTime="1.00" waitingCount="1" stopTime="0.00" timeLoss="21.19" rerouteNo="0" devices="tripinfo_flow_route_147_duration_20250327_2000.0" vType="car" speedFactor="0.83" vaporized=""/>
    <tripinfo id="flow_route_146_duration_20250327_2000.0" depart="0.00" departLane="683079387#1_0" departPos="0.06" departSpeed="0.00" departDelay="0.00" arrival="78.00" arrivalLane="-809772643#1_0" arrivalPos="121.98" arrivalSpeed="16.55" duration="78.00" routeLength="734.89" waitingTime="10.00" waitingCount="1" stopTime="0.00" timeLoss="33.03" rerouteNo="0" devices="tripinfo_flow_route_146_duration_20250327_2000.0" vType="car" speedFactor="1.03" vaporized=""/>
    <tripinfo id="flow_route_146_duration_20250327_2000.4" depart="25.00" departLane="683079387#1_0" departPos="4.26" departSpeed="0.00" departDelay="10.00" arrival="82.00" arrivalLane="-809772643#1_1" arrivalPos="143.00" arrivalSpeed="16.59" duration="57.00" routeLength="751.71" waitingTime="0.00" waitingCount="0" stopTime="0.00" timeLoss="10.77" rerouteNo="0" devices="tripinfo_flow_route_146_duration_20250327_2000.4" vType="car" speedFactor="1.16" vaporized=""/>
    <tripinfo id="flow_route_141_duration_20250327_2000.0" depart="0.00" departLane="809719540#0_0" departPos="66.48" departSpeed="0.00" departDelay="0.00" arrival="84.00" arrivalLane="683079387#1_1" arrivalPos="7.27" arrivalSpeed="6.50" duration="84.00" routeLength="836.36" waitingTime="4.00" waitingCount="1" stopTime="0.00" timeLoss="27.51" rerouteNo="0" devices="tripinfo_flow_route_141_duration_20250327_2000.0" vType="car" speedFactor="0.94" vaporized=""/>
    <tripinfo id="flow_route_146_duration_20250327_2000.5" depart="30.00" departLane="683079387#1_0" departPos="4.20" departSpeed="0.00" departDelay="11.25" arrival="85.00" arrivalLane="-809772643#1_0" arrivalPos="113.05" arrivalSpeed="16.24" duration="55.00" routeLength="721.82" waitingTime="0.00" waitingCount="0" stopTime="0.00" timeLoss="10.13" rerouteNo="0" devices="tripinfo_flow_route_146_duration_20250327_2000.5" vType="car" speedFactor="0.97" vaporized=""/>
    <tripinfo id="flow_route_141_duration_20250327_2000.1" depart="12.00" departLane="809719540#0_0" departPos="64.84" departSpeed="0.00" departDelay="0.00" arrival="86.00" arrivalLane="683079387#1_1" arrivalPos="2.70" arrivalSpeed="6.54" duration="74.00" routeLength="833.42" waitingTime="0.00" waitingCount="0" stopTime="0.00" timeLoss="16.79" rerouteNo="0" devices="tripinfo_flow_route_141_duration_20250327_2000.1" vType="car" speedFactor="0.93" vaporized=""/>
    <tripinfo id="flow_route_141_duration_20250327_2000.2" depart="26.00" departLane="809719540#0_0" departPos="28.13" departSpeed="0.00" departDelay="2.00" arrival="94.00" arrivalLane="683079387#1_1" arrivalPos="4.32" arrivalSpeed="7.51" duration="68.00" routeLength="871.75" waitingTime="0.00" waitingCount="0" stopTime="0.00" timeLoss="13.53" rerouteNo="0" devices="tripinfo_flow_route_141_duration_20250327_2000.2" vType="car" speedFactor="1.13" vaporized=""/>
    <tripinfo id="flow_route_146_duration_20250327_2000.6" depart="35.00" departLane="683079387#1_0" departPos="3.79" departSpeed="0.00" departDelay="12.50" arrival="95.00" arrivalLane="-809772643#1_0" arrivalPos="149.26" arrivalSpeed="15.19" duration="60.00" routeLength="758.43" waitingTime="0.00" waitingCount="0" stopTime="0.00" timeLoss="10.33" rerouteNo="0" devices="tripinfo_flow_route_146_duration_20250327_2000.6" vType="car" speedFactor="0.92" vaporized=""/>
    <tripinfo id="flow_route_140_duration_20250327_2000.9" depart="54.00" departLane="809719540#0_0" departPos="246.99" departSpeed="0.00" departDelay="0.00" arrival="98.00" arrivalLane="-809772643#1_0" arrivalPos="23.71" arrivalSpeed="9.96" duration="44.00" routeLength="84.17" waitingTime="23.00" waitingCount="1" stopTime="0.00" timeLoss="38.69" rerouteNo="0" devices="tripinfo_flow_route_140_duration_20250327_2000.9" vType="car" speedFactor="0.97" vaporized=""/>
    <tripinfo id="flow_route_146_duration_20250327_2000.7" depart="40.00" departLane="683079387#1_0" departPos="5.85" departSpeed="0.00" departDelay="13.75" arrival="99.00" arrivalLane="-809772643#1_0" arrivalPos="181.03" arrivalSpeed="16.38" duration="59.00" routeLength="788.14" waitingTime="0.00" waitingCount="0" stopTime="0.00" timeLoss="10.97" rerouteNo="0" devices="tripinfo_flow_route_146_duration_20250327_2000.7" vType="car" speedFactor="1.18" vaporized=""/>
    <tripinfo id="flow_route_142_duration_20250327_2000.4" depart="11.00" departLane="1253222187#0_0" departPos="86.73" departSpeed="0.00" departDelay="0.09" arrival="103.00" arrivalLane="683079388#0_0" arrivalPos="17.69" arrivalSpeed="16.39" duration="92.00" routeLength="729.27" waitingTime="21.00" waitingCount="1" stopTime="0.00" timeLoss="47.76" rerouteNo="0" devices="tripinfo_flow_route_142_duration_20250327_2000.4" vType="car" speedFactor="1.12" vaporized=""/>
    <tripinfo id="flow_route_142_duration_20250327_2000.1" depart="3.00" departLane="1253222187#0_0" departPos="12.70" departSpeed="0.00" departDelay="0.27" arrival="104.00" arrivalLane="683079388#0_1" arrivalPos="14.62" arrivalSpeed="16.12" duration="101.00" routeLength="800.23" waitingTime="19.00" waitingCount="1" stopTime="0.00" timeLoss="52.45" rerouteNo="0" devices="tripinfo_flow_route_142_duration_20250327_2000.1" vType="car" speedFactor="1.05" vaporized=""/>
    <tripinfo id="flow_route_142_duration_20250327_2000.3" depart="11.00" departLane="1253222187#0_0" departPos="26.44" departSpeed="0.00" departDelay="2.82" arrival="107.00" arrivalLane="683079388#0_0" arrivalPos="7.79" arrivalSpeed="16.23" duration="96.00" routeLength="779.67" waitingTime="21.00" waitingCount="1" stopTime="0.00" timeLoss="48.49" rerouteNo="0" devices="tripinfo_flow_route_142_duration_20250327_2000.3" vType="car" speedFactor="1.05" vaporized=""/>
    <tripinfo id="flow_route_142_duration_20250327_2000.13" depart="36.00" departLane="1253222187#0_0" departPos="190.69" departSpeed="0.00" departDelay="0.55" arrival="107.00" arrivalLane="683079388#0_1" arrivalPos="17.44" arrivalSpeed="15.75" duration="71.00" routeLength="625.06" waitingTime="16.00" waitingCount="1" stopTime="0.00" timeLoss="31.36" rerouteNo="0" devices="tripinfo_flow_route_142_duration_20250327_2000.13" vType="car" speedFactor="0.96" vaporized=""/>
    <tripinfo id="flow_route_142_duration_20250327_2000.12" depart="33.00" departLane="1253222187#0_0" departPos="150.39" departSpeed="0.00" departDelay="0.28" arrival="109.00" arrivalLane="683079388#0_0" arrivalPos="18.39" arrivalSpeed="16.43" duration="76.00" routeLength="666.31" waitingTime="13.00" waitingCount="1" stopTime="0.00" timeLoss="35.51" rerouteNo="0" devices="tripinfo_flow_route_142_duration_20250327_2000.12" vType="car" speedFactor="1.18" vaporized=""/>
    <tripinfo id="flow_route_143_duration_20250327_2000.2" depart="16.00" departLane="1253222187#0_0" departPos="122.30" departSpeed="0.00" departDelay="1.00" arrival="110.00" arrivalLane="1310781056_0" arrivalPos="67.61" arrivalSpeed="16.43" duration="94.00" routeLength="313.81" waitingTime="48.00" waitingCount="2" stopTime="0.00" timeLoss="74.71" rerouteNo="0" devices="tripinfo_flow_route_143_duration_20250327_2000.2" vType="car" speedFactor="0.94" vaporized=""/>
    <tripinfo id="flow_route_142_duration_20250327_2000.11" depart="31.00" departLane="1253222187#0_0" departPos="139.54" departSpeed="0.00" departDelay="1.00" arrival="111.00" arrivalLane="683079388#0_0" arrivalPos="22.56" arrivalSpeed="16.52" duration="80.00" routeLength="681.33" waitingTime="12.00" waitingCount="1" stopTime="0.00" timeLoss="38.41" rerouteNo="0" devices="tripinfo_flow_route_142_duration_20250327_2000.11" vType="car" speedFactor="1.17" vaporized=""/>
    <tripinfo id="flow_route_140_duration_20250327_2000.8" depart="48.00" departLane="809719540#0_0" departPos="130.93" departSpeed="0.00" departDelay="0.00" arrival="111.00" arrivalLane="-809772643#1_0" arrivalPos="169.41" arrivalSpeed="16.20" duration="63.00" routeLength="345.93" waitingTime="18.00" waitingCount="1" stopTime="0.00" timeLoss="42.07" rerouteNo="0" devices="tripinfo_flow_route_140_duration_20250327_2000.8" vType="car" speedFactor="1.02" vaporized=""/>
    <tripinfo id="flow_route_142_duration_20250327_2000.14" depart="39.00" departLane="1253222187#0_0" departPos="124.96" departSpeed="0.00" departDelay="0.82" arrival="113.00" arrivalLane="683079388#0_0" arrivalPos="9.80" arrivalSpeed="16.13" duration="74.00" routeLength="683.15" waitingTime="10.00" waitingCount="1" stopTime="0.00" timeLoss="32.74" rerouteNo="0" devices="tripinfo_flow_route_142_duration_20250327_2000.14" vType="car" speedFactor="1.04" vaporized=""/>
    <tripinfo id="flow_route_142_duration_20250327_2000.17" depart="47.00" departLane="1253222187#0_0" departPos="179.49" departSpeed="0.00" departDelay="0.64" arrival="113.00" arrivalLane="683079388#0_0" arrivalPos="23.47" arrivalSpeed="16.14" duration="66.00" routeLength="642.30" waitingTime="12.00" waitingCount="1" stopTime="0.00" timeLoss="26.51" rerouteNo="0" devices="tripinfo_flow_route_142_duration_20250327_2000.17" vType="car" speedFactor="1.17" vaporized=""/>
    <tripinfo id="flow_route_142_duration_20250327_2000.6" depart="18.00" departLane="1253222187#0_0" departPos="5.87" departSpeed="0.00" departDelay="1.64" arrival="114.00" arrivalLane="683079388#0_2" arrivalPos="4.35" arrivalSpeed="13.82" duration="96.00" routeLength="796.79" waitingTime="14.00" waitingCount="1" stopTime="0.00" timeLoss="47.99" rerouteNo="0" devices="tripinfo_flow_route_142_duration_20250327_2000.6" vType="car" speedFactor="1.02" vaporized=""/>
    <tripinfo id="flow_route_142_duration_20250327_2000.8" depart="23.00" departLane="1253222187#0_0" departPos="61.15" departSpeed="0.00" departDelay="1.18" arrival="114.00" arrivalLane="683079388#0_1" arrivalPos="14.64" arrivalSpeed="13.38" duration="91.00" routeLength="751.80" waitingTime="15.00" waitingCount="1" stopTime="0.00" timeLoss="35.55" rerouteNo="0" devices="tripinfo_flow_route_142_duration_20250327_2000.8" vType="car" speedFactor="0.83" vaporized=""/>
    <tripinfo id="flow_route_142_duration_20250327_2000.7" depart="22.00" departLane="1253222187#0_0" departPos="38.09" departSpeed="0.00" departDelay="2.91" arrival="117.00" arrivalLane="683079388#0_0" arrivalPos="1.73" arrivalSpeed="14.79" duration="95.00" routeLength="761.95" waitingTime="12.00" waitingCount="1" stopTime="0.00" timeLoss="42.81" rerouteNo="0" devices="tripinfo_flow_route_142_duration_20250327_2000.7" vType="car" speedFactor="0.89" vaporized=""/>
    <tripinfo id="flow_route_142_duration_20250327_2000.10" depart="28.00" departLane="1253222187#0_0" departPos="89.63" departSpeed="0.00" departDelay="0.73" arrival="117.00" arrivalLane="683079388#0_2" arrivalPos="23.88" arrivalSpeed="15.47" duration="89.00" routeLength="732.56" waitingTime="12.00" waitingCount="1" stopTime="0.00" timeLoss="44.72" rerouteNo="0" devices="tripinfo_flow_route_142_duration_20250327_2000.10" vType="car" speedFactor="1.15" vaporized=""/>
    <tripinfo id="flow_route_140_duration_20250327_2000.7" depart="42.00" departLane="809719540#0_0" departPos="129.65" departSpeed="0.00" departDelay="0.00" arrival="117.00" arrivalLane="-809772643#1_1" arrivalPos="195.34" arrivalSpeed="16.43" duration="75.00" routeLength="375.97" waitingTime="24.00" waitingCount="1" stopTime="0.00" timeLoss="51.73" rerouteNo="0" devices="tripinfo_flow_route_140_duration_20250327_2000.7" vType="car" speedFactor="1.00" vaporized=""/>
    <tripinfo id="flow_route_142_duration_20250327_2000.9" depart="25.00" departLane="1253222187#0_0" departPos="5.03" departSpeed="0.00" departDelay="0.46" arrival="118.00" arrivalLane="683079388#0_2" arrivalPos="15.11" arrivalSpeed="15.20" duration="93.00" routeLength="808.39" waitingTime="12.00" waitingCount="1" stopTime="0.00" timeLoss="40.90" rerouteNo="0" devices="tripinfo_flow_route_142_duration_20250327_2000.9" vType="car" speedFactor="0.93" vaporized=""/>
    <tripinfo id="flow_route_142_duration_20250327_2000.16" depart="44.00" departLane="1253222187#0_0" departPos="99.16" departSpeed="0.00" departDelay="0.37" arrival="119.00" arrivalLane="683079388#0_0" arrivalPos="8.93" arrivalSpeed="14.58" duration="75.00" routeLength="708.08" waitingTime="5.00" waitingCount="1" stopTime="0.00" timeLoss="25.94" rerouteNo="0" devices="tripinfo_flow_route_142_duration_20250327_2000.16" vType="car" speedFactor="0.88" vaporized=""/>
    <tripinfo id="flow_route_142_duration_20250327_2000.21" depart="60.00" departLane="1253222187#0_0" departPos="140.44" departSpeed="0.00" departDelay="2.73" arrival="120.00" arrivalLane="683079388#0_2" arrivalPos="23.70" arrivalSpeed="16.16" duration="60.00" routeLength="681.57" waitingTime="0.00" waitingCount="0" stopTime="0.00" timeLoss="18.89" rerouteNo="0" devices="tripinfo_flow_route_142_duration_20250327_2000.21" vType="car" speedFactor="1.02" vaporized=""/>
    <tripinfo id="flow_route_142_duration_20250327_2000.15" depart="43.00" departLane="1253222187#0_0" departPos="35.32" departSpeed="0.00" departDelay="2.10" arrival="121.00" arrivalLane="683079388#0_0" arrivalPos="22.12" arrivalSpeed="16.53" duration="78.00" routeLength="785.11" waitingTime="3.00" waitingCount="1" stopTime="0.00" timeLoss="30.41" rerouteNo="0" devices="tripinfo_flow_route_142_duration_20250327_2000.15" vType="car" speedFactor="1.09" vaporized=""/>
    <tripinfo id="flow_route_142_duration_20250327_2000.18" depart="53.00" departLane="1253222187#0_0" departPos="27.30" departSpeed="0.00" departDelay="3.91" arrival="121.00" arrivalLane="683079388#0_2" arrivalPos="8.59" arrivalSpeed="16.31" duration="68.00" routeLength="779.60" waitingTime="0.00" waitingCount="0" stopTime="0.00" timeLoss="20.62" rerouteNo="0" devices="tripinfo_flow_route_142_duration_20250327_2000.18" vType="car" speedFactor="1.00" vaporized=""/>
    <tripinfo id="flow_route_142_duration_20250327_2000.19" depart="54.00" departLane="1253222187#0_0" departPos="48.02" departSpeed="0.00" departDelay="2.19" arrival="123.00" arrivalLane="683079388#0_0" arrivalPos="18.67" arrivalSpeed="14.85" duration="69.00" routeLength="768.96" waitingTime="0.00" waitingCount="0" stopTime="0.00" timeLoss="16.87" rerouteNo="0" devices="tripinfo_flow_route_142_duration_20250327_2000.19" vType="car" speedFactor="0.90" vaporized=""/>
    <tripinfo id="flow_route_142_duration_20250327_2000.20" depart="59.00" departLane="1253222187#0_0" departPos="7.30" departSpeed="0.00" departDelay="4.46" arrival="123.00" arrivalLane="683079388#0_2" arrivalPos="8.28" arrivalSpeed="16.48" duration="64.00" routeLength="799.29" waitingTime="0.00" waitingCount="0" stopTime="0.00" timeLoss="14.92" rerouteNo="0" devices="tripinfo_flow_route_142_duration_20250327_2000.20" vType="car" speedFactor="1.08" vaporized=""/>
    <tripinfo id="flow_route_146_duration_20250327_2000.9" depart="54.00" departLane="683079387#1_0" departPos="1.00" departSpeed="0.00" departDelay="20.25" arrival="128.00" arrivalLane="-809772643#1_1" arrivalPos="29.19" arrivalSpeed="11.73" duration="74.00" routeLength="641.16" waitingTime="13.00" waitingCount="1" stopTime="0.00" timeLoss="35.16" rerouteNo="0" devices="tripinfo_flow_route_146_duration_20250327_2000.9" vType="car" speedFactor="1.10" vaporized=""/>
    <tripinfo id="flow_route_146_duration_20250327_2000.12" depart="69.00" departLane="683079387#1_0" departPos="1.95" departSpeed="0.00" departDelay="24.00" arrival="132.00" arrivalLane="-809772643#1_1" arrivalPos="0.18" arrivalSpeed="10.49" duration="63.00" routeLength="611.20" waitingTime="0.00" waitingCount="0" stopTime="0.00" timeLoss="19.50" rerouteNo="0" devices="tripinfo_flow_route_146_duration_20250327_2000.12" vType="car" speedFactor="0.85" vaporized=""/>
    <tripinfo id="flow_route_146_duration_20250327_2000.14" depart="80.00" departLane="683079387#1_0" departPos="2.36" departSpeed="0.00" departDelay="27.50" arrival="134.00" arrivalLane="-809772643#1_0" arrivalPos="32.59" arrivalSpeed="12.68" duration="54.00" routeLength="643.20" waitingTime="0.00" waitingCount="0" stopTime="0.00" timeLoss="15.01" rerouteNo="0" devices="tripinfo_flow_route_146_duration_20250327_2000.14" vType="car" speedFactor="1.02" vaporized=""/>
    <tripinfo id="flow_route_146_duration_20250327_2000.10" depart="59.00" departLane="683079387#1_0" departPos="4.12" departSpeed="0.00" departDelay="21.50" arrival="135.00" arrivalLane="-809772643#1_1" arrivalPos="89.08" arrivalSpeed="15.23" duration="76.00" routeLength="697.94" waitingTime="7.00" waitingCount="2" stopTime="0.00" timeLoss="33.59" rerouteNo="0" devices="tripinfo_flow_route_146_duration_20250327_2000.10" vType="car" speedFactor="1.04" vaporized=""/>
    <tripinfo id="flow_route_147_duration_20250327_2000.1" depart="49.00" departLane="683079387#1_0" departPos="4.73" departSpeed="0.00" departDelay="19.00" arrival="136.00" arrivalLane="1310781056_0" arrivalPos="33.60" arrivalSpeed="15.07" duration="87.00" routeLength="708.71" waitingTime="19.00" waitingCount="1" stopTime="0.00" timeLoss="41.75" rerouteNo="0" devices="tripinfo_flow_route_147_duration_20250327_2000.1" vType="car" speedFactor="0.97" vaporized=""/>
    <tripinfo id="flow_route_146_duration_20250327_2000.11" depart="63.00" departLane="683079387#1_0" departPos="0.07" departSpeed="0.00" departDelay="21.75" arrival="138.00" arrivalLane="-809772643#1_0" arrivalPos="113.56" arrivalSpeed="14.90" duration="75.00" routeLength="726.46" waitingTime="4.00" waitingCount="1" stopTime="0.00" timeLoss="26.30" rerouteNo="0" devices="tripinfo_flow_route_146_duration_20250327_2000.11" vType="car" speedFactor="0.90" vaporized=""/>
    <tripinfo id="flow_route_146_duration_20250327_2000.15" depart="86.00" departLane="683079387#1_0" departPos="8.46" departSpeed="0.00" departDelay="29.75" arrival="138.00" arrivalLane="-809772643#1_0" arrivalPos="49.30" arrivalSpeed="16.26" duration="52.00" routeLength="653.81" waitingTime="0.00" waitingCount="0" stopTime="0.00" timeLoss="11.90" rerouteNo="0" devices="tripinfo_flow_route_146_duration_20250327_2000.15" vType="car" speedFactor="1.12" vaporized=""/>
    <tripinfo id="flow_route_146_duration_20250327_2000.8" depart="42.00" departLane="683079387#1_0" departPos="0.15" departSpeed="0.00" departDelay="12.00" arrival="140.00" arrivalLane="-809772643#1_0" arrivalPos="200.86" arrivalSpeed="16.41" duration="98.00" routeLength="813.69" waitingTime="25.00" waitingCount="1" stopTime="0.00" timeLoss="48.50" rerouteNo="0" devices="tripinfo_flow_route_146_duration_20250327_2000.8" vType="car" speedFactor="1.02" vaporized=""/>
    <tripinfo id="flow_route_146_duration_20250327_2000.13" depart="73.00" departLane="683079387#1_0" departPos="0.12" departSpeed="0.00" departDelay="24.25" arrival="142.00" arrivalLane="-809772643#1_1" arrivalPos="162.11" arrivalSpeed="16.48" duration="69.00" routeLength="774.96" waitingTime="1.00" waitingCount="1" stopTime="0.00" timeLoss="21.34" rerouteNo="0" devices="tripinfo_flow_route_146_duration_20250327_2000.13" vType="car" speedFactor="1.00" vaporized=""/>
    <tripinfo id="flow_route_141_duration_20250327_2000.4" depart="48.00" departLane="809719540#0_0" departPos="251.46" departSpeed="0.00" departDelay="0.00" arrival="143.00" arrivalLane="683079387#1_1" arrivalPos="4.02" arrivalSpeed="7.28" duration="95.00" routeLength="655.14" waitingTime="30.00" waitingCount="1" stopTime="0.00" timeLoss="53.60" rerouteNo="0" devices="tripinfo_flow_route_141_duration_20250327_2000.4" vType="car" speedFactor="1.10" vaporized=""/>
    <tripinfo id="flow_route_141_duration_20250327_2000.3" depart="36.00" departLane="809719540#0_0" departPos="41.25" departSpeed="0.00" departDelay="0.00" arrival="146.00" arrivalLane="683079387#1_1" arrivalPos="3.99" arrivalSpeed="6.38" duration="110.00" routeLength="858.30" waitingTime="24.00" waitingCount="1" stopTime="0.00" timeLoss="55.45" rerouteNo="0" devices="tripinfo_flow_route_141_duration_20250327_2000.3" vType="car" speedFactor="1.03" vaporized=""/>
    <tripinfo id="flow_route_143_duration_20250327_2000.1" depart="8.00" departLane="1253222187#0_0" departPos="6.83" departSpeed="0.00" departDelay="0.50" arrival="156.00" arrivalLane="1310781056_0" arrivalPos="44.97" arrivalSpeed="16.17" duration="148.00" routeLength="406.64" waitingTime="86.00" waitingCount="4" stopTime="0.00" timeLoss="123.49" rerouteNo="0" devices="tripinfo_flow_route_143_duration_20250327_2000.1" vType="car" speedFactor="1.09" vaporized=""/>
    <tripinfo id="flow_route_143_duration_20250327_2000.4" depart="31.00" departLane="1253222187#0_0" departPos="164.67" departSpeed="0.00" departDelay="1.00" arrival="160.00" arrivalLane="1310781056_0" arrivalPos="65.05" arrivalSpeed="16.34" duration="129.00" routeLength="268.89" waitingTime="78.00" waitingCount="4" stopTime="0.00" timeLoss="111.91" rerouteNo="0" devices="tripinfo_flow_route_143_duration_20250327_2000.4" vType="car" speedFactor="0.99" vaporized=""/>
    <tripinfo id="flow_route_143_duration_20250327_2000.3" depart="24.00" departLane="1253222187#0_0" departPos="82.17" departSpeed="0.00" departDelay="1.50" arrival="192.00" arrivalLane="1310781056_0" arrivalPos="9.07" arrivalSpeed="16.25" duration="168.00" routeLength="295.40" waitingTime="105.00" waitingCount="5" stopTime="0.00" timeLoss="148.18" rerouteNo="0" devices="tripinfo_flow_route_143_duration_20250327_2000.3" vType="car" speedFactor="0.87" vaporized=""/>
    <tripinfo id="flow_route_143_duration_20250327_2000.5" depart="38.00" departLane="1253222187#0_0" departPos="58.46" departSpeed="0.00" departDelay="0.50" arrival="197.00" arrivalLane="1310781056_0" arrivalPos="75.22" arrivalSpeed="16.27" duration="159.00" routeLength="385.26" waitingTime="88.00" waitingCount="5" stopTime="0.00" timeLoss="135.48" rerouteNo="0" devices="tripinfo_flow_route_143_duration_20250327_2000.5" vType="car" speedFactor="1.09" vaporized=""/>
    <tripinfo id="flow_route_143_duration_20250327_2000.6" depart="47.00" departLane="1253222187#0_0" departPos="24.11" departSpeed="0.00" departDelay="2.00" arrival="197.00" arrivalLane="1310781056_0" arrivalPos="38.43" arrivalSpeed="16.29" duration="150.00" routeLength="382.82" waitingTime="80.00" waitingCount="4" stopTime="0.00" timeLoss="124.87" rerouteNo="0" devices="tripinfo_flow_route_143_duration_20250327_2000.6" vType="car" speedFactor="0.85" vaporized=""/>