<?xml version="1.0" encoding="UTF-8"?>

<!-- generated on 2025-05-06 21:08:38 by Eclipse SUMO sumo Version 1.20.0
<configuration xmlns:xsi="http://www.w3.org/2001/XMLSchema-instance" xsi:noNamespaceSchemaLocation="http://sumo.dlr.de/xsd/sumoConfiguration.xsd">

    <input>
        <net-file value="osm.net.xml"/>
        <route-files value="xml/route_static_cluster3828547534_cluster_1507433914_2954854770_2954854771_2954854772_#9more_5.rou.xml"/>
    </input>

    <output>
        <tripinfo-output value="xml/tripinfo_static_cluster3828547534_cluster_1507433914_2954854770_2954854771_2954854772_#9more_5.xml"/>
    </output>

    <traci_server>
        <remote-port value="54149"/>
    </traci_server>

</configuration>
-->

<tripinfos xmlns:xsi="http://www.w3.org/2001/XMLSchema-instance" xsi:noNamespaceSchemaLocation="http://sumo.dlr.de/xsd/tripinfo_file.xsd">
    <tripinfo id="flow_route_6_duration_20250327_2020.0" depart="0.00" departLane="1252820505#0_0" departPos="39.30" departSpeed="0.00" departDelay="0.00" arrival="18.00" arrivalLane="379698350#0_0" arrivalPos="9.38" arrivalSpeed="14.16" duration="18.00" routeLength="129.45" waitingTime="0.00" waitingCount="0" stopTime="0.00" timeLoss="9.93" rerouteNo="0" devices="tripinfo_flow_route_6_duration_20250327_2020.0" vType="car" speedFactor="1.01" vaporized=""/>
    <tripinfo id="flow_route_22_duration_20250327_2020.0" depart="0.00" departLane="137415945#0_0" departPos="8.70" departSpeed="0.00" departDelay="0.00" arrival="25.00" arrivalLane="1342054204_0" arrivalPos="47.56" arrivalSpeed="15.23" duration="25.00" routeLength="232.19" waitingTime="0.00" waitingCount="0" stopTime="0.00" timeLoss="9.34" rerouteNo="0" devices="tripinfo_flow_route_22_duration_20250327_2020.0" vType="car" speedFactor="0.94" vaporized=""/>
    <tripinfo id="flow_route_24_duration_20250327_2020.0" depart="5.00" departLane="137415945#0_0" departPos="3.01" departSpeed="0.00" departDelay="5.00" arrival="26.00" arrivalLane="137406408#0_0" arrivalPos="0.56" arrivalSpeed="16.27" duration="21.00" routeLength="166.54" waitingTime="0.00" waitingCount="0" stopTime="0.00" timeLoss="10.21" rerouteNo="0" devices="tripinfo_flow_route_24_duration_20250327_2020.0" vType="car" speedFactor="1.09" vaporized=""/>
    <tripinfo id="flow_route_10_duration_20250327_2020.0" depart="0.00" departLane="1252820505#0_0" departPos="5.24" departSpeed="0.00" departDelay="0.00" arrival="28.00" arrivalLane="1235147073.116_0" arrivalPos="0.67" arrivalSpeed="13.39" duration="28.00" routeLength="263.17" waitingTime="0.00" waitingCount="0" stopTime="0.00" timeLoss="8.22" rerouteNo="0" devices="tripinfo_flow_route_10_duration_20250327_2020.0" vType="car" speedFactor="0.83" vaporized=""/>
    <tripinfo id="flow_route_8_duration_20250327_2020.3" depart="17.00" departLane="133000078#0_0" departPos="204.88" departSpeed="0.00" departDelay="0.64" arrival="37.00" arrivalLane="1235147073.116_0" arrivalPos="1.03" arrivalSpeed="16.02" duration="20.00" routeLength="156.32" waitingTime="0.00" waitingCount="0" stopTime="0.00" timeLoss="9.40" rerouteNo="0" devices="tripinfo_flow_route_8_duration_20250327_2020.3" vType="car" speedFactor="1.13" vaporized=""/>
    <tripinfo id="flow_route_22_duration_20250327_2020.1" depart="9.00" departLane="137415945#0_0" departPos="2.84" departSpeed="0.00" departDelay="6.86" arrival="38.00" arrivalLane="1342054204_0" arrivalPos="81.91" arrivalSpeed="16.25" duration="29.00" routeLength="272.40" waitingTime="0.00" waitingCount="0" stopTime="0.00" timeLoss="11.82" rerouteNo="0" devices="tripinfo_flow_route_22_duration_20250327_2020.1" vType="car" speedFactor="1.03" vaporized=""/>
    <tripinfo id="flow_route_8_duration_20250327_2020.2" depart="11.00" departLane="133000078#0_0" departPos="137.95" departSpeed="0.00" departDelay="0.09" arrival="39.00" arrivalLane="1235147073.116_0" arrivalPos="3.70" arrivalSpeed="16.18" duration="28.00" routeLength="225.92" waitingTime="0.00" waitingCount="0" stopTime="0.00" timeLoss="12.51" rerouteNo="0" devices="tripinfo_flow_route_8_duration_20250327_2020.2" vType="car" speedFactor="1.02" vaporized=""/>
    <tripinfo id="flow_route_8_duration_20250327_2020.0" depart="0.00" departLane="133000078#0_0" departPos="54.62" departSpeed="0.00" departDelay="0.00" arrival="40.00" arrivalLane="1235147073.116_0" arrivalPos="9.03" arrivalSpeed="16.25" duration="40.00" routeLength="314.60" waitingTime="0.00" waitingCount="0" stopTime="0.00" timeLoss="20.16" rerouteNo="0" devices="tripinfo_flow_route_8_duration_20250327_2020.0" vType="car" speedFactor="1.03" vaporized=""/>
    <tripinfo id="flow_route_6_duration_20250327_2020.1" depart="8.00" departLane="1252820505#0_0" departPos="10.90" departSpeed="0.00" departDelay="1.33" arrival="41.00" arrivalLane="379698350#0_0" arrivalPos="197.29" arrivalSpeed="15.01" duration="33.00" routeLength="345.76" waitingTime="0.00" waitingCount="0" stopTime="0.00" timeLoss="10.00" rerouteNo="0" devices="tripinfo_flow_route_6_duration_20250327_2020.1" vType="car" speedFactor="0.93" vaporized=""/>
    <tripinfo id="flow_route_10_duration_20250327_2020.1" depart="14.00" departLane="1252820505#0_0" departPos="13.20" departSpeed="0.00" departDelay="2.00" arrival="42.00" arrivalLane="1235147073.116_0" arrivalPos="10.96" arrivalSpeed="16.09" duration="28.00" routeLength="265.50" waitingTime="0.00" waitingCount="0" stopTime="0.00" timeLoss="11.27" rerouteNo="0" devices="tripinfo_flow_route_10_duration_20250327_2020.1" vType="car" speedFactor="0.97" vaporized=""/>
    <tripinfo id="flow_route_11_duration_20250327_2020.0" depart="0.00" departLane="1252820505#0_0" departPos="76.11" departSpeed="0.00" departDelay="0.00" arrival="49.00" arrivalLane="137406408#0_2" arrivalPos="68.60" arrivalSpeed="12.47" duration="49.00" routeLength="154.08" waitingTime="19.00" waitingCount="1" stopTime="0.00" timeLoss="39.34" rerouteNo="0" devices="tripinfo_flow_route_11_duration_20250327_2020.0" vType="car" speedFactor="1.05" vaporized=""/>
    <tripinfo id="flow_route_6_duration_20250327_2020.2" depart="14.00" departLane="1252820505#0_0" departPos="2.42" departSpeed="0.00" departDelay="0.67" arrival="49.00" arrivalLane="379698350#0_0" arrivalPos="196.94" arrivalSpeed="15.25" duration="35.00" routeLength="353.89" waitingTime="0.00" waitingCount="0" stopTime="0.00" timeLoss="11.61" rerouteNo="0" devices="tripinfo_flow_route_6_duration_20250327_2020.2" vType="car" speedFactor="0.92" vaporized=""/>
    <tripinfo id="flow_route_6_duration_20250327_2020.4" depart="34.00" departLane="1252820505#0_0" departPos="82.12" departSpeed="0.00" departDelay="7.34" arrival="50.00" arrivalLane="379698350#0_0" arrivalPos="20.94" arrivalSpeed="12.22" duration="16.00" routeLength="98.19" waitingTime="0.00" waitingCount="0" stopTime="0.00" timeLoss="9.90" rerouteNo="0" devices="tripinfo_flow_route_6_duration_20250327_2020.4" vType="car" speedFactor="1.09" vaporized=""/>
    <tripinfo id="flow_route_8_duration_20250327_2020.1" depart="6.00" departLane="133000078#0_0" departPos="32.85" departSpeed="0.00" departDelay="0.55" arrival="52.00" arrivalLane="1235147073.116_0" arrivalPos="4.62" arrivalSpeed="14.92" duration="46.00" routeLength="331.95" waitingTime="3.00" waitingCount="1" stopTime="0.00" timeLoss="24.89" rerouteNo="0" devices="tripinfo_flow_route_8_duration_20250327_2020.1" vType="car" speedFactor="0.99" vaporized=""/>
    <tripinfo id="flow_route_5_duration_20250327_2020.1" depart="20.00" departLane="291974733#0_0" departPos="63.59" departSpeed="0.00" departDelay="0.00" arrival="54.00" arrivalLane="1342054204_0" arrivalPos="6.98" arrivalSpeed="9.48" duration="34.00" routeLength="81.64" waitingTime="14.00" waitingCount="1" stopTime="0.00" timeLoss="28.72" rerouteNo="0" devices="tripinfo_flow_route_5_duration_20250327_2020.1" vType="car" speedFactor="1.17" vaporized=""/>
    <tripinfo id="flow_route_4_duration_20250327_2020.1" depart="20.00" departLane="291974733#0_0" departPos="19.90" departSpeed="0.00" departDelay="0.00" arrival="55.00" arrivalLane="379698350#0_1" arrivalPos="9.66" arrivalSpeed="12.56" duration="35.00" routeLength="180.66" waitingTime="2.00" waitingCount="1" stopTime="0.00" timeLoss="23.75" rerouteNo="0" devices="tripinfo_flow_route_4_duration_20250327_2020.1" vType="car" speedFactor="1.01" vaporized=""/>
    <tripinfo id="flow_route_5_duration_20250327_2020.0" depart="0.00" departLane="291974733#0_0" departPos="43.68" departSpeed="0.00" departDelay="0.00" arrival="57.00" arrivalLane="1342054204_0" arrivalPos="62.15" arrivalSpeed="13.07" duration="57.00" routeLength="156.72" waitingTime="28.00" waitingCount="1" stopTime="0.00" timeLoss="45.80" rerouteNo="0" devices="tripinfo_flow_route_5_duration_20250327_2020.0" vType="car" speedFactor="0.94" vaporized=""/>
    <tripinfo id="flow_route_5_duration_20250327_2020.2" depart="41.00" departLane="291974733#0_0" departPos="41.66" departSpeed="0.00" departDelay="1.00" arrival="62.00" arrivalLane="1342054204_0" arrivalPos="68.39" arrivalSpeed="14.68" duration="21.00" routeLength="164.98" waitingTime="0.00" waitingCount="0" stopTime="0.00" timeLoss="8.87" rerouteNo="0" devices="tripinfo_flow_route_5_duration_20250327_2020.2" vType="car" speedFactor="0.88" vaporized=""/>
    <tripinfo id="flow_route_8_duration_20250327_2020.5" depart="29.00" departLane="133000078#0_0" departPos="99.11" departSpeed="0.00" departDelay="1.73" arrival="63.00" arrivalLane="1235147073.116_0" arrivalPos="11.96" arrivalSpeed="16.47" duration="34.00" routeLength="273.02" waitingTime="0.00" waitingCount="0" stopTime="0.00" timeLoss="15.84" rerouteNo="0" devices="tripinfo_flow_route_8_duration_20250327_2020.5" vType="car" speedFactor="1.00" vaporized=""/>
    <tripinfo id="flow_route_23_duration_20250327_2020.0" depart="0.00" departLane="137415945#0_0" departPos="0.59" departSpeed="0.00" departDelay="0.00" arrival="64.00" arrivalLane="379698350#0_2" arrivalPos="153.67" arrivalSpeed="14.17" duration="64.00" routeLength="345.44" waitingTime="19.00" waitingCount="1" stopTime="0.00" timeLoss="39.09" rerouteNo="0" devices="tripinfo_flow_route_23_duration_20250327_2020.0" vType="car" speedFactor="0.86" vaporized=""/>
    <tripinfo id="flow_route_8_duration_20250327_2020.4" depart="22.00" departLane="133000078#0_0" departPos="4.92" departSpeed="0.00" departDelay="0.18" arrival="64.00" arrivalLane="1235147073.116_0" arrivalPos="7.85" arrivalSpeed="16.04" duration="42.00" routeLength="363.11" waitingTime="0.00" waitingCount="0" stopTime="0.00" timeLoss="18.27" rerouteNo="0" devices="tripinfo_flow_route_8_duration_20250327_2020.4" vType="car" speedFactor="0.97" vaporized=""/>
    <tripinfo id="flow_route_4_duration_20250327_2020.0" depart="0.00" departLane="291974733#0_0" departPos="63.06" departSpeed="0.00" departDelay="0.00" arrival="66.00" arrivalLane="379698350#0_0" arrivalPos="183.76" arrivalSpeed="16.17" duration="66.00" routeLength="311.60" waitingTime="28.00" waitingCount="1" stopTime="0.00" timeLoss="46.71" rerouteNo="0" devices="tripinfo_flow_route_4_duration_20250327_2020.0" vType="car" speedFactor="1.06" vaporized=""/>
    <tripinfo id="flow_route_8_duration_20250327_2020.7" depart="39.00" departLane="133000078#0_0" departPos="100.65" departSpeed="0.00" departDelay="0.82" arrival="68.00" arrivalLane="1235147073.116_0" arrivalPos="6.31" arrivalSpeed="16.17" duration="29.00" routeLength="265.84" waitingTime="0.00" waitingCount="0" stopTime="0.00" timeLoss="11.74" rerouteNo="0" devices="tripinfo_flow_route_8_duration_20250327_2020.7" vType="car" speedFactor="1.12" vaporized=""/>
    <tripinfo id="flow_route_8_duration_20250327_2020.6" depart="33.00" departLane="133000078#0_0" departPos="21.24" departSpeed="0.00" departDelay="0.28" arrival="70.00" arrivalLane="1235147073.116_0" arrivalPos="5.81" arrivalSpeed="16.48" duration="37.00" routeLength="344.75" waitingTime="0.00" waitingCount="0" stopTime="0.00" timeLoss="14.82" rerouteNo="0" devices="tripinfo_flow_route_8_duration_20250327_2020.6" vType="car" speedFactor="1.02" vaporized=""/>
    <tripinfo id="flow_route_23_duration_20250327_2020.1" depart="19.00" departLane="137415945#0_0" departPos="2.64" departSpeed="0.00" departDelay="14.72" arrival="74.00" arrivalLane="379698350#0_2" arrivalPos="112.26" arrivalSpeed="14.34" duration="55.00" routeLength="301.97" waitingTime="5.00" waitingCount="2" stopTime="0.00" timeLoss="36.53" rerouteNo="0" devices="tripinfo_flow_route_23_duration_20250327_2020.1" vType="car" speedFactor="1.12" vaporized=""/>
    <tripinfo id="flow_route_4_duration_20250327_2020.2" depart="40.00" departLane="291974733#0_0" departPos="19.44" departSpeed="0.00" departDelay="0.00" arrival="75.00" arrivalLane="379698350#0_0" arrivalPos="193.08" arrivalSpeed="15.27" duration="35.00" routeLength="364.53" waitingTime="0.00" waitingCount="0" stopTime="0.00" timeLoss="11.48" rerouteNo="0" devices="tripinfo_flow_route_4_duration_20250327_2020.2" vType="car" speedFactor="0.94" vaporized=""/>
    <tripinfo id="flow_route_23_duration_20250327_2020.3" depart="44.00" departLane="137415945#0_0" departPos="1.46" departSpeed="0.00" departDelay="31.15" arrival="77.00" arrivalLane="379698350#0_2" arrivalPos="101.59" arrivalSpeed="14.41" duration="33.00" routeLength="292.48" waitingTime="0.00" waitingCount="0" stopTime="0.00" timeLoss="11.88" rerouteNo="0" devices="tripinfo_flow_route_23_duration_20250327_2020.3" vType="car" speedFactor="0.87" vaporized=""/>
    <tripinfo id="flow_route_8_duration_20250327_2020.8" depart="44.00" departLane="133000078#0_0" departPos="46.66" departSpeed="0.00" departDelay="0.37" arrival="79.00" arrivalLane="1235147073.116_0" arrivalPos="12.09" arrivalSpeed="15.88" duration="35.00" routeLength="325.61" waitingTime="0.00" waitingCount="0" stopTime="0.00" timeLoss="13.33" rerouteNo="0" devices="tripinfo_flow_route_8_duration_20250327_2020.8" vType="car" speedFactor="0.97" vaporized=""/>
    <tripinfo id="flow_route_23_duration_20250327_2020.2" depart="31.00" departLane="137415945#0_0" departPos="4.39" departSpeed="0.00" departDelay="22.43" arrival="81.00" arrivalLane="379698350#0_2" arrivalPos="198.93" arrivalSpeed="15.46" duration="50.00" routeLength="386.89" waitingTime="3.00" waitingCount="1" stopTime="0.00" timeLoss="24.89" rerouteNo="0" devices="tripinfo_flow_route_23_duration_20250327_2020.2" vType="car" speedFactor="0.94" vaporized=""/>
    <tripinfo id="flow_route_6_duration_20250327_2020.6" depart="40.00" departLane="1252820505#0_0" departPos="38.81" departSpeed="0.00" departDelay="0.00" arrival="82.00" arrivalLane="379698350#0_0" arrivalPos="95.47" arrivalSpeed="14.81" duration="42.00" routeLength="216.02" waitingTime="7.00" waitingCount="1" stopTime="0.00" timeLoss="26.75" rerouteNo="0" devices="tripinfo_flow_route_6_duration_20250327_2020.6" vType="car" speedFactor="0.91" vaporized=""/>
    <tripinfo id="flow_route_6_duration_20250327_2020.3" depart="23.00" departLane="1252820505#0_0" departPos="9.10" departSpeed="0.00" departDelay="3.00" arrival="83.00" arrivalLane="379698350#0_0" arrivalPos="148.88" arrivalSpeed="16.28" duration="60.00" routeLength="299.15" waitingTime="16.00" waitingCount="1" stopTime="0.00" timeLoss="41.67" rerouteNo="0" devices="tripinfo_flow_route_6_duration_20250327_2020.3" vType="car" speedFactor="0.99" vaporized=""/>
    <tripinfo id="flow_route_6_duration_20250327_2020.7" depart="47.00" departLane="1252820505#0_0" departPos="16.56" departSpeed="0.00" departDelay="0.34" arrival="83.00" arrivalLane="379698350#0_0" arrivalPos="66.17" arrivalSpeed="14.88" duration="36.00" routeLength="208.98" waitingTime="1.00" waitingCount="1" stopTime="0.00" timeLoss="23.04" rerouteNo="0" devices="tripinfo_flow_route_6_duration_20250327_2020.7" vType="car" speedFactor="1.06" vaporized=""/>
    <tripinfo id="flow_route_6_duration_20250327_2020.5" depart="34.00" departLane="1252820505#0_0" departPos="1.27" departSpeed="0.00" departDelay="0.67" arrival="88.00" arrivalLane="379698350#0_0" arrivalPos="176.66" arrivalSpeed="16.36" duration="54.00" routeLength="334.76" waitingTime="5.00" waitingCount="1" stopTime="0.00" timeLoss="33.74" rerouteNo="0" devices="tripinfo_flow_route_6_duration_20250327_2020.5" vType="car" speedFactor="1.00" vaporized=""/>
    <tripinfo id="flow_route_6_duration_20250327_2020.8" depart="58.00" departLane="1252820505#0_0" departPos="38.85" departSpeed="0.00" departDelay="4.67" arrival="88.00" arrivalLane="379698350#0_0" arrivalPos="124.68" arrivalSpeed="15.89" duration="30.00" routeLength="245.20" waitingTime="0.00" waitingCount="0" stopTime="0.00" timeLoss="14.70" rerouteNo="0" devices="tripinfo_flow_route_6_duration_20250327_2020.8" vType="car" speedFactor="0.97" vaporized=""/>
    <tripinfo id="flow_route_8_duration_20250327_2020.10" depart="55.00" departLane="133000078#0_0" departPos="47.56" departSpeed="0.00" departDelay="0.46" arrival="91.00" arrivalLane="1235147073.116_0" arrivalPos="1.68" arrivalSpeed="15.32" duration="36.00" routeLength="314.30" waitingTime="0.00" waitingCount="0" stopTime="0.00" timeLoss="15.82" rerouteNo="0" devices="tripinfo_flow_route_8_duration_20250327_2020.10" vType="car" speedFactor="0.98" vaporized=""/>
    <tripinfo id="flow_route_7_duration_20250327_2020.0" depart="0.00" departLane="133000078#0_0" departPos="116.92" departSpeed="0.00" departDelay="0.00" arrival="93.00" arrivalLane="137406408#0_2" arrivalPos="45.36" arrivalSpeed="14.30" duration="93.00" routeLength="233.24" waitingTime="57.00" waitingCount="1" stopTime="0.00" timeLoss="78.83" rerouteNo="0" devices="tripinfo_flow_route_7_duration_20250327_2020.0" vType="car" speedFactor="1.08" vaporized=""/>
    <tripinfo id="flow_route_8_duration_20250327_2020.9" depart="50.00" departLane="133000078#0_0" departPos="24.66" departSpeed="0.00" departDelay="0.91" arrival="94.00" arrivalLane="1235147073.116_0" arrivalPos="0.53" arrivalSpeed="16.19" duration="44.00" routeLength="336.05" waitingTime="0.00" waitingCount="0" stopTime="0.00" timeLoss="22.11" rerouteNo="0" devices="tripinfo_flow_route_8_duration_20250327_2020.9" vType="car" speedFactor="1.01" vaporized=""/>
    <tripinfo id="flow_route_7_duration_20250327_2020.1" depart="30.00" departLane="133000078#0_0" departPos="186.75" departSpeed="0.00" departDelay="0.00" arrival="97.00" arrivalLane="137406408#0_1" arrivalPos="3.93" arrivalSpeed="13.34" duration="67.00" routeLength="121.99" waitingTime="41.00" waitingCount="1" stopTime="0.00" timeLoss="57.96" rerouteNo="0" devices="tripinfo_flow_route_7_duration_20250327_2020.1" vType="car" speedFactor="0.88" vaporized=""/>
    <tripinfo id="flow_route_12_duration_20250327_2020.1" depart="12.00" departLane="133000078#0_0" departPos="198.21" departSpeed="0.00" departDelay="0.00" arrival="98.00" arrivalLane="1342054204_3" arrivalPos="52.01" arrivalSpeed="14.82" duration="86.00" routeLength="151.60" waitingTime="61.00" waitingCount="1" stopTime="0.00" timeLoss="75.41" rerouteNo="0" devices="tripinfo_flow_route_12_duration_20250327_2020.1" vType="car" speedFactor="0.89" vaporized=""/>
    <tripinfo id="flow_route_12_duration_20250327_2020.0" depart="0.00" departLane="133000078#0_0" departPos="66.48" departSpeed="0.00" departDelay="0.00" arrival="100.00" arrivalLane="1342054204_3" arrivalPos="21.59" arrivalSpeed="12.28" duration="100.00" routeLength="252.91" waitingTime="58.00" waitingCount="2" stopTime="0.00" timeLoss="82.47" rerouteNo="0" devices="tripinfo_flow_route_12_duration_20250327_2020.0" vType="car" speedFactor="0.89" vaporized=""/>
    <tripinfo id="flow_route_12_duration_20250327_2020.2" depart="24.00" departLane="133000078#0_0" departPos="146.76" departSpeed="0.00" departDelay="0.00" arrival="104.00" arrivalLane="1342054204_3" arrivalPos="54.54" arrivalSpeed="14.51" duration="80.00" routeLength="205.58" waitingTime="43.00" waitingCount="2" stopTime="0.00" timeLoss="67.25" rerouteNo="0" devices="tripinfo_flow_route_12_duration_20250327_2020.2" vType="car" speedFactor="1.03" vaporized=""/>
    <tripinfo id="flow_route_12_duration_20250327_2020.3" depart="36.00" departLane="133000078#0_0" departPos="69.97" departSpeed="0.00" departDelay="0.00" arrival="104.00" arrivalLane="1342054204_3" arrivalPos="30.17" arrivalSpeed="13.81" duration="68.00" routeLength="258.00" waitingTime="23.00" waitingCount="2" stopTime="0.00" timeLoss="51.66" rerouteNo="0" devices="tripinfo_flow_route_12_duration_20250327_2020.3" vType="car" speedFactor="0.97" vaporized=""/>
    <tripinfo id="flow_route_12_duration_20250327_2020.4" depart="48.00" departLane="133000078#0_0" departPos="83.28" departSpeed="0.00" departDelay="0.00" arrival="110.00" arrivalLane="1342054204_3" arrivalPos="82.06" arrivalSpeed="16.28" duration="62.00" routeLength="296.58" waitingTime="13.00" waitingCount="2" stopTime="0.00" timeLoss="43.11" rerouteNo="0" devices="tripinfo_flow_route_12_duration_20250327_2020.4" vType="car" speedFactor="0.98" vaporized=""/>
    <tripinfo id="flow_route_22_duration_20250327_2020.3" depart="22.00" departLane="137415945#0_0" departPos="5.31" departSpeed="0.00" departDelay="15.57" arrival="138.00" arrivalLane="1342054204_1" arrivalPos="2.60" arrivalSpeed="9.69" duration="116.00" routeLength="190.62" waitingTime="82.00" waitingCount="1" stopTime="0.00" timeLoss="102.78" rerouteNo="0" devices="tripinfo_flow_route_22_duration_20250327_2020.3" vType="car" speedFactor="0.88" vaporized=""/>
    <tripinfo id="flow_route_22_duration_20250327_2020.2" depart="14.00" departLane="137415945#0_0" departPos="2.33" departSpeed="0.00" departDelay="9.72" arrival="140.00" arrivalLane="1342054204_0" arrivalPos="34.59" arrivalSpeed="11.85" duration="126.00" routeLength="225.59" waitingTime="91.00" waitingCount="1" stopTime="0.00" timeLoss="112.16" rerouteNo="0" devices="tripinfo_flow_route_22_duration_20250327_2020.2" vType="car" speedFactor="1.05" vaporized=""/>
    <tripinfo id="flow_route_24_duration_20250327_2020.1" depart="34.00" departLane="137415945#0_0" departPos="8.16" departSpeed="0.00" departDelay="25.43" arrival="142.00" arrivalLane="137406408#0_0" arrivalPos="24.37" arrivalSpeed="11.24" duration="108.00" routeLength="185.21" waitingTime="74.00" waitingCount="1" stopTime="0.00" timeLoss="96.42" rerouteNo="0" devices="tripinfo_flow_route_24_duration_20250327_2020.1" vType="car" speedFactor="1.16" vaporized=""/>
    <tripinfo id="flow_route_22_duration_20250327_2020.6" depart="39.00" departLane="137415945#0_0" departPos="10.43" departSpeed="0.00" departDelay="26.15" arrival="142.00" arrivalLane="1342054204_1" arrivalPos="26.85" arrivalSpeed="11.30" duration="103.00" routeLength="209.75" waitingTime="67.00" waitingCount="1" stopTime="0.00" timeLoss="87.74" rerouteNo="0" devices="tripinfo_flow_route_22_duration_20250327_2020.6" vType="car" speedFactor="0.83" vaporized=""/>
    <tripinfo id="flow_route_22_duration_20250327_2020.4" depart="26.00" departLane="137415945#0_0" departPos="5.23" departSpeed="0.00" departDelay="17.43" arrival="143.00" arrivalLane="1342054204_0" arrivalPos="35.88" arrivalSpeed="12.66" duration="117.00" routeLength="223.98" waitingTime="79.00" waitingCount="1" stopTime="0.00" timeLoss="102.03" rerouteNo="0" devices="tripinfo_flow_route_22_duration_20250327_2020.4" vType="car" speedFactor="0.94" vaporized=""/>
    <tripinfo id="flow_route_24_duration_20250327_2020.2" depart="58.00" departLane="137415945#0_0" departPos="4.41" departSpeed="0.00" departDelay="40.86" arrival="144.00" arrivalLane="137406408#0_0" arrivalPos="7.94" arrivalSpeed="11.19" duration="86.00" routeLength="172.53" waitingTime="53.00" waitingCount="1" stopTime="0.00" timeLoss="75.17" rerouteNo="0" devices="tripinfo_flow_route_24_duration_20250327_2020.2" vType="car" speedFactor="1.15" vaporized=""/>
    <tripinfo id="flow_route_22_duration_20250327_2020.7" depart="47.00" departLane="137415945#0_0" departPos="3.19" departSpeed="0.00" departDelay="32.01" arrival="146.00" arrivalLane="1342054204_1" arrivalPos="24.32" arrivalSpeed="12.61" duration="99.00" routeLength="214.46" waitingTime="62.00" waitingCount="1" stopTime="0.00" timeLoss="85.26" rerouteNo="0" devices="tripinfo_flow_route_22_duration_20250327_2020.7" vType="car" speedFactor="0.95" vaporized=""/>
    <tripinfo id="flow_route_22_duration_20250327_2020.8" depart="47.00" departLane="137415945#0_0" departPos="10.83" departSpeed="0.00" departDelay="29.86" arrival="146.00" arrivalLane="1342054204_0" arrivalPos="27.38" arrivalSpeed="13.62" duration="99.00" routeLength="209.88" waitingTime="63.00" waitingCount="1" stopTime="0.00" timeLoss="84.70" rerouteNo="0" devices="tripinfo_flow_route_22_duration_20250327_2020.8" vType="car" speedFactor="0.93" vaporized=""/>
    <tripinfo id="flow_route_10_duration_20250327_2020.3" depart="40.00" departLane="1252820505#0_0" departPos="28.93" departSpeed="0.00" departDelay="4.00" arrival="146.00" arrivalLane="1235147073.116_2" arrivalPos="2.56" arrivalSpeed="16.52" duration="106.00" routeLength="241.37" waitingTime="69.00" waitingCount="1" stopTime="0.00" timeLoss="90.99" rerouteNo="0" devices="tripinfo_flow_route_10_duration_20250327_2020.3" vType="car" speedFactor="1.02" vaporized=""/>
    <tripinfo id="flow_route_22_duration_20250327_2020.5" depart="38.00" departLane="137415945#0_0" departPos="0.15" departSpeed="0.00" departDelay="27.29" arrival="147.00" arrivalLane="1342054204_1" arrivalPos="70.80" arrivalSpeed="14.46" duration="109.00" routeLength="263.99" waitingTime="66.00" waitingCount="1" stopTime="0.00" timeLoss="93.01" rerouteNo="0" devices="tripinfo_flow_route_22_duration_20250327_2020.5" vType="car" speedFactor="1.01" vaporized=""/>
    <tripinfo id="flow_route_10_duration_20250327_2020.2" depart="28.00" departLane="1252820505#0_0" departPos="10.80" departSpeed="0.00" departDelay="4.00" arrival="147.00" arrivalLane="1235147073.116_0" arrivalPos="13.40" arrivalSpeed="14.71" duration="119.00" routeLength="270.34" waitingTime="81.00" waitingCount="1" stopTime="0.00" timeLoss="100.28" rerouteNo="0" devices="tripinfo_flow_route_10_duration_20250327_2020.2" vType="car" speedFactor="0.90" vaporized=""/>
    <tripinfo id="flow_route_10_duration_20250327_2020.4" depart="51.00" departLane="1252820505#0_0" departPos="0.64" departSpeed="0.00" departDelay="3.00" arrival="147.00" arrivalLane="1235147073.116_1" arrivalPos="3.65" arrivalSpeed="15.60" duration="96.00" routeLength="270.75" waitingTime="50.00" waitingCount="2" stopTime="0.00" timeLoss="78.51" rerouteNo="0" devices="tripinfo_flow_route_10_duration_20250327_2020.4" vType="car" speedFactor="0.96" vaporized=""/>
    <tripinfo id="flow_route_22_duration_20250327_2020.9" depart="64.00" departLane="137415945#0_0" departPos="4.65" departSpeed="0.00" departDelay="44.72" arrival="148.00" arrivalLane="1342054204_1" arrivalPos="30.69" arrivalSpeed="13.56" duration="84.00" routeLength="219.37" waitingTime="47.00" waitingCount="1" stopTime="0.00" timeLoss="70.72" rerouteNo="0" devices="tripinfo_flow_route_22_duration_20250327_2020.9" vType="car" speedFactor="1.02" vaporized=""/>
    <tripinfo id="flow_route_24_duration_20250327_2020.3" depart="86.00" departLane="137415945#0_0" departPos="3.07" departSpeed="0.00" departDelay="60.29" arrival="151.00" arrivalLane="137406408#0_0" arrivalPos="27.35" arrivalSpeed="13.33" duration="65.00" routeLength="193.28" waitingTime="30.00" waitingCount="1" stopTime="0.00" timeLoss="52.88" rerouteNo="0" devices="tripinfo_flow_route_24_duration_20250327_2020.3" vType="car" speedFactor="1.04" vaporized=""/>
    <tripinfo id="flow_route_22_duration_20250327_2020.10" depart="67.00" departLane="137415945#0_0" departPos="0.62" departSpeed="0.00" departDelay="45.58" arrival="152.00" arrivalLane="1342054204_0" arrivalPos="72.01" arrivalSpeed="15.48" duration="85.00" routeLength="264.72" waitingTime="44.00" waitingCount="1" stopTime="0.00" timeLoss="69.01" rerouteNo="0" devices="tripinfo_flow_route_22_duration_20250327_2020.10" vType="car" speedFactor="1.18" vaporized=""/>
    <tripinfo id="flow_route_22_duration_20250327_2020.13" depart="86.00" departLane="137415945#0_0" departPos="12.66" departSpeed="0.00" departDelay="58.15" arrival="152.00" arrivalLane="1342054204_1" arrivalPos="24.53" arrivalSpeed="13.97" duration="66.00" routeLength="205.20" waitingTime="28.00" waitingCount="1" stopTime="0.00" timeLoss="51.93" rerouteNo="0" devices="tripinfo_flow_route_22_duration_20250327_2020.13" vType="car" speedFactor="0.90" vaporized=""/>
    <tripinfo id="flow_route_22_duration_20250327_2020.12" depart="80.00" departLane="137415945#0_0" departPos="4.90" departSpeed="0.00" departDelay="54.30" arrival="153.00" arrivalLane="1342054204_0" arrivalPos="50.04" arrivalSpeed="15.27" duration="73.00" routeLength="238.47" waitingTime="34.00" waitingCount="1" stopTime="0.00" timeLoss="57.97" rerouteNo="0" devices="tripinfo_flow_route_22_duration_20250327_2020.12" vType="car" speedFactor="1.09" vaporized=""/>
    <tripinfo id="flow_route_22_duration_20250327_2020.11" depart="76.00" departLane="137415945#0_0" departPos="6.45" departSpeed="0.00" departDelay="52.44" arrival="154.00" arrivalLane="1342054204_1" arrivalPos="80.68" arrivalSpeed="15.73" duration="78.00" routeLength="267.56" waitingTime="38.00" waitingCount="1" stopTime="0.00" timeLoss="60.31" rerouteNo="0" devices="tripinfo_flow_route_22_duration_20250327_2020.11" vType="car" speedFactor="0.96" vaporized=""/>
    <tripinfo id="flow_route_22_duration_20250327_2020.14" depart="91.00" departLane="137415945#0_0" departPos="0.14" departSpeed="0.00" departDelay="61.01" arrival="156.00" arrivalLane="1342054204_1" arrivalPos="58.91" arrivalSpeed="13.97" duration="65.00" routeLength="252.10" waitingTime="26.00" waitingCount="1" stopTime="0.00" timeLoss="47.26" rerouteNo="0" devices="tripinfo_flow_route_22_duration_20250327_2020.14" vType="car" speedFactor="0.85" vaporized=""/>