<?xml version="1.0" encoding="UTF-8"?>

<!-- generated on 2025-05-06 21:09:08 by Eclipse SUMO sumo Version 1.20.0
<configuration xmlns:xsi="http://www.w3.org/2001/XMLSchema-instance" xsi:noNamespaceSchemaLocation="http://sumo.dlr.de/xsd/sumoConfiguration.xsd">

    <input>
        <net-file value="osm.net.xml"/>
        <route-files value="xml/route_static_cluster3828547534_cluster_1507433914_2954854770_2954854771_2954854772_#9more_8.rou.xml"/>
    </input>

    <output>
        <tripinfo-output value="xml/tripinfo_static_cluster3828547534_cluster_1507433914_2954854770_2954854771_2954854772_#9more_8.xml"/>
    </output>

    <traci_server>
        <remote-port value="58191"/>
    </traci_server>

</configuration>
-->

<tripinfos xmlns:xsi="http://www.w3.org/2001/XMLSchema-instance" xsi:noNamespaceSchemaLocation="http://sumo.dlr.de/xsd/tripinfo_file.xsd">
    <tripinfo id="flow_route_6_duration_20250327_1930.0" depart="0.00" departLane="1252820505#0_0" departPos="39.30" departSpeed="0.00" departDelay="0.00" arrival="18.00" arrivalLane="379698350#0_0" arrivalPos="9.38" arrivalSpeed="14.11" duration="18.00" routeLength="129.45" waitingTime="0.00" waitingCount="0" stopTime="0.00" timeLoss="9.92" rerouteNo="0" devices="tripinfo_flow_route_6_duration_20250327_1930.0" vType="car" speedFactor="1.01" vaporized=""/>
    <tripinfo id="flow_route_22_duration_20250327_1930.0" depart="0.00" departLane="137415945#0_0" departPos="8.70" departSpeed="0.00" departDelay="0.00" arrival="24.00" arrivalLane="1342054204_0" arrivalPos="47.56" arrivalSpeed="15.23" duration="24.00" routeLength="232.19" waitingTime="0.00" waitingCount="0" stopTime="0.00" timeLoss="8.90" rerouteNo="0" devices="tripinfo_flow_route_22_duration_20250327_1930.0" vType="car" speedFactor="0.94" vaporized=""/>
    <tripinfo id="flow_route_24_duration_20250327_1930.0" depart="4.00" departLane="137415945#0_0" departPos="5.05" departSpeed="0.00" departDelay="4.00" arrival="25.00" arrivalLane="137406408#0_0" arrivalPos="0.56" arrivalSpeed="15.07" duration="21.00" routeLength="164.51" waitingTime="0.00" waitingCount="0" stopTime="0.00" timeLoss="10.96" rerouteNo="0" devices="tripinfo_flow_route_24_duration_20250327_1930.0" vType="car" speedFactor="1.09" vaporized=""/>
    <tripinfo id="flow_route_8_duration_20250327_1930.1" depart="7.00" departLane="133000078#0_0" departPos="199.16" departSpeed="0.00" departDelay="1.55" arrival="28.00" arrivalLane="1235147073.116_0" arrivalPos="11.70" arrivalSpeed="16.07" duration="21.00" routeLength="172.73" waitingTime="0.00" waitingCount="0" stopTime="0.00" timeLoss="9.54" rerouteNo="0" devices="tripinfo_flow_route_8_duration_20250327_1930.1" vType="car" speedFactor="0.99" vaporized=""/>
    <tripinfo id="flow_route_10_duration_20250327_1930.0" depart="0.00" departLane="1252820505#0_0" departPos="5.24" departSpeed="0.00" departDelay="0.00" arrival="30.00" arrivalLane="1235147073.116_0" arrivalPos="0.67" arrivalSpeed="13.57" duration="30.00" routeLength="263.17" waitingTime="0.00" waitingCount="0" stopTime="0.00" timeLoss="10.14" rerouteNo="0" devices="tripinfo_flow_route_10_duration_20250327_1930.0" vType="car" speedFactor="0.83" vaporized=""/>
    <tripinfo id="flow_route_22_duration_20250327_1930.1" depart="9.00" departLane="137415945#0_0" departPos="7.59" departSpeed="0.00" departDelay="7.29" arrival="35.00" arrivalLane="1342054204_0" arrivalPos="55.26" arrivalSpeed="16.42" duration="26.00" routeLength="241.00" waitingTime="0.00" waitingCount="0" stopTime="0.00" timeLoss="11.46" rerouteNo="0" devices="tripinfo_flow_route_22_duration_20250327_1930.1" vType="car" speedFactor="1.03" vaporized=""/>
    <tripinfo id="flow_route_10_duration_20250327_1930.1" depart="10.00" departLane="1252820505#0_0" departPos="42.81" departSpeed="0.00" departDelay="2.50" arrival="35.00" arrivalLane="1235147073.116_1" arrivalPos="2.57" arrivalSpeed="16.27" duration="25.00" routeLength="227.50" waitingTime="0.00" waitingCount="0" stopTime="0.00" timeLoss="11.17" rerouteNo="0" devices="tripinfo_flow_route_10_duration_20250327_1930.1" vType="car" speedFactor="1.02" vaporized=""/>
    <tripinfo id="flow_route_6_duration_20250327_1930.1" depart="8.00" departLane="1252820505#0_0" departPos="20.98" departSpeed="0.00" departDelay="0.50" arrival="37.00" arrivalLane="379698350#0_0" arrivalPos="46.02" arrivalSpeed="13.83" duration="29.00" routeLength="184.41" waitingTime="0.00" waitingCount="0" stopTime="0.00" timeLoss="17.15" rerouteNo="0" devices="tripinfo_flow_route_6_duration_20250327_1930.1" vType="car" speedFactor="1.16" vaporized=""/>
    <tripinfo id="flow_route_10_duration_20250327_1930.2" depart="17.00" departLane="1252820505#0_0" departPos="84.91" departSpeed="0.00" departDelay="2.00" arrival="39.00" arrivalLane="1235147073.116_0" arrivalPos="5.39" arrivalSpeed="16.44" duration="22.00" routeLength="188.22" waitingTime="0.00" waitingCount="0" stopTime="0.00" timeLoss="10.59" rerouteNo="0" devices="tripinfo_flow_route_10_duration_20250327_1930.2" vType="car" speedFactor="0.99" vaporized=""/>
    <tripinfo id="flow_route_11_duration_20250327_1930.1" depart="12.00" departLane="1252820505#0_0" departPos="15.56" departSpeed="0.00" departDelay="0.00" arrival="46.00" arrivalLane="137406408#0_2" arrivalPos="25.74" arrivalSpeed="9.88" duration="34.00" routeLength="171.76" waitingTime="2.00" waitingCount="1" stopTime="0.00" timeLoss="23.52" rerouteNo="0" devices="tripinfo_flow_route_11_duration_20250327_1930.1" vType="car" speedFactor="1.13" vaporized=""/>
    <tripinfo id="flow_route_11_duration_20250327_1930.0" depart="0.00" departLane="1252820505#0_0" departPos="76.11" departSpeed="0.00" departDelay="0.00" arrival="47.00" arrivalLane="137406408#0_2" arrivalPos="68.60" arrivalSpeed="12.48" duration="47.00" routeLength="154.08" waitingTime="18.00" waitingCount="1" stopTime="0.00" timeLoss="37.62" rerouteNo="0" devices="tripinfo_flow_route_11_duration_20250327_1930.0" vType="car" speedFactor="1.05" vaporized=""/>
    <tripinfo id="flow_route_8_duration_20250327_1930.0" depart="0.00" departLane="133000078#0_0" departPos="54.62" departSpeed="0.00" departDelay="0.00" arrival="48.00" arrivalLane="1235147073.116_0" arrivalPos="9.03" arrivalSpeed="16.18" duration="48.00" routeLength="314.60" waitingTime="4.00" waitingCount="1" stopTime="0.00" timeLoss="27.74" rerouteNo="0" devices="tripinfo_flow_route_8_duration_20250327_1930.0" vType="car" speedFactor="1.03" vaporized=""/>
    <tripinfo id="flow_route_10_duration_20250327_1930.3" depart="24.00" departLane="1252820505#0_0" departPos="78.61" departSpeed="0.00" departDelay="1.50" arrival="48.00" arrivalLane="1235147073.116_1" arrivalPos="10.92" arrivalSpeed="14.50" duration="24.00" routeLength="200.05" waitingTime="0.00" waitingCount="0" stopTime="0.00" timeLoss="10.05" rerouteNo="0" devices="tripinfo_flow_route_10_duration_20250327_1930.3" vType="car" speedFactor="0.88" vaporized=""/>
    <tripinfo id="flow_route_6_duration_20250327_1930.2" depart="17.00" departLane="1252820505#0_0" departPos="31.74" departSpeed="0.00" departDelay="2.00" arrival="50.00" arrivalLane="379698350#0_0" arrivalPos="148.88" arrivalSpeed="16.32" duration="33.00" routeLength="276.51" waitingTime="0.00" waitingCount="0" stopTime="0.00" timeLoss="16.13" rerouteNo="0" devices="tripinfo_flow_route_6_duration_20250327_1930.2" vType="car" speedFactor="1.17" vaporized=""/>
    <tripinfo id="flow_route_5_duration_20250327_1930.1" depart="7.00" departLane="291974733#0_0" departPos="24.74" departSpeed="0.00" departDelay="0.33" arrival="55.00" arrivalLane="1342054204_0" arrivalPos="11.29" arrivalSpeed="10.00" duration="48.00" routeLength="124.79" waitingTime="19.00" waitingCount="1" stopTime="0.00" timeLoss="38.96" rerouteNo="0" devices="tripinfo_flow_route_5_duration_20250327_1930.1" vType="car" speedFactor="0.94" vaporized=""/>
    <tripinfo id="flow_route_8_duration_20250327_1930.2" depart="11.00" departLane="133000078#0_0" departPos="31.35" departSpeed="0.00" departDelay="0.09" arrival="55.00" arrivalLane="1235147073.116_0" arrivalPos="2.58" arrivalSpeed="13.32" duration="44.00" routeLength="331.41" waitingTime="1.00" waitingCount="1" stopTime="0.00" timeLoss="18.00" rerouteNo="0" devices="tripinfo_flow_route_8_duration_20250327_1930.2" vType="car" speedFactor="0.83" vaporized=""/>
    <tripinfo id="flow_route_5_duration_20250327_1930.0" depart="0.00" departLane="291974733#0_0" departPos="43.68" departSpeed="0.00" departDelay="0.00" arrival="57.00" arrivalLane="1342054204_0" arrivalPos="62.15" arrivalSpeed="13.10" duration="57.00" routeLength="156.72" waitingTime="26.00" waitingCount="1" stopTime="0.00" timeLoss="45.82" rerouteNo="0" devices="tripinfo_flow_route_5_duration_20250327_1930.0" vType="car" speedFactor="0.94" vaporized=""/>
    <tripinfo id="flow_route_5_duration_20250327_1930.2" depart="14.00" departLane="291974733#0_0" departPos="7.50" departSpeed="0.00" departDelay="0.67" arrival="60.00" arrivalLane="1342054204_0" arrivalPos="49.47" arrivalSpeed="13.39" duration="46.00" routeLength="180.23" waitingTime="13.00" waitingCount="1" stopTime="0.00" timeLoss="34.47" rerouteNo="0" devices="tripinfo_flow_route_5_duration_20250327_1930.2" vType="car" speedFactor="1.15" vaporized=""/>
    <tripinfo id="flow_route_4_duration_20250327_1930.1" depart="35.00" departLane="291974733#0_0" departPos="21.34" departSpeed="0.00" departDelay="5.00" arrival="60.00" arrivalLane="379698350#0_1" arrivalPos="69.89" arrivalSpeed="16.55" duration="25.00" routeLength="239.45" waitingTime="0.00" waitingCount="0" stopTime="0.00" timeLoss="10.56" rerouteNo="0" devices="tripinfo_flow_route_4_duration_20250327_1930.1" vType="car" speedFactor="1.08" vaporized=""/>
    <tripinfo id="flow_route_6_duration_20250327_1930.4" depart="32.00" departLane="1252820505#0_0" departPos="68.15" departSpeed="0.00" departDelay="2.00" arrival="62.00" arrivalLane="379698350#0_0" arrivalPos="0.18" arrivalSpeed="10.15" duration="30.00" routeLength="91.40" waitingTime="9.00" waitingCount="1" stopTime="0.00" timeLoss="24.44" rerouteNo="0" devices="tripinfo_flow_route_6_duration_20250327_1930.4" vType="car" speedFactor="1.12" vaporized=""/>
    <tripinfo id="flow_route_4_duration_20250327_1930.0" depart="0.00" departLane="291974733#0_0" departPos="63.06" departSpeed="0.00" departDelay="0.00" arrival="65.00" arrivalLane="379698350#0_0" arrivalPos="183.76" arrivalSpeed="16.47" duration="65.00" routeLength="311.60" waitingTime="28.00" waitingCount="1" stopTime="0.00" timeLoss="46.20" rerouteNo="0" devices="tripinfo_flow_route_4_duration_20250327_1930.0" vType="car" speedFactor="1.06" vaporized=""/>
    <tripinfo id="flow_route_5_duration_20250327_1930.3" depart="25.00" departLane="291974733#0_0" departPos="25.98" departSpeed="0.00" departDelay="5.00" arrival="65.00" arrivalLane="1342054204_0" arrivalPos="76.22" arrivalSpeed="13.74" duration="40.00" routeLength="188.49" waitingTime="6.00" waitingCount="1" stopTime="0.00" timeLoss="28.09" rerouteNo="0" devices="tripinfo_flow_route_5_duration_20250327_1930.3" vType="car" speedFactor="1.09" vaporized=""/>
    <tripinfo id="flow_route_5_duration_20250327_1930.4" depart="33.00" departLane="291974733#0_0" departPos="30.30" departSpeed="0.00" departDelay="6.34" arrival="66.00" arrivalLane="1342054204_0" arrivalPos="55.93" arrivalSpeed="13.44" duration="33.00" routeLength="163.87" waitingTime="2.00" waitingCount="1" stopTime="0.00" timeLoss="20.54" rerouteNo="0" devices="tripinfo_flow_route_5_duration_20250327_1930.4" vType="car" speedFactor="0.90" vaporized=""/>
    <tripinfo id="flow_route_6_duration_20250327_1930.3" depart="24.00" departLane="1252820505#0_0" departPos="13.35" departSpeed="0.00" departDelay="1.50" arrival="67.00" arrivalLane="379698350#0_0" arrivalPos="25.64" arrivalSpeed="12.35" duration="43.00" routeLength="171.66" waitingTime="8.00" waitingCount="1" stopTime="0.00" timeLoss="31.42" rerouteNo="0" devices="tripinfo_flow_route_6_duration_20250327_1930.3" vType="car" speedFactor="0.90" vaporized=""/>
    <tripinfo id="flow_route_5_duration_20250327_1930.5" depart="38.00" departLane="291974733#0_0" departPos="3.24" departSpeed="0.00" departDelay="4.67" arrival="69.00" arrivalLane="1342054204_0" arrivalPos="69.94" arrivalSpeed="14.10" duration="31.00" routeLength="204.94" waitingTime="0.00" waitingCount="0" stopTime="0.00" timeLoss="17.75" rerouteNo="0" devices="tripinfo_flow_route_5_duration_20250327_1930.5" vType="car" speedFactor="1.02" vaporized=""/>
    <tripinfo id="flow_route_23_duration_20250327_1930.0" depart="0.00" departLane="137415945#0_0" departPos="0.59" departSpeed="0.00" departDelay="0.00" arrival="71.00" arrivalLane="379698350#0_2" arrivalPos="153.67" arrivalSpeed="14.25" duration="71.00" routeLength="345.44" waitingTime="19.00" waitingCount="1" stopTime="0.00" timeLoss="45.77" rerouteNo="0" devices="tripinfo_flow_route_23_duration_20250327_1930.0" vType="car" speedFactor="0.86" vaporized=""/>
    <tripinfo id="flow_route_5_duration_20250327_1930.6" depart="41.00" departLane="291974733#0_0" departPos="1.09" departSpeed="0.00" departDelay="1.00" arrival="71.00" arrivalLane="1342054204_0" arrivalPos="69.16" arrivalSpeed="14.81" duration="30.00" routeLength="206.32" waitingTime="1.00" waitingCount="1" stopTime="0.00" timeLoss="16.19" rerouteNo="0" devices="tripinfo_flow_route_5_duration_20250327_1930.6" vType="car" speedFactor="1.02" vaporized=""/>
    <tripinfo id="flow_route_5_duration_20250327_1930.8" depart="55.00" departLane="291974733#0_0" departPos="53.45" departSpeed="0.00" departDelay="1.67" arrival="72.00" arrivalLane="1342054204_0" arrivalPos="16.02" arrivalSpeed="11.32" duration="17.00" routeLength="100.83" waitingTime="0.00" waitingCount="0" stopTime="0.00" timeLoss="10.18" rerouteNo="0" devices="tripinfo_flow_route_5_duration_20250327_1930.8" vType="car" speedFactor="1.03" vaporized=""/>
    <tripinfo id="flow_route_23_duration_20250327_1930.2" depart="46.00" departLane="137415945#0_0" departPos="7.33" departSpeed="0.00" departDelay="35.09" arrival="75.00" arrivalLane="379698350#0_2" arrivalPos="37.82" arrivalSpeed="11.79" duration="29.00" routeLength="222.84" waitingTime="0.00" waitingCount="0" stopTime="0.00" timeLoss="13.82" rerouteNo="0" devices="tripinfo_flow_route_23_duration_20250327_1930.2" vType="car" speedFactor="0.92" vaporized=""/>
    <tripinfo id="flow_route_23_duration_20250327_1930.1" depart="25.00" departLane="137415945#0_0" departPos="5.48" departSpeed="0.00" departDelay="19.55" arrival="76.00" arrivalLane="379698350#0_2" arrivalPos="197.29" arrivalSpeed="14.53" duration="51.00" routeLength="384.15" waitingTime="0.00" waitingCount="0" stopTime="0.00" timeLoss="23.54" rerouteNo="0" devices="tripinfo_flow_route_23_duration_20250327_1930.1" vType="car" speedFactor="0.88" vaporized=""/>
    <tripinfo id="flow_route_6_duration_20250327_1930.5" depart="38.00" departLane="1252820505#0_0" departPos="65.15" departSpeed="0.00" departDelay="0.50" arrival="78.00" arrivalLane="379698350#0_0" arrivalPos="163.55" arrivalSpeed="16.22" duration="40.00" routeLength="257.77" waitingTime="7.00" waitingCount="1" stopTime="0.00" timeLoss="23.84" rerouteNo="0" devices="tripinfo_flow_route_6_duration_20250327_1930.5" vType="car" speedFactor="1.03" vaporized=""/>
    <tripinfo id="flow_route_5_duration_20250327_1930.7" depart="47.00" departLane="291974733#0_0" departPos="3.71" departSpeed="0.00" departDelay="0.34" arrival="81.00" arrivalLane="1342054204_0" arrivalPos="80.10" arrivalSpeed="14.75" duration="34.00" routeLength="214.65" waitingTime="0.00" waitingCount="0" stopTime="0.00" timeLoss="18.87" rerouteNo="0" devices="tripinfo_flow_route_5_duration_20250327_1930.7" vType="car" speedFactor="0.92" vaporized=""/>
    <tripinfo id="flow_route_12_duration_20250327_1930.1" depart="6.00" departLane="133000078#0_0" departPos="141.45" departSpeed="0.00" departDelay="1.72" arrival="92.00" arrivalLane="1342054204_3" arrivalPos="20.65" arrivalSpeed="13.16" duration="86.00" routeLength="177.00" waitingTime="51.00" waitingCount="1" stopTime="0.00" timeLoss="74.63" rerouteNo="0" devices="tripinfo_flow_route_12_duration_20250327_1930.1" vType="car" speedFactor="1.12" vaporized=""/>
    <tripinfo id="flow_route_7_duration_20250327_1930.0" depart="0.00" departLane="133000078#0_0" departPos="116.92" departSpeed="0.00" departDelay="0.00" arrival="93.00" arrivalLane="137406408#0_1" arrivalPos="45.36" arrivalSpeed="14.12" duration="93.00" routeLength="233.24" waitingTime="57.00" waitingCount="1" stopTime="0.00" timeLoss="78.85" rerouteNo="0" devices="tripinfo_flow_route_7_duration_20250327_1930.0" vType="car" speedFactor="1.08" vaporized=""/>
    <tripinfo id="flow_route_12_duration_20250327_1930.0" depart="0.00" departLane="133000078#0_0" departPos="66.48" departSpeed="0.00" departDelay="0.00" arrival="93.00" arrivalLane="1342054204_3" arrivalPos="21.59" arrivalSpeed="13.38" duration="93.00" routeLength="252.91" waitingTime="49.00" waitingCount="1" stopTime="0.00" timeLoss="75.74" rerouteNo="0" devices="tripinfo_flow_route_12_duration_20250327_1930.0" vType="car" speedFactor="0.89" vaporized=""/>
    <tripinfo id="flow_route_7_duration_20250327_1930.1" depart="12.00" departLane="133000078#0_0" departPos="13.83" departSpeed="0.00" departDelay="0.00" arrival="99.00" arrivalLane="137406408#0_1" arrivalPos="2.57" arrivalSpeed="12.50" duration="87.00" routeLength="293.54" waitingTime="43.00" waitingCount="3" stopTime="0.00" timeLoss="67.96" rerouteNo="0" devices="tripinfo_flow_route_7_duration_20250327_1930.1" vType="car" speedFactor="0.95" vaporized=""/>
    <tripinfo id="flow_route_8_duration_20250327_1930.4" depart="22.00" departLane="133000078#0_0" departPos="58.06" departSpeed="0.00" departDelay="0.18" arrival="99.00" arrivalLane="1235147073.116_0" arrivalPos="10.71" arrivalSpeed="16.59" duration="77.00" routeLength="312.83" waitingTime="31.00" waitingCount="1" stopTime="0.00" timeLoss="56.60" rerouteNo="0" devices="tripinfo_flow_route_8_duration_20250327_1930.4" vType="car" speedFactor="1.04" vaporized=""/>
    <tripinfo id="flow_route_12_duration_20250327_1930.2" depart="10.00" departLane="133000078#0_0" departPos="119.77" departSpeed="0.00" departDelay="1.43" arrival="100.00" arrivalLane="1342054204_3" arrivalPos="7.77" arrivalSpeed="11.75" duration="90.00" routeLength="185.79" waitingTime="51.00" waitingCount="2" stopTime="0.00" timeLoss="78.79" rerouteNo="0" devices="tripinfo_flow_route_12_duration_20250327_1930.2" vType="car" speedFactor="1.01" vaporized=""/>
    <tripinfo id="flow_route_8_duration_20250327_1930.3" depart="17.00" departLane="133000078#0_0" departPos="4.92" departSpeed="0.00" departDelay="0.64" arrival="102.00" arrivalLane="1235147073.116_0" arrivalPos="12.64" arrivalSpeed="16.15" duration="85.00" routeLength="367.90" waitingTime="31.00" waitingCount="1" stopTime="0.00" timeLoss="60.56" rerouteNo="0" devices="tripinfo_flow_route_8_duration_20250327_1930.3" vType="car" speedFactor="0.97" vaporized=""/>
    <tripinfo id="flow_route_7_duration_20250327_1930.2" depart="24.00" departLane="133000078#0_0" departPos="71.14" departSpeed="0.00" departDelay="0.00" arrival="102.00" arrivalLane="137406408#0_1" arrivalPos="3.93" arrivalSpeed="13.57" duration="78.00" routeLength="237.59" waitingTime="31.00" waitingCount="2" stopTime="0.00" timeLoss="60.69" rerouteNo="0" devices="tripinfo_flow_route_7_duration_20250327_1930.2" vType="car" speedFactor="0.85" vaporized=""/>
    <tripinfo id="flow_route_12_duration_20250327_1930.11" depart="50.00" departLane="133000078#0_0" departPos="205.36" departSpeed="0.00" departDelay="2.87" arrival="102.00" arrivalLane="1342054204_3" arrivalPos="50.90" arrivalSpeed="14.60" duration="52.00" routeLength="143.34" waitingTime="30.00" waitingCount="1" stopTime="0.00" timeLoss="41.74" rerouteNo="0" devices="tripinfo_flow_route_12_duration_20250327_1930.11" vType="car" speedFactor="0.91" vaporized=""/>
    <tripinfo id="flow_route_8_duration_20250327_1930.5" depart="28.00" departLane="133000078#0_0" departPos="34.59" departSpeed="0.00" departDelay="0.73" arrival="103.00" arrivalLane="1235147073.116_0" arrivalPos="8.41" arrivalSpeed="16.16" duration="75.00" routeLength="334.00" waitingTime="30.00" waitingCount="1" stopTime="0.00" timeLoss="54.20" rerouteNo="0" devices="tripinfo_flow_route_8_duration_20250327_1930.5" vType="car" speedFactor="1.14" vaporized=""/>
    <tripinfo id="flow_route_12_duration_20250327_1930.5" depart="22.00" departLane="133000078#0_0" departPos="147.06" departSpeed="0.00" departDelay="0.58" arrival="106.00" arrivalLane="1342054204_3" arrivalPos="8.86" arrivalSpeed="13.46" duration="84.00" routeLength="159.60" waitingTime="50.00" waitingCount="2" stopTime="0.00" timeLoss="74.01" rerouteNo="0" devices="tripinfo_flow_route_12_duration_20250327_1930.5" vType="car" speedFactor="1.09" vaporized=""/>
    <tripinfo id="flow_route_12_duration_20250327_1930.8" depart="35.00" departLane="133000078#0_0" departPos="189.87" departSpeed="0.00" departDelay="0.72" arrival="106.00" arrivalLane="1342054204_3" arrivalPos="68.87" arrivalSpeed="15.57" duration="71.00" routeLength="176.80" waitingTime="47.00" waitingCount="2" stopTime="0.00" timeLoss="60.22" rerouteNo="0" devices="tripinfo_flow_route_12_duration_20250327_1930.8" vType="car" speedFactor="1.02" vaporized=""/>
    <tripinfo id="flow_route_8_duration_20250327_1930.9" depart="52.00" departLane="133000078#0_0" departPos="159.89" departSpeed="0.00" departDelay="2.91" arrival="106.00" arrivalLane="1235147073.116_0" arrivalPos="2.35" arrivalSpeed="16.39" duration="54.00" routeLength="202.65" waitingTime="25.00" waitingCount="1" stopTime="0.00" timeLoss="40.25" rerouteNo="0" devices="tripinfo_flow_route_8_duration_20250327_1930.9" vType="car" speedFactor="1.10" vaporized=""/>
    <tripinfo id="flow_route_12_duration_20250327_1930.6" depart="26.00" departLane="133000078#0_0" departPos="176.86" departSpeed="0.00" departDelay="0.29" arrival="107.00" arrivalLane="1342054204_3" arrivalPos="59.39" arrivalSpeed="15.88" duration="81.00" routeLength="180.33" waitingTime="52.00" waitingCount="2" stopTime="0.00" timeLoss="70.05" rerouteNo="0" devices="tripinfo_flow_route_12_duration_20250327_1930.6" vType="car" speedFactor="1.10" vaporized=""/>
    <tripinfo id="flow_route_8_duration_20250327_1930.6" depart="34.00" departLane="133000078#0_0" departPos="26.74" departSpeed="0.00" departDelay="1.28" arrival="108.00" arrivalLane="1235147073.116_0" arrivalPos="12.92" arrivalSpeed="14.81" duration="74.00" routeLength="346.36" waitingTime="23.00" waitingCount="1" stopTime="0.00" timeLoss="49.92" rerouteNo="0" devices="tripinfo_flow_route_8_duration_20250327_1930.6" vType="car" speedFactor="0.91" vaporized=""/>
    <tripinfo id="flow_route_7_duration_20250327_1930.3" depart="36.00" departLane="133000078#0_0" departPos="49.23" departSpeed="0.00" departDelay="0.00" arrival="108.00" arrivalLane="137406408#0_1" arrivalPos="29.61" arrivalSpeed="16.20" duration="72.00" routeLength="285.18" waitingTime="23.00" waitingCount="2" stopTime="0.00" timeLoss="53.90" rerouteNo="0" devices="tripinfo_flow_route_7_duration_20250327_1930.3" vType="car" speedFactor="1.06" vaporized=""/>
    <tripinfo id="flow_route_7_duration_20250327_1930.4" depart="48.00" departLane="133000078#0_0" departPos="145.40" departSpeed="0.00" departDelay="0.00" arrival="108.00" arrivalLane="137406408#0_1" arrivalPos="73.38" arrivalSpeed="16.22" duration="60.00" routeLength="232.78" waitingTime="25.00" waitingCount="2" stopTime="0.00" timeLoss="45.54" rerouteNo="0" devices="tripinfo_flow_route_7_duration_20250327_1930.4" vType="car" speedFactor="1.06" vaporized=""/>
    <tripinfo id="flow_route_8_duration_20250327_1930.7" depart="41.00" departLane="133000078#0_0" departPos="22.64" departSpeed="0.00" departDelay="2.82" arrival="110.00" arrivalLane="1235147073.116_0" arrivalPos="10.20" arrivalSpeed="16.17" duration="69.00" routeLength="347.73" waitingTime="22.00" waitingCount="1" stopTime="0.00" timeLoss="46.57" rerouteNo="0" devices="tripinfo_flow_route_8_duration_20250327_1930.7" vType="car" speedFactor="1.09" vaporized=""/>
    <tripinfo id="flow_route_12_duration_20250327_1930.3" depart="16.00" departLane="133000078#0_0" departPos="80.48" departSpeed="0.00" departDelay="3.15" arrival="113.00" arrivalLane="1342054204_3" arrivalPos="86.56" arrivalSpeed="16.57" duration="97.00" routeLength="303.88" waitingTime="50.00" waitingCount="2" stopTime="0.00" timeLoss="77.90" rerouteNo="0" devices="tripinfo_flow_route_12_duration_20250327_1930.3" vType="car" speedFactor="1.18" vaporized=""/>
    <tripinfo id="flow_route_12_duration_20250327_1930.4" depart="19.00" departLane="133000078#0_0" departPos="94.11" departSpeed="0.00" departDelay="1.86" arrival="113.00" arrivalLane="1342054204_3" arrivalPos="26.41" arrivalSpeed="14.31" duration="94.00" routeLength="230.10" waitingTime="49.00" waitingCount="2" stopTime="0.00" timeLoss="79.41" rerouteNo="0" devices="tripinfo_flow_route_12_duration_20250327_1930.4" vType="car" speedFactor="1.10" vaporized=""/>
    <tripinfo id="flow_route_8_duration_20250327_1930.10" depart="55.00" departLane="133000078#0_0" departPos="67.63" departSpeed="0.00" departDelay="0.46" arrival="115.00" arrivalLane="1235147073.116_0" arrivalPos="13.72" arrivalSpeed="15.78" duration="60.00" routeLength="306.27" waitingTime="13.00" waitingCount="1" stopTime="0.00" timeLoss="39.37" rerouteNo="0" devices="tripinfo_flow_route_8_duration_20250327_1930.10" vType="car" speedFactor="0.96" vaporized=""/>
    <tripinfo id="flow_route_8_duration_20250327_1930.8" depart="46.00" departLane="133000078#0_0" departPos="6.51" departSpeed="0.00" departDelay="2.37" arrival="116.00" arrivalLane="1235147073.116_0" arrivalPos="5.31" arrivalSpeed="16.17" duration="70.00" routeLength="358.98" waitingTime="12.00" waitingCount="1" stopTime="0.00" timeLoss="46.90" rerouteNo="0" devices="tripinfo_flow_route_8_duration_20250327_1930.8" vType="car" speedFactor="1.01" vaporized=""/>
    <tripinfo id="flow_route_12_duration_20250327_1930.7" depart="30.00" departLane="133000078#0_0" departPos="23.61" departSpeed="0.00" departDelay="0.01" arrival="118.00" arrivalLane="1342054204_3" arrivalPos="80.13" arrivalSpeed="16.31" duration="88.00" routeLength="354.32" waitingTime="36.00" waitingCount="2" stopTime="0.00" timeLoss="65.71" rerouteNo="0" devices="tripinfo_flow_route_12_duration_20250327_1930.7" vType="car" speedFactor="0.99" vaporized=""/>
    <tripinfo id="flow_route_12_duration_20250327_1930.9" depart="43.00" departLane="133000078#0_0" departPos="47.69" departSpeed="0.00" departDelay="4.44" arrival="118.00" arrivalLane="1342054204_3" arrivalPos="10.42" arrivalSpeed="13.42" duration="75.00" routeLength="260.52" waitingTime="28.00" waitingCount="2" stopTime="0.00" timeLoss="58.92" rerouteNo="0" devices="tripinfo_flow_route_12_duration_20250327_1930.9" vType="car" speedFactor="1.03" vaporized=""/>
    <tripinfo id="flow_route_12_duration_20250327_1930.12" depart="54.00" departLane="133000078#0_0" departPos="134.21" departSpeed="0.00" departDelay="2.58" arrival="120.00" arrivalLane="1342054204_3" arrivalPos="64.49" arrivalSpeed="15.88" duration="66.00" routeLength="228.09" waitingTime="28.00" waitingCount="3" stopTime="0.00" timeLoss="51.46" rerouteNo="0" devices="tripinfo_flow_route_12_duration_20250327_1930.12" vType="car" speedFactor="0.97" vaporized=""/>
    <tripinfo id="flow_route_12_duration_20250327_1930.10" depart="43.00" departLane="133000078#0_0" departPos="38.82" departSpeed="0.00" departDelay="0.15" arrival="126.00" arrivalLane="1342054204_3" arrivalPos="82.18" arrivalSpeed="16.22" duration="83.00" routeLength="341.16" waitingTime="25.00" waitingCount="3" stopTime="0.00" timeLoss="61.95" rerouteNo="0" devices="tripinfo_flow_route_12_duration_20250327_1930.10" vType="car" speedFactor="0.98" vaporized=""/>
    <tripinfo id="flow_route_12_duration_20250327_1930.13" depart="59.00" departLane="133000078#0_0" departPos="29.72" departSpeed="0.00" departDelay="3.30" arrival="128.00" arrivalLane="1342054204_3" arrivalPos="85.00" arrivalSpeed="16.47" duration="69.00" routeLength="353.08" waitingTime="14.00" waitingCount="2" stopTime="0.00" timeLoss="47.68" rerouteNo="0" devices="tripinfo_flow_route_12_duration_20250327_1930.13" vType="car" speedFactor="1.10" vaporized=""/>
    <tripinfo id="flow_route_22_duration_20250327_1930.3" depart="19.00" departLane="137415945#0_0" departPos="5.41" departSpeed="0.00" departDelay="13.86" arrival="139.00" arrivalLane="1342054204_1" arrivalPos="13.88" arrivalSpeed="10.82" duration="120.00" routeLength="201.80" waitingTime="85.00" waitingCount="1" stopTime="0.00" timeLoss="106.77" rerouteNo="0" devices="tripinfo_flow_route_22_duration_20250327_1930.3" vType="car" speedFactor="0.93" vaporized=""/>
    <tripinfo id="flow_route_22_duration_20250327_1930.4" depart="28.00" departLane="137415945#0_0" departPos="11.29" departSpeed="0.00" departDelay="21.14" arrival="141.00" arrivalLane="1342054204_0" arrivalPos="10.94" arrivalSpeed="11.41" duration="113.00" routeLength="192.97" waitingTime="78.00" waitingCount="1" stopTime="0.00" timeLoss="100.17" rerouteNo="0" devices="tripinfo_flow_route_22_duration_20250327_1930.4" vType="car" speedFactor="0.94" vaporized=""/>
    <tripinfo id="flow_route_22_duration_20250327_1930.2" depart="13.00" departLane="137415945#0_0" departPos="4.00" departSpeed="0.00" departDelay="9.57" arrival="143.00" arrivalLane="1342054204_0" arrivalPos="77.43" arrivalSpeed="14.70" duration="130.00" routeLength="266.76" waitingTime="92.00" waitingCount="1" stopTime="0.00" timeLoss="113.63" rerouteNo="0" devices="tripinfo_flow_route_22_duration_20250327_1930.2" vType="car" speedFactor="1.05" vaporized=""/>