<?xml version="1.0" encoding="UTF-8"?>

<!-- generated on 2025-05-06 21:07:56 by Eclipse SUMO sumo Version 1.20.0
<configuration xmlns:xsi="http://www.w3.org/2001/XMLSchema-instance" xsi:noNamespaceSchemaLocation="http://sumo.dlr.de/xsd/sumoConfiguration.xsd">

    <input>
        <net-file value="osm.net.xml"/>
        <route-files value="xml/route_static_cluster3828547534_cluster_1507433914_2954854770_2954854771_2954854772_#9more_1.rou.xml"/>
    </input>

    <output>
        <tripinfo-output value="xml/tripinfo_static_cluster3828547534_cluster_1507433914_2954854770_2954854771_2954854772_#9more_1.xml"/>
    </output>

    <traci_server>
        <remote-port value="51075"/>
    </traci_server>

</configuration>
-->

<tripinfos xmlns:xsi="http://www.w3.org/2001/XMLSchema-instance" xsi:noNamespaceSchemaLocation="http://sumo.dlr.de/xsd/tripinfo_file.xsd">
    <tripinfo id="flow_route_6_duration_20250327_2240.0" depart="0.00" departLane="1252820505#0_0" departPos="39.30" departSpeed="0.00" departDelay="0.00" arrival="18.00" arrivalLane="379698350#0_0" arrivalPos="9.38" arrivalSpeed="14.11" duration="18.00" routeLength="129.45" waitingTime="0.00" waitingCount="0" stopTime="0.00" timeLoss="9.92" rerouteNo="0" devices="tripinfo_flow_route_6_duration_20250327_2240.0" vType="car" speedFactor="1.01" vaporized=""/>
    <tripinfo id="flow_route_22_duration_20250327_2240.0" depart="0.00" departLane="137415945#0_0" departPos="8.70" departSpeed="0.00" departDelay="0.00" arrival="24.00" arrivalLane="1342054204_0" arrivalPos="47.56" arrivalSpeed="15.23" duration="24.00" routeLength="232.19" waitingTime="0.00" waitingCount="0" stopTime="0.00" timeLoss="9.13" rerouteNo="0" devices="tripinfo_flow_route_22_duration_20250327_2240.0" vType="car" speedFactor="0.94" vaporized=""/>
    <tripinfo id="flow_route_24_duration_20250327_2240.0" depart="5.00" departLane="137415945#0_0" departPos="11.30" departSpeed="0.00" departDelay="5.00" arrival="25.00" arrivalLane="137406408#0_0" arrivalPos="0.56" arrivalSpeed="15.18" duration="20.00" routeLength="158.26" waitingTime="0.00" waitingCount="0" stopTime="0.00" timeLoss="10.20" rerouteNo="0" devices="tripinfo_flow_route_24_duration_20250327_2240.0" vType="car" speedFactor="1.09" vaporized=""/>
    <tripinfo id="flow_route_10_duration_20250327_2240.0" depart="0.00" departLane="1252820505#0_0" departPos="5.24" departSpeed="0.00" departDelay="0.00" arrival="28.00" arrivalLane="1235147073.116_0" arrivalPos="0.67" arrivalSpeed="13.39" duration="28.00" routeLength="263.17" waitingTime="0.00" waitingCount="0" stopTime="0.00" timeLoss="8.28" rerouteNo="0" devices="tripinfo_flow_route_10_duration_20250327_2240.0" vType="car" speedFactor="0.83" vaporized=""/>
    <tripinfo id="flow_route_22_duration_20250327_2240.1" depart="8.00" departLane="137415945#0_0" departPos="0.41" departSpeed="0.00" departDelay="0.50" arrival="34.00" arrivalLane="1342054204_0" arrivalPos="47.48" arrivalSpeed="16.42" duration="26.00" routeLength="240.40" waitingTime="0.00" waitingCount="0" stopTime="0.00" timeLoss="11.03" rerouteNo="0" devices="tripinfo_flow_route_22_duration_20250327_2240.1" vType="car" speedFactor="1.05" vaporized=""/>
    <tripinfo id="flow_route_8_duration_20250327_2240.1" depart="12.00" departLane="133000078#0_0" departPos="157.85" departSpeed="0.00" departDelay="0.00" arrival="38.00" arrivalLane="1235147073.116_0" arrivalPos="4.62" arrivalSpeed="16.18" duration="26.00" routeLength="206.95" waitingTime="0.00" waitingCount="0" stopTime="0.00" timeLoss="12.07" rerouteNo="0" devices="tripinfo_flow_route_8_duration_20250327_2240.1" vType="car" speedFactor="1.12" vaporized=""/>
    <tripinfo id="flow_route_8_duration_20250327_2240.0" depart="0.00" departLane="133000078#0_0" departPos="54.62" departSpeed="0.00" departDelay="0.00" arrival="39.00" arrivalLane="1235147073.116_0" arrivalPos="9.03" arrivalSpeed="16.53" duration="39.00" routeLength="314.60" waitingTime="0.00" waitingCount="0" stopTime="0.00" timeLoss="19.25" rerouteNo="0" devices="tripinfo_flow_route_8_duration_20250327_2240.0" vType="car" speedFactor="1.03" vaporized=""/>
    <tripinfo id="flow_route_11_duration_20250327_2240.0" depart="0.00" departLane="1252820505#0_0" departPos="76.11" departSpeed="0.00" departDelay="0.00" arrival="47.00" arrivalLane="137406408#0_2" arrivalPos="68.60" arrivalSpeed="12.69" duration="47.00" routeLength="154.08" waitingTime="17.00" waitingCount="1" stopTime="0.00" timeLoss="37.10" rerouteNo="0" devices="tripinfo_flow_route_11_duration_20250327_2240.0" vType="car" speedFactor="1.05" vaporized=""/>
    <tripinfo id="flow_route_8_duration_20250327_2240.2" depart="24.00" departLane="133000078#0_0" departPos="142.80" departSpeed="0.00" departDelay="0.00" arrival="52.00" arrivalLane="1235147073.116_0" arrivalPos="10.23" arrivalSpeed="16.27" duration="28.00" routeLength="227.61" waitingTime="0.00" waitingCount="0" stopTime="0.00" timeLoss="12.77" rerouteNo="0" devices="tripinfo_flow_route_8_duration_20250327_2240.2" vType="car" speedFactor="1.01" vaporized=""/>
    <tripinfo id="flow_route_5_duration_20250327_2240.1" depart="15.00" departLane="291974733#0_0" departPos="64.19" departSpeed="0.00" departDelay="0.00" arrival="55.00" arrivalLane="1342054204_0" arrivalPos="13.88" arrivalSpeed="10.41" duration="40.00" routeLength="87.94" waitingTime="18.00" waitingCount="1" stopTime="0.00" timeLoss="33.48" rerouteNo="0" devices="tripinfo_flow_route_5_duration_20250327_2240.1" vType="car" speedFactor="0.99" vaporized=""/>
    <tripinfo id="flow_route_5_duration_20250327_2240.0" depart="0.00" departLane="291974733#0_0" departPos="43.68" departSpeed="0.00" departDelay="0.00" arrival="57.00" arrivalLane="1342054204_0" arrivalPos="62.15" arrivalSpeed="13.06" duration="57.00" routeLength="156.72" waitingTime="28.00" waitingCount="1" stopTime="0.00" timeLoss="45.85" rerouteNo="0" devices="tripinfo_flow_route_5_duration_20250327_2240.0" vType="car" speedFactor="0.94" vaporized=""/>
    <tripinfo id="flow_route_23_duration_20250327_2240.1" depart="21.00" departLane="137415945#0_0" departPos="3.36" departSpeed="0.00" departDelay="1.00" arrival="58.00" arrivalLane="379698350#0_2" arrivalPos="25.86" arrivalSpeed="10.26" duration="37.00" routeLength="214.85" waitingTime="0.00" waitingCount="0" stopTime="0.00" timeLoss="22.68" rerouteNo="0" devices="tripinfo_flow_route_23_duration_20250327_2240.1" vType="car" speedFactor="0.94" vaporized=""/>
    <tripinfo id="flow_route_5_duration_20250327_2240.2" depart="30.00" departLane="291974733#0_0" departPos="17.18" departSpeed="0.00" departDelay="0.00" arrival="59.00" arrivalLane="1342054204_0" arrivalPos="42.97" arrivalSpeed="12.80" duration="29.00" routeLength="164.04" waitingTime="0.00" waitingCount="0" stopTime="0.00" timeLoss="17.86" rerouteNo="0" devices="tripinfo_flow_route_5_duration_20250327_2240.2" vType="car" speedFactor="0.97" vaporized=""/>
    <tripinfo id="flow_route_23_duration_20250327_2240.0" depart="0.00" departLane="137415945#0_0" departPos="0.59" departSpeed="0.00" departDelay="0.00" arrival="64.00" arrivalLane="379698350#0_2" arrivalPos="153.67" arrivalSpeed="13.99" duration="64.00" routeLength="345.44" waitingTime="19.00" waitingCount="1" stopTime="0.00" timeLoss="39.19" rerouteNo="0" devices="tripinfo_flow_route_23_duration_20250327_2240.0" vType="car" speedFactor="0.86" vaporized=""/>
    <tripinfo id="flow_route_8_duration_20250327_2240.3" depart="36.00" departLane="133000078#0_0" departPos="112.90" departSpeed="0.00" departDelay="0.00" arrival="65.00" arrivalLane="1235147073.116_0" arrivalPos="4.27" arrivalSpeed="15.13" duration="29.00" routeLength="251.55" waitingTime="0.00" waitingCount="0" stopTime="0.00" timeLoss="10.73" rerouteNo="0" devices="tripinfo_flow_route_8_duration_20250327_2240.3" vType="car" speedFactor="0.92" vaporized=""/>
    <tripinfo id="flow_route_4_duration_20250327_2240.0" depart="0.00" departLane="291974733#0_0" departPos="63.06" departSpeed="0.00" departDelay="0.00" arrival="66.00" arrivalLane="379698350#0_0" arrivalPos="183.76" arrivalSpeed="16.22" duration="66.00" routeLength="311.60" waitingTime="28.00" waitingCount="1" stopTime="0.00" timeLoss="46.89" rerouteNo="0" devices="tripinfo_flow_route_4_duration_20250327_2240.0" vType="car" speedFactor="1.06" vaporized=""/>
    <tripinfo id="flow_route_5_duration_20250327_2240.3" depart="45.00" departLane="291974733#0_0" departPos="19.90" departSpeed="0.00" departDelay="0.00" arrival="70.00" arrivalLane="1342054204_0" arrivalPos="62.97" arrivalSpeed="13.93" duration="25.00" routeLength="181.32" waitingTime="0.00" waitingCount="0" stopTime="0.00" timeLoss="13.77" rerouteNo="0" devices="tripinfo_flow_route_5_duration_20250327_2240.3" vType="car" speedFactor="1.15" vaporized=""/>
    <tripinfo id="flow_route_23_duration_20250327_2240.2" depart="40.00" departLane="137415945#0_0" departPos="1.09" departSpeed="0.00" departDelay="0.00" arrival="71.00" arrivalLane="379698350#0_2" arrivalPos="64.73" arrivalSpeed="14.58" duration="31.00" routeLength="255.99" waitingTime="0.00" waitingCount="0" stopTime="0.00" timeLoss="13.53" rerouteNo="0" devices="tripinfo_flow_route_23_duration_20250327_2240.2" vType="car" speedFactor="0.93" vaporized=""/>
    <tripinfo id="flow_route_8_duration_20250327_2240.4" depart="48.00" departLane="133000078#0_0" departPos="120.79" departSpeed="0.00" departDelay="0.00" arrival="77.00" arrivalLane="1235147073.116_0" arrivalPos="7.85" arrivalSpeed="16.48" duration="29.00" routeLength="247.24" waitingTime="0.00" waitingCount="0" stopTime="0.00" timeLoss="12.57" rerouteNo="0" devices="tripinfo_flow_route_8_duration_20250327_2240.4" vType="car" speedFactor="0.99" vaporized=""/>
    <tripinfo id="flow_route_12_duration_20250327_2240.0" depart="0.00" departLane="133000078#0_0" departPos="66.48" departSpeed="0.00" departDelay="0.00" arrival="91.00" arrivalLane="1342054204_3" arrivalPos="21.59" arrivalSpeed="12.97" duration="91.00" routeLength="252.91" waitingTime="54.00" waitingCount="1" stopTime="0.00" timeLoss="73.78" rerouteNo="0" devices="tripinfo_flow_route_12_duration_20250327_2240.0" vType="car" speedFactor="0.89" vaporized=""/>
    <tripinfo id="flow_route_7_duration_20250327_2240.0" depart="0.00" departLane="133000078#0_0" departPos="116.92" departSpeed="0.00" departDelay="0.00" arrival="94.00" arrivalLane="137406408#0_1" arrivalPos="45.36" arrivalSpeed="15.08" duration="94.00" routeLength="233.24" waitingTime="56.00" waitingCount="1" stopTime="0.00" timeLoss="79.69" rerouteNo="0" devices="tripinfo_flow_route_7_duration_20250327_2240.0" vType="car" speedFactor="1.08" vaporized=""/>
    <tripinfo id="flow_route_12_duration_20250327_2240.1" depart="8.00" departLane="133000078#0_0" departPos="48.88" departSpeed="0.00" departDelay="0.50" arrival="94.00" arrivalLane="1342054204_3" arrivalPos="34.59" arrivalSpeed="15.36" duration="86.00" routeLength="283.52" waitingTime="46.00" waitingCount="1" stopTime="0.00" timeLoss="68.32" rerouteNo="0" devices="tripinfo_flow_route_12_duration_20250327_2240.1" vType="car" speedFactor="1.03" vaporized=""/>
    <tripinfo id="flow_route_12_duration_20250327_2240.4" depart="30.00" departLane="133000078#0_0" departPos="31.35" departSpeed="0.00" departDelay="0.00" arrival="99.00" arrivalLane="1342054204_3" arrivalPos="14.69" arrivalSpeed="12.97" duration="69.00" routeLength="281.14" waitingTime="27.00" waitingCount="1" stopTime="0.00" timeLoss="48.06" rerouteNo="0" devices="tripinfo_flow_route_12_duration_20250327_2240.4" vType="car" speedFactor="0.83" vaporized=""/>
    <tripinfo id="flow_route_12_duration_20250327_2240.2" depart="15.00" departLane="133000078#0_0" departPos="68.41" departSpeed="0.00" departDelay="0.00" arrival="100.00" arrivalLane="1342054204_3" arrivalPos="83.44" arrivalSpeed="15.04" duration="85.00" routeLength="312.83" waitingTime="42.00" waitingCount="1" stopTime="0.00" timeLoss="64.64" rerouteNo="0" devices="tripinfo_flow_route_12_duration_20250327_2240.2" vType="car" speedFactor="0.93" vaporized=""/>
    <tripinfo id="flow_route_12_duration_20250327_2240.3" depart="23.00" departLane="133000078#0_0" departPos="18.38" departSpeed="0.00" departDelay="0.50" arrival="100.00" arrivalLane="1342054204_3" arrivalPos="49.86" arrivalSpeed="14.90" duration="77.00" routeLength="329.28" waitingTime="32.00" waitingCount="1" stopTime="0.00" timeLoss="56.60" rerouteNo="0" devices="tripinfo_flow_route_12_duration_20250327_2240.3" vType="car" speedFactor="1.16" vaporized=""/>
    <tripinfo id="flow_route_12_duration_20250327_2240.6" depart="45.00" departLane="133000078#0_0" departPos="140.13" departSpeed="0.00" departDelay="0.00" arrival="103.00" arrivalLane="1342054204_3" arrivalPos="30.69" arrivalSpeed="15.06" duration="58.00" routeLength="188.36" waitingTime="25.00" waitingCount="1" stopTime="0.00" timeLoss="45.90" rerouteNo="0" devices="tripinfo_flow_route_12_duration_20250327_2240.6" vType="car" speedFactor="1.01" vaporized=""/>
    <tripinfo id="flow_route_12_duration_20250327_2240.5" depart="38.00" departLane="133000078#0_0" departPos="36.96" departSpeed="0.00" departDelay="0.50" arrival="107.00" arrivalLane="1342054204_3" arrivalPos="80.96" arrivalSpeed="15.79" duration="69.00" routeLength="341.80" waitingTime="22.00" waitingCount="1" stopTime="0.00" timeLoss="47.37" rerouteNo="0" devices="tripinfo_flow_route_12_duration_20250327_2240.5" vType="car" speedFactor="0.95" vaporized=""/>
    <tripinfo id="flow_route_12_duration_20250327_2240.7" depart="53.00" departLane="133000078#0_0" departPos="4.92" departSpeed="0.00" departDelay="0.50" arrival="108.00" arrivalLane="1342054204_3" arrivalPos="31.85" arrivalSpeed="14.42" duration="55.00" routeLength="324.73" waitingTime="7.00" waitingCount="1" stopTime="0.00" timeLoss="35.29" rerouteNo="0" devices="tripinfo_flow_route_12_duration_20250327_2240.7" vType="car" speedFactor="1.02" vaporized=""/>
    <tripinfo id="flow_route_22_duration_20250327_2240.2" depart="15.00" departLane="137415945#0_0" departPos="1.65" departSpeed="0.00" departDelay="0.00" arrival="137.00" arrivalLane="1342054204_0" arrivalPos="2.60" arrivalSpeed="10.09" duration="122.00" routeLength="194.28" waitingTime="89.00" waitingCount="1" stopTime="0.00" timeLoss="108.58" rerouteNo="0" devices="tripinfo_flow_route_22_duration_20250327_2240.2" vType="car" speedFactor="0.88" vaporized=""/>
    <tripinfo id="flow_route_24_duration_20250327_2240.1" depart="24.00" departLane="137415945#0_0" departPos="9.11" departSpeed="0.00" departDelay="4.00" arrival="140.00" arrivalLane="137406408#0_0" arrivalPos="37.97" arrivalSpeed="11.36" duration="116.00" routeLength="197.86" waitingTime="83.00" waitingCount="1" stopTime="0.00" timeLoss="102.89" rerouteNo="0" devices="tripinfo_flow_route_24_duration_20250327_2240.1" vType="car" speedFactor="0.94" vaporized=""/>
    <tripinfo id="flow_route_22_duration_20250327_2240.3" depart="27.00" departLane="137415945#0_0" departPos="3.92" departSpeed="0.00" departDelay="4.50" arrival="140.00" arrivalLane="1342054204_0" arrivalPos="21.06" arrivalSpeed="11.19" duration="113.00" routeLength="210.47" waitingTime="77.00" waitingCount="1" stopTime="0.00" timeLoss="99.88" rerouteNo="0" devices="tripinfo_flow_route_22_duration_20250327_2240.3" vType="car" speedFactor="1.02" vaporized=""/>
    <tripinfo id="flow_route_22_duration_20250327_2240.5" depart="38.00" departLane="137415945#0_0" departPos="12.63" departSpeed="0.00" departDelay="0.50" arrival="142.00" arrivalLane="1342054204_0" arrivalPos="5.84" arrivalSpeed="11.38" duration="104.00" routeLength="186.54" waitingTime="71.00" waitingCount="1" stopTime="0.00" timeLoss="92.31" rerouteNo="0" devices="tripinfo_flow_route_22_duration_20250327_2240.5" vType="car" speedFactor="1.13" vaporized=""/>
    <tripinfo id="flow_route_24_duration_20250327_2240.2" depart="44.00" departLane="137415945#0_0" departPos="1.02" departSpeed="0.00" departDelay="4.00" arrival="144.00" arrivalLane="137406408#0_0" arrivalPos="31.29" arrivalSpeed="11.83" duration="100.00" routeLength="199.27" waitingTime="66.00" waitingCount="1" stopTime="0.00" timeLoss="87.48" rerouteNo="0" devices="tripinfo_flow_route_24_duration_20250327_2240.2" vType="car" speedFactor="1.18" vaporized=""/>
    <tripinfo id="flow_route_22_duration_20250327_2240.6" depart="49.00" departLane="137415945#0_0" departPos="5.31" departSpeed="0.00" departDelay="4.00" arrival="144.00" arrivalLane="1342054204_1" arrivalPos="25.30" arrivalSpeed="12.14" duration="95.00" routeLength="213.32" waitingTime="59.00" waitingCount="1" stopTime="0.00" timeLoss="81.67" rerouteNo="0" devices="tripinfo_flow_route_22_duration_20250327_2240.6" vType="car" speedFactor="1.17" vaporized=""/>
    <tripinfo id="flow_route_10_duration_20250327_2240.1" depart="30.00" departLane="1252820505#0_0" departPos="55.77" departSpeed="0.00" departDelay="0.00" arrival="146.00" arrivalLane="1235147073.116_0" arrivalPos="8.88" arrivalSpeed="14.80" duration="116.00" routeLength="220.85" waitingTime="85.00" waitingCount="1" stopTime="0.00" timeLoss="101.00" rerouteNo="0" devices="tripinfo_flow_route_10_duration_20250327_2240.1" vType="car" speedFactor="0.89" vaporized=""/>
    <tripinfo id="flow_route_22_duration_20250327_2240.4" depart="30.00" departLane="137415945#0_0" departPos="0.35" departSpeed="0.00" departDelay="0.00" arrival="147.00" arrivalLane="1342054204_1" arrivalPos="83.30" arrivalSpeed="14.32" duration="117.00" routeLength="276.27" waitingTime="76.00" waitingCount="1" stopTime="0.00" timeLoss="97.12" rerouteNo="0" devices="tripinfo_flow_route_22_duration_20250327_2240.4" vType="car" speedFactor="0.87" vaporized=""/>
    <tripinfo id="flow_route_22_duration_20250327_2240.7" depart="53.00" departLane="137415945#0_0" departPos="3.85" departSpeed="0.00" departDelay="0.50" arrival="150.00" arrivalLane="1342054204_1" arrivalPos="85.21" arrivalSpeed="15.83" duration="97.00" routeLength="274.68" waitingTime="57.00" waitingCount="1" stopTime="0.00" timeLoss="79.24" rerouteNo="0" devices="tripinfo_flow_route_22_duration_20250327_2240.7" vType="car" speedFactor="0.97" vaporized=""/>
</tripinfos>
