<?xml version="1.0" encoding="UTF-8"?>

<!-- generated on 2025-05-06 21:07:45 by Eclipse SUMO sumo Version 1.20.0
<configuration xmlns:xsi="http://www.w3.org/2001/XMLSchema-instance" xsi:noNamespaceSchemaLocation="http://sumo.dlr.de/xsd/sumoConfiguration.xsd">

    <input>
        <net-file value="osm.net.xml"/>
        <route-files value="xml/route_static_cluster_11648745684_256036885_3839031483_0.rou.xml"/>
    </input>

    <output>
        <tripinfo-output value="xml/tripinfo_static_cluster_11648745684_256036885_3839031483_0.xml"/>
    </output>

    <traci_server>
        <remote-port value="59573"/>
    </traci_server>

</configuration>
-->

<tripinfos xmlns:xsi="http://www.w3.org/2001/XMLSchema-instance" xsi:noNamespaceSchemaLocation="http://sumo.dlr.de/xsd/tripinfo_file.xsd">
    <tripinfo id="flow_route_72_duration_20250327_2010.0" depart="0.00" departLane="1369578052#0_0" departPos="161.40" departSpeed="0.00" departDelay="0.00" arrival="15.00" arrivalLane="133342692#0_0" arrivalPos="42.43" arrivalSpeed="10.68" duration="15.00" routeLength="81.12" waitingTime="0.00" waitingCount="0" stopTime="0.00" timeLoss="8.14" rerouteNo="0" devices="tripinfo_flow_route_72_duration_20250327_2010.0" vType="car" speedFactor="0.89" vaporized=""/>
    <tripinfo id="flow_route_71_duration_20250327_2010.2" depart="8.00" departLane="1369578052#0_0" departPos="149.62" departSpeed="0.00" departDelay="0.94" arrival="26.00" arrivalLane="138002016#0_0" arrivalPos="53.47" arrivalSpeed="13.69" duration="18.00" routeLength="121.53" waitingTime="0.00" waitingCount="0" stopTime="0.00" timeLoss="10.07" rerouteNo="0" devices="tripinfo_flow_route_71_duration_20250327_2010.2" vType="car" speedFactor="1.01" vaporized=""/>
    <tripinfo id="flow_route_68_duration_20250327_2010.0" depart="0.00" departLane="1253209803#0_0" departPos="143.52" departSpeed="0.00" departDelay="0.00" arrival="29.00" arrivalLane="-138002002#2_1" arrivalPos="90.53" arrivalSpeed="16.38" duration="29.00" routeLength="298.33" waitingTime="0.00" waitingCount="0" stopTime="0.00" timeLoss="10.78" rerouteNo="0" devices="tripinfo_flow_route_68_duration_20250327_2010.0" vType="car" speedFactor="1.08" vaporized=""/>
    <tripinfo id="flow_route_70_duration_20250327_2010.0" depart="0.00" departLane="1253209803#0_0" departPos="83.97" departSpeed="0.00" departDelay="0.00" arrival="32.00" arrivalLane="133342692#0_2" arrivalPos="7.48" arrivalSpeed="9.70" duration="32.00" routeLength="271.18" waitingTime="0.00" waitingCount="0" stopTime="0.00" timeLoss="13.58" rerouteNo="0" devices="tripinfo_flow_route_70_duration_20250327_2010.0" vType="car" speedFactor="0.83" vaporized=""/>
    <tripinfo id="flow_route_69_duration_20250327_2010.0" depart="0.00" departLane="1253209803#0_0" departPos="179.76" departSpeed="0.00" departDelay="0.00" arrival="33.00" arrivalLane="380585337#0_0" arrivalPos="14.31" arrivalSpeed="16.34" duration="33.00" routeLength="299.43" waitingTime="0.00" waitingCount="0" stopTime="0.00" timeLoss="14.33" rerouteNo="0" devices="tripinfo_flow_route_69_duration_20250327_2010.0" vType="car" speedFactor="1.03" vaporized=""/>
    <tripinfo id="flow_route_65_duration_20250327_2010.0" depart="5.00" departLane="133131666#1_0" departPos="0.66" departSpeed="0.00" departDelay="5.00" arrival="40.00" arrivalLane="138002016#0_2" arrivalPos="14.48" arrivalSpeed="8.02" duration="35.00" routeLength="198.28" waitingTime="3.00" waitingCount="1" stopTime="0.00" timeLoss="22.40" rerouteNo="0" devices="tripinfo_flow_route_65_duration_20250327_2010.0" vType="car" speedFactor="1.01" vaporized=""/>
    <tripinfo id="flow_route_63_duration_20250327_2010.1" depart="14.00" departLane="133131666#1_0" departPos="1.04" departSpeed="0.00" departDelay="9.00" arrival="46.00" arrivalLane="133342692#0_1" arrivalPos="131.07" arrivalSpeed="15.33" duration="32.00" routeLength="313.75" waitingTime="0.00" waitingCount="0" stopTime="0.00" timeLoss="11.27" rerouteNo="0" devices="tripinfo_flow_route_63_duration_20250327_2010.1" vType="car" speedFactor="0.93" vaporized=""/>
    <tripinfo id="flow_route_64_duration_20250327_2010.2" depart="21.00" departLane="133131666#1_0" departPos="2.76" departSpeed="0.00" departDelay="13.94" arrival="49.00" arrivalLane="-138002002#2_0" arrivalPos="48.64" arrivalSpeed="10.56" duration="28.00" routeLength="211.44" waitingTime="0.00" waitingCount="0" stopTime="0.00" timeLoss="14.63" rerouteNo="0" devices="tripinfo_flow_route_64_duration_20250327_2010.2" vType="car" speedFactor="1.16" vaporized=""/>
    <tripinfo id="flow_route_64_duration_20250327_2010.0" depart="2.00" departLane="133131666#1_0" departPos="6.82" departSpeed="0.00" departDelay="2.00" arrival="51.00" arrivalLane="-138002002#2_0" arrivalPos="131.25" arrivalSpeed="14.34" duration="49.00" routeLength="289.98" waitingTime="7.00" waitingCount="1" stopTime="0.00" timeLoss="29.27" rerouteNo="0" devices="tripinfo_flow_route_64_duration_20250327_2010.0" vType="car" speedFactor="0.94" vaporized=""/>
    <tripinfo id="flow_route_63_duration_20250327_2010.0" depart="0.00" departLane="133131666#1_0" departPos="14.94" departSpeed="0.00" departDelay="0.00" arrival="52.00" arrivalLane="133342692#0_0" arrivalPos="152.76" arrivalSpeed="16.43" duration="52.00" routeLength="321.54" waitingTime="9.00" waitingCount="1" stopTime="0.00" timeLoss="31.98" rerouteNo="0" devices="tripinfo_flow_route_63_duration_20250327_2010.0" vType="car" speedFactor="1.06" vaporized=""/>
    <tripinfo id="flow_route_64_duration_20250327_2010.1" depart="9.00" departLane="133131666#1_0" departPos="15.89" departSpeed="0.00" departDelay="5.47" arrival="54.00" arrivalLane="-138002002#2_0" arrivalPos="151.85" arrivalSpeed="16.03" duration="45.00" routeLength="301.51" waitingTime="4.00" waitingCount="1" stopTime="0.00" timeLoss="25.96" rerouteNo="0" devices="tripinfo_flow_route_64_duration_20250327_2010.1" vType="car" speedFactor="1.03" vaporized=""/>
    <tripinfo id="flow_route_65_duration_20250327_2010.2" depart="15.00" departLane="133131666#1_0" departPos="13.66" departSpeed="0.00" departDelay="8.69" arrival="54.00" arrivalLane="138002016#0_2" arrivalPos="130.95" arrivalSpeed="15.29" duration="39.00" routeLength="301.76" waitingTime="0.00" waitingCount="0" stopTime="0.00" timeLoss="18.41" rerouteNo="0" devices="tripinfo_flow_route_65_duration_20250327_2010.2" vType="car" speedFactor="0.94" vaporized=""/>
    <tripinfo id="flow_route_64_duration_20250327_2010.3" depart="34.00" departLane="133131666#1_0" departPos="10.34" departSpeed="0.00" departDelay="23.41" arrival="59.00" arrivalLane="-138002002#2_0" arrivalPos="27.97" arrivalSpeed="9.36" duration="25.00" routeLength="183.18" waitingTime="0.00" waitingCount="0" stopTime="0.00" timeLoss="12.59" rerouteNo="0" devices="tripinfo_flow_route_64_duration_20250327_2010.3" vType="car" speedFactor="1.13" vaporized=""/>
    <tripinfo id="flow_route_63_duration_20250327_2010.2" depart="27.00" departLane="133131666#1_0" departPos="7.68" departSpeed="0.00" departDelay="17.00" arrival="61.00" arrivalLane="133342692#0_0" arrivalPos="164.58" arrivalSpeed="13.27" duration="34.00" routeLength="340.62" waitingTime="0.00" waitingCount="0" stopTime="0.00" timeLoss="8.82" rerouteNo="0" devices="tripinfo_flow_route_63_duration_20250327_2010.2" vType="car" speedFactor="0.83" vaporized=""/>
    <tripinfo id="flow_route_65_duration_20250327_2010.1" depart="10.00" departLane="133131666#1_0" departPos="3.74" departSpeed="0.00" departDelay="6.84" arrival="62.00" arrivalLane="138002016#0_2" arrivalPos="282.58" arrivalSpeed="16.47" duration="52.00" routeLength="463.30" waitingTime="0.00" waitingCount="0" stopTime="0.00" timeLoss="22.75" rerouteNo="0" devices="tripinfo_flow_route_65_duration_20250327_2010.1" vType="car" speedFactor="1.05" vaporized=""/>
    <tripinfo id="flow_route_65_duration_20250327_2010.4" depart="35.00" departLane="133131666#1_0" departPos="1.88" departSpeed="0.00" departDelay="22.37" arrival="62.00" arrivalLane="138002016#0_2" arrivalPos="27.38" arrivalSpeed="12.52" duration="27.00" routeLength="209.97" waitingTime="0.00" waitingCount="0" stopTime="0.00" timeLoss="13.30" rerouteNo="0" devices="tripinfo_flow_route_65_duration_20250327_2010.4" vType="car" speedFactor="1.15" vaporized=""/>
    <tripinfo id="flow_route_63_duration_20250327_2010.3" depart="38.00" departLane="133131666#1_0" departPos="2.43" departSpeed="0.00" departDelay="23.00" arrival="63.00" arrivalLane="133342692#0_1" arrivalPos="60.32" arrivalSpeed="16.40" duration="25.00" routeLength="241.61" waitingTime="0.00" waitingCount="0" stopTime="0.00" timeLoss="10.25" rerouteNo="0" devices="tripinfo_flow_route_63_duration_20250327_2010.3" vType="car" speedFactor="1.17" vaporized=""/>
    <tripinfo id="flow_route_65_duration_20250327_2010.3" depart="30.00" departLane="133131666#1_0" departPos="3.40" departSpeed="0.00" departDelay="20.53" arrival="65.00" arrivalLane="138002016#0_2" arrivalPos="97.98" arrivalSpeed="14.46" duration="35.00" routeLength="279.04" waitingTime="0.00" waitingCount="0" stopTime="0.00" timeLoss="14.38" rerouteNo="0" devices="tripinfo_flow_route_65_duration_20250327_2010.3" vType="car" speedFactor="0.87" vaporized=""/>
    <tripinfo id="flow_route_64_duration_20250327_2010.4" depart="41.00" departLane="133131666#1_0" departPos="20.81" departSpeed="0.00" departDelay="26.88" arrival="68.00" arrivalLane="-138002002#2_0" arrivalPos="53.43" arrivalSpeed="10.38" duration="27.00" routeLength="198.17" waitingTime="0.00" waitingCount="0" stopTime="0.00" timeLoss="14.43" rerouteNo="0" devices="tripinfo_flow_route_64_duration_20250327_2010.4" vType="car" speedFactor="0.99" vaporized=""/>
    <tripinfo id="flow_route_75_duration_20250327_2010.0" depart="0.00" departLane="380593307#0_0" departPos="8.02" departSpeed="0.00" departDelay="0.00" arrival="75.00" arrivalLane="-138002002#2_1" arrivalPos="1.11" arrivalSpeed="6.51" duration="75.00" routeLength="196.85" waitingTime="43.00" waitingCount="1" stopTime="0.00" timeLoss="62.45" rerouteNo="0" devices="tripinfo_flow_route_75_duration_20250327_2010.0" vType="car" speedFactor="1.09" vaporized=""/>
    <tripinfo id="flow_route_65_duration_20250327_2010.5" depart="42.00" departLane="133131666#1_0" departPos="0.70" departSpeed="0.00" departDelay="26.22" arrival="76.00" arrivalLane="138002016#0_2" arrivalPos="132.81" arrivalSpeed="16.27" duration="34.00" routeLength="316.57" waitingTime="0.00" waitingCount="0" stopTime="0.00" timeLoss="14.05" rerouteNo="0" devices="tripinfo_flow_route_65_duration_20250327_2010.5" vType="car" speedFactor="1.10" vaporized=""/>
    <tripinfo id="flow_route_64_duration_20250327_2010.5" depart="43.00" departLane="133131666#1_0" departPos="12.09" departSpeed="0.00" departDelay="25.36" arrival="79.00" arrivalLane="-138002002#2_0" arrivalPos="170.38" arrivalSpeed="16.38" duration="36.00" routeLength="323.84" waitingTime="0.00" waitingCount="0" stopTime="0.00" timeLoss="15.27" rerouteNo="0" devices="tripinfo_flow_route_64_duration_20250327_2010.5" vType="car" speedFactor="1.03" vaporized=""/>
    <tripinfo id="flow_route_74_duration_20250327_2010.1" depart="5.00" departLane="380593307#0_0" departPos="57.52" departSpeed="0.00" departDelay="0.72" arrival="84.00" arrivalLane="138002016#0_0" arrivalPos="50.65" arrivalSpeed="9.82" duration="79.00" routeLength="175.82" waitingTime="40.00" waitingCount="1" stopTime="0.00" timeLoss="65.37" rerouteNo="0" devices="tripinfo_flow_route_74_duration_20250327_2010.1" vType="car" speedFactor="0.88" vaporized=""/>
    <tripinfo id="flow_route_75_duration_20250327_2010.3" depart="18.00" departLane="380593307#0_0" departPos="151.71" departSpeed="0.00" departDelay="3.00" arrival="84.00" arrivalLane="-138002002#2_1" arrivalPos="77.96" arrivalSpeed="12.53" duration="66.00" routeLength="130.02" waitingTime="42.00" waitingCount="1" stopTime="0.00" timeLoss="57.79" rerouteNo="0" devices="tripinfo_flow_route_75_duration_20250327_2010.3" vType="car" speedFactor="1.18" vaporized=""/>
    <tripinfo id="flow_route_74_duration_20250327_2010.5" depart="29.00" departLane="380593307#0_0" departPos="142.25" departSpeed="0.00" departDelay="7.58" arrival="84.00" arrivalLane="138002016#0_0" arrivalPos="13.56" arrivalSpeed="7.38" duration="55.00" routeLength="54.00" waitingTime="40.00" waitingCount="1" stopTime="0.00" timeLoss="50.69" rerouteNo="0" devices="tripinfo_flow_route_74_duration_20250327_2010.5" vType="car" speedFactor="1.17" vaporized=""/>
    <tripinfo id="flow_route_73_duration_20250327_2010.0" depart="0.00" departLane="380593307#0_0" departPos="55.90" departSpeed="0.00" departDelay="0.00" arrival="89.00" arrivalLane="380585337#0_1" arrivalPos="13.23" arrivalSpeed="15.40" duration="89.00" routeLength="294.01" waitingTime="48.00" waitingCount="1" stopTime="0.00" timeLoss="69.22" rerouteNo="0" devices="tripinfo_flow_route_73_duration_20250327_2010.0" vType="car" speedFactor="0.94" vaporized=""/>
    <tripinfo id="flow_route_73_duration_20250327_2010.1" depart="11.00" departLane="380593307#0_0" departPos="94.92" departSpeed="0.00" departDelay="1.00" arrival="90.00" arrivalLane="380585337#0_1" arrivalPos="11.95" arrivalSpeed="15.16" duration="79.00" routeLength="253.71" waitingTime="41.00" waitingCount="1" stopTime="0.00" timeLoss="62.30" rerouteNo="0" devices="tripinfo_flow_route_73_duration_20250327_2010.1" vType="car" speedFactor="0.92" vaporized=""/>
    <tripinfo id="flow_route_75_duration_20250327_2010.2" depart="12.00" departLane="380593307#0_0" departPos="54.49" departSpeed="0.00" departDelay="2.00" arrival="90.00" arrivalLane="-138002002#2_1" arrivalPos="106.85" arrivalSpeed="15.59" duration="78.00" routeLength="256.12" waitingTime="39.00" waitingCount="1" stopTime="0.00" timeLoss="60.89" rerouteNo="0" devices="tripinfo_flow_route_75_duration_20250327_2010.2" vType="car" speedFactor="0.95" vaporized=""/>
    <tripinfo id="flow_route_74_duration_20250327_2010.3" depart="14.00" departLane="380593307#0_0" departPos="125.32" departSpeed="0.00" departDelay="1.15" arrival="90.00" arrivalLane="138002016#0_1" arrivalPos="180.55" arrivalSpeed="16.12" duration="76.00" routeLength="237.92" waitingTime="43.00" waitingCount="1" stopTime="0.00" timeLoss="60.65" rerouteNo="0" devices="tripinfo_flow_route_74_duration_20250327_2010.3" vType="car" speedFactor="1.01" vaporized=""/>
    <tripinfo id="flow_route_73_duration_20250327_2010.2" depart="21.00" departLane="380593307#0_0" departPos="24.51" departSpeed="0.00" departDelay="1.00" arrival="92.00" arrivalLane="380585337#0_1" arrivalPos="11.31" arrivalSpeed="14.86" duration="71.00" routeLength="323.49" waitingTime="25.00" waitingCount="1" stopTime="0.00" timeLoss="49.13" rerouteNo="0" devices="tripinfo_flow_route_73_duration_20250327_2010.2" vType="car" speedFactor="0.90" vaporized=""/>
    <tripinfo id="flow_route_74_duration_20250327_2010.0" depart="0.00" departLane="380593307#0_0" departPos="118.68" departSpeed="0.00" departDelay="0.00" arrival="93.00" arrivalLane="138002016#0_0" arrivalPos="237.21" arrivalSpeed="14.24" duration="93.00" routeLength="301.22" waitingTime="53.00" waitingCount="1" stopTime="0.00" timeLoss="70.23" rerouteNo="0" devices="tripinfo_flow_route_74_duration_20250327_2010.0" vType="car" speedFactor="0.86" vaporized=""/>
    <tripinfo id="flow_route_75_duration_20250327_2010.1" depart="5.00" departLane="380593307#0_0" departPos="22.46" departSpeed="0.00" departDelay="0.00" arrival="93.00" arrivalLane="-138002002#2_1" arrivalPos="176.21" arrivalSpeed="15.58" duration="88.00" routeLength="357.51" waitingTime="42.00" waitingCount="1" stopTime="0.00" timeLoss="63.70" rerouteNo="0" devices="tripinfo_flow_route_75_duration_20250327_2010.1" vType="car" speedFactor="0.94" vaporized=""/>
    <tripinfo id="flow_route_75_duration_20250327_2010.4" depart="24.00" departLane="380593307#0_0" departPos="102.27" departSpeed="0.00" departDelay="4.00" arrival="93.00" arrivalLane="-138002002#2_1" arrivalPos="121.91" arrivalSpeed="14.34" duration="69.00" routeLength="223.40" waitingTime="34.00" waitingCount="1" stopTime="0.00" timeLoss="52.75" rerouteNo="0" devices="tripinfo_flow_route_75_duration_20250327_2010.4" vType="car" speedFactor="0.88" vaporized=""/>
    <tripinfo id="flow_route_73_duration_20250327_2010.4" depart="44.00" departLane="380593307#0_0" departPos="66.83" departSpeed="0.00" departDelay="4.00" arrival="94.00" arrivalLane="380585337#0_1" arrivalPos="8.41" arrivalSpeed="16.11" duration="50.00" routeLength="278.26" waitingTime="6.00" waitingCount="1" stopTime="0.00" timeLoss="32.75" rerouteNo="0" devices="tripinfo_flow_route_73_duration_20250327_2010.4" vType="car" speedFactor="1.02" vaporized=""/>
    <tripinfo id="flow_route_75_duration_20250327_2010.9" depart="47.00" departLane="380593307#0_0" departPos="81.33" departSpeed="0.00" departDelay="2.00" arrival="94.00" arrivalLane="-138002002#2_1" arrivalPos="44.49" arrivalSpeed="12.57" duration="47.00" routeLength="166.91" waitingTime="17.00" waitingCount="1" stopTime="0.00" timeLoss="36.25" rerouteNo="0" devices="tripinfo_flow_route_75_duration_20250327_2010.9" vType="car" speedFactor="1.06" vaporized=""/>
    <tripinfo id="flow_route_75_duration_20250327_2010.7" depart="40.00" departLane="380593307#0_0" departPos="52.49" departSpeed="0.00" departDelay="5.00" arrival="95.00" arrivalLane="-138002002#2_1" arrivalPos="74.30" arrivalSpeed="14.00" duration="55.00" routeLength="225.56" waitingTime="18.00" waitingCount="1" stopTime="0.00" timeLoss="40.36" rerouteNo="0" devices="tripinfo_flow_route_75_duration_20250327_2010.7" vType="car" speedFactor="1.09" vaporized=""/>
    <tripinfo id="flow_route_73_duration_20250327_2010.3" depart="35.00" departLane="380593307#0_0" departPos="6.01" departSpeed="0.00" departDelay="5.00" arrival="96.00" arrivalLane="380585337#0_1" arrivalPos="20.47" arrivalSpeed="16.30" duration="61.00" routeLength="351.14" waitingTime="7.00" waitingCount="1" stopTime="0.00" timeLoss="39.75" rerouteNo="0" devices="tripinfo_flow_route_73_duration_20250327_2010.3" vType="car" speedFactor="1.04" vaporized=""/>
    <tripinfo id="flow_route_74_duration_20250327_2010.2" depart="10.00" departLane="380593307#0_0" departPos="31.83" departSpeed="0.00" departDelay="1.43" arrival="98.00" arrivalLane="138002016#0_0" arrivalPos="212.70" arrivalSpeed="14.82" duration="88.00" routeLength="363.56" waitingTime="40.00" waitingCount="1" stopTime="0.00" timeLoss="62.20" rerouteNo="0" devices="tripinfo_flow_route_74_duration_20250327_2010.2" vType="car" speedFactor="0.89" vaporized=""/>
    <tripinfo id="flow_route_74_duration_20250327_2010.7" depart="37.00" departLane="380593307#0_0" departPos="104.95" departSpeed="0.00" departDelay="7.01" arrival="98.00" arrivalLane="138002016#0_0" arrivalPos="105.96" arrivalSpeed="14.44" duration="61.00" routeLength="183.69" waitingTime="28.00" waitingCount="1" stopTime="0.00" timeLoss="48.60" rerouteNo="0" devices="tripinfo_flow_route_74_duration_20250327_2010.7" vType="car" speedFactor="1.02" vaporized=""/>
    <tripinfo id="flow_route_73_duration_20250327_2010.5" depart="53.00" departLane="380593307#0_0" departPos="93.81" departSpeed="0.00" departDelay="3.00" arrival="98.00" arrivalLane="380585337#0_1" arrivalPos="16.82" arrivalSpeed="15.55" duration="45.00" routeLength="259.69" waitingTime="4.00" waitingCount="2" stopTime="0.00" timeLoss="28.24" rerouteNo="0" devices="tripinfo_flow_route_73_duration_20250327_2010.5" vType="car" speedFactor="0.96" vaporized=""/>
    <tripinfo id="flow_route_75_duration_20250327_2010.5" depart="29.00" departLane="380593307#0_0" departPos="68.31" departSpeed="0.00" departDelay="4.00" arrival="99.00" arrivalLane="-138002002#2_1" arrivalPos="157.79" arrivalSpeed="16.47" duration="70.00" routeLength="293.24" waitingTime="27.00" waitingCount="1" stopTime="0.00" timeLoss="51.09" rerouteNo="0" devices="tripinfo_flow_route_75_duration_20250327_2010.5" vType="car" speedFactor="1.14" vaporized=""/>
    <tripinfo id="flow_route_75_duration_20250327_2010.8" depart="44.00" departLane="380593307#0_0" departPos="59.27" departSpeed="0.00" departDelay="4.00" arrival="99.00" arrivalLane="-138002002#2_1" arrivalPos="48.69" arrivalSpeed="12.24" duration="55.00" routeLength="193.18" waitingTime="16.00" waitingCount="2" stopTime="0.00" timeLoss="42.33" rerouteNo="0" devices="tripinfo_flow_route_75_duration_20250327_2010.8" vType="car" speedFactor="1.02" vaporized=""/>
    <tripinfo id="flow_route_75_duration_20250327_2010.6" depart="37.00" departLane="380593307#0_0" departPos="33.09" departSpeed="0.00" departDelay="7.00" arrival="100.00" arrivalLane="-138002002#2_1" arrivalPos="38.22" arrivalSpeed="10.87" duration="63.00" routeLength="208.90" waitingTime="16.00" waitingCount="2" stopTime="0.00" timeLoss="49.67" rerouteNo="0" devices="tripinfo_flow_route_75_duration_20250327_2010.6" vType="car" speedFactor="1.02" vaporized=""/>
    <tripinfo id="flow_route_74_duration_20250327_2010.4" depart="18.00" departLane="380593307#0_0" departPos="51.44" departSpeed="0.00" departDelay="0.86" arrival="103.00" arrivalLane="138002016#0_0" arrivalPos="226.27" arrivalSpeed="16.16" duration="85.00" routeLength="357.51" waitingTime="37.00" waitingCount="1" stopTime="0.00" timeLoss="62.12" rerouteNo="0" devices="tripinfo_flow_route_74_duration_20250327_2010.4" vType="car" speedFactor="1.04" vaporized=""/>
    <tripinfo id="flow_route_72_duration_20250327_2010.1" depart="9.00" departLane="1369578052#0_0" departPos="127.48" departSpeed="0.00" departDelay="0.43" arrival="107.00" arrivalLane="133342692#0_0" arrivalPos="15.26" arrivalSpeed="7.01" duration="98.00" routeLength="87.86" waitingTime="73.00" waitingCount="1" stopTime="0.00" timeLoss="91.83" rerouteNo="0" devices="tripinfo_flow_route_72_duration_20250327_2010.1" vType="car" speedFactor="0.97" vaporized=""/>
    <tripinfo id="flow_route_68_duration_20250327_2010.2" depart="8.00" departLane="1253209803#0_0" departPos="76.63" departSpeed="0.00" departDelay="0.00" arrival="109.00" arrivalLane="-138002002#2_0" arrivalPos="41.10" arrivalSpeed="10.23" duration="101.00" routeLength="315.79" waitingTime="59.00" waitingCount="1" stopTime="0.00" timeLoss="81.61" rerouteNo="0" devices="tripinfo_flow_route_68_duration_20250327_2010.2" vType="car" speedFactor="1.02" vaporized=""/>
    <tripinfo id="flow_route_72_duration_20250327_2010.2" depart="18.00" departLane="1369578052#0_0" departPos="179.07" departSpeed="0.00" departDelay="0.86" arrival="110.00" arrivalLane="133342692#0_0" arrivalPos="72.88" arrivalSpeed="11.03" duration="92.00" routeLength="93.89" waitingTime="73.00" waitingCount="1" stopTime="0.00" timeLoss="85.68" rerouteNo="0" devices="tripinfo_flow_route_72_duration_20250327_2010.2" vType="car" speedFactor="1.09" vaporized=""/>
    <tripinfo id="flow_route_68_duration_20250327_2010.3" depart="12.00" departLane="1253209803#0_0" departPos="107.62" departSpeed="0.00" departDelay="0.00" arrival="111.00" arrivalLane="-138002002#2_1" arrivalPos="32.97" arrivalSpeed="10.30" duration="99.00" routeLength="276.67" waitingTime="53.00" waitingCount="1" stopTime="0.00" timeLoss="82.06" rerouteNo="0" devices="tripinfo_flow_route_68_duration_20250327_2010.3" vType="car" speedFactor="1.18" vaporized=""/>
    <tripinfo id="flow_route_68_duration_20250327_2010.7" depart="28.00" departLane="1253209803#0_0" departPos="154.41" departSpeed="0.00" departDelay="0.00" arrival="111.00" arrivalLane="-138002002#2_0" arrivalPos="0.16" arrivalSpeed="9.61" duration="83.00" routeLength="197.07" waitingTime="49.00" waitingCount="1" stopTime="0.00" timeLoss="70.70" rerouteNo="0" devices="tripinfo_flow_route_68_duration_20250327_2010.7" vType="car" speedFactor="1.12" vaporized=""/>
    <tripinfo id="flow_route_74_duration_20250327_2010.10" depart="47.00" departLane="380593307#0_0" departPos="100.08" departSpeed="0.00" departDelay="4.15" arrival="111.00" arrivalLane="138002016#0_0" arrivalPos="253.09" arrivalSpeed="16.47" duration="64.00" routeLength="335.70" waitingTime="21.00" waitingCount="1" stopTime="0.00" timeLoss="42.44" rerouteNo="0" devices="tripinfo_flow_route_74_duration_20250327_2010.10" vType="car" speedFactor="1.06" vaporized=""/>
    <tripinfo id="flow_route_68_duration_20250327_2010.1" depart="4.00" departLane="1253209803#0_0" departPos="10.29" departSpeed="0.00" departDelay="0.00" arrival="112.00" arrivalLane="-138002002#2_1" arrivalPos="73.05" arrivalSpeed="12.99" duration="108.00" routeLength="414.08" waitingTime="58.00" waitingCount="1" stopTime="0.00" timeLoss="82.62" rerouteNo="0" devices="tripinfo_flow_route_68_duration_20250327_2010.1" vType="car" speedFactor="1.12" vaporized=""/>
    <tripinfo id="flow_route_74_duration_20250327_2010.6" depart="32.00" departLane="380593307#0_0" departPos="39.23" departSpeed="0.00" departDelay="6.29" arrival="112.00" arrivalLane="138002016#0_0" arrivalPos="312.29" arrivalSpeed="16.30" duration="80.00" routeLength="455.75" waitingTime="25.00" waitingCount="1" stopTime="0.00" timeLoss="51.94" rerouteNo="0" devices="tripinfo_flow_route_74_duration_20250327_2010.6" vType="car" speedFactor="1.08" vaporized=""/>
    <tripinfo id="flow_route_71_duration_20250327_2010.3" depart="11.00" departLane="1369578052#0_0" departPos="12.35" departSpeed="0.00" departDelay="0.41" arrival="113.00" arrivalLane="138002016#0_0" arrivalPos="8.86" arrivalSpeed="10.26" duration="102.00" routeLength="214.20" waitingTime="65.00" waitingCount="1" stopTime="0.00" timeLoss="87.59" rerouteNo="0" devices="tripinfo_flow_route_71_duration_20250327_2010.3" vType="car" speedFactor="0.93" vaporized=""/>
    <tripinfo id="flow_route_68_duration_20250327_2010.5" depart="20.00" departLane="1253209803#0_0" departPos="89.27" departSpeed="0.00" departDelay="0.00" arrival="113.00" arrivalLane="-138002002#2_1" arrivalPos="18.70" arrivalSpeed="9.37" duration="93.00" routeLength="280.75" waitingTime="48.00" waitingCount="1" stopTime="0.00" timeLoss="76.07" rerouteNo="0" devices="tripinfo_flow_route_68_duration_20250327_2010.5" vType="car" speedFactor="1.00" vaporized=""/>
    <tripinfo id="flow_route_71_duration_20250327_2010.7" depart="26.00" departLane="1369578052#0_0" departPos="166.52" departSpeed="0.00" departDelay="1.30" arrival="113.00" arrivalLane="138002016#0_0" arrivalPos="32.75" arrivalSpeed="11.20" duration="87.00" routeLength="83.91" waitingTime="69.00" waitingCount="1" stopTime="0.00" timeLoss="80.97" rerouteNo="0" devices="tripinfo_flow_route_71_duration_20250327_2010.7" vType="car" speedFactor="0.90" vaporized=""/>
    <tripinfo id="flow_route_71_duration_20250327_2010.10" depart="36.00" departLane="1369578052#0_0" departPos="146.14" departSpeed="0.00" departDelay="0.71" arrival="114.00" arrivalLane="138002016#0_0" arrivalPos="2.33" arrivalSpeed="10.33" duration="78.00" routeLength="73.87" waitingTime="59.00" waitingCount="1" stopTime="0.00" timeLoss="73.14" rerouteNo="0" devices="tripinfo_flow_route_71_duration_20250327_2010.10" vType="car" speedFactor="1.02" vaporized=""/>
    <tripinfo id="flow_route_68_duration_20250327_2010.4" depart="16.00" departLane="1253209803#0_0" departPos="33.24" departSpeed="0.00" departDelay="0.00" arrival="116.00" arrivalLane="-138002002#2_1" arrivalPos="67.27" arrivalSpeed="12.75" duration="100.00" routeLength="385.35" waitingTime="51.00" waitingCount="1" stopTime="0.00" timeLoss="75.90" rerouteNo="0" devices="tripinfo_flow_route_68_duration_20250327_2010.4" vType="car" speedFactor="0.90" vaporized=""/>
    <tripinfo id="flow_route_69_duration_20250327_2010.1" depart="31.00" departLane="1253209803#0_0" departPos="254.51" departSpeed="0.00" departDelay="1.00" arrival="117.00" arrivalLane="380585337#0_0" arrivalPos="19.02" arrivalSpeed="14.78" duration="86.00" routeLength="229.39" waitingTime="50.00" waitingCount="1" stopTime="0.00" timeLoss="70.29" rerouteNo="0" devices="tripinfo_flow_route_69_duration_20250327_2010.1" vType="car" speedFactor="0.91" vaporized=""/>
    <tripinfo id="flow_route_71_duration_20250327_2010.9" depart="35.00" departLane="1369578052#0_0" departPos="136.60" departSpeed="0.00" departDelay="3.24" arrival="117.00" arrivalLane="138002016#0_1" arrivalPos="36.50" arrivalSpeed="11.72" duration="82.00" routeLength="117.58" waitingTime="55.00" waitingCount="1" stopTime="0.00" timeLoss="74.28" rerouteNo="0" devices="tripinfo_flow_route_71_duration_20250327_2010.9" vType="car" speedFactor="0.96" vaporized=""/>
    <tripinfo id="flow_route_74_duration_20250327_2010.9" depart="41.00" departLane="380593307#0_0" departPos="36.75" departSpeed="0.00" departDelay="2.44" arrival="117.00" arrivalLane="138002016#0_0" arrivalPos="299.91" arrivalSpeed="16.22" duration="76.00" routeLength="445.84" waitingTime="11.00" waitingCount="1" stopTime="0.00" timeLoss="48.08" rerouteNo="0" devices="tripinfo_flow_route_74_duration_20250327_2010.9" vType="car" speedFactor="1.00" vaporized=""/>
    <tripinfo id="flow_route_68_duration_20250327_2010.10" depart="41.00" departLane="1253209803#0_0" departPos="182.69" departSpeed="0.00" departDelay="1.00" arrival="117.00" arrivalLane="-138002002#2_0" arrivalPos="34.63" arrivalSpeed="12.39" duration="76.00" routeLength="203.26" waitingTime="40.00" waitingCount="1" stopTime="0.00" timeLoss="63.03" rerouteNo="0" devices="tripinfo_flow_route_68_duration_20250327_2010.10" vType="car" speedFactor="1.01" vaporized=""/>
    <tripinfo id="flow_route_68_duration_20250327_2010.6" depart="24.00" departLane="1253209803#0_0" departPos="216.14" departSpeed="0.00" departDelay="0.00" arrival="118.00" arrivalLane="-138002002#2_0" arrivalPos="122.19" arrivalSpeed="15.59" duration="94.00" routeLength="257.37" waitingTime="51.00" waitingCount="1" stopTime="0.00" timeLoss="78.47" rerouteNo="0" devices="tripinfo_flow_route_68_duration_20250327_2010.6" vType="car" speedFactor="1.10" vaporized=""/>