<?xml version="1.0" encoding="UTF-8"?>

<!-- generated on 2025-05-06 16:33:56 by Eclipse SUMO sumo Version 1.20.0
<configuration xmlns:xsi="http://www.w3.org/2001/XMLSchema-instance" xsi:noNamespaceSchemaLocation="http://sumo.dlr.de/xsd/sumoConfiguration.xsd">

    <input>
        <net-file value="osm.net.xml"/>
        <route-files value="xml/routes_ddpg_cluster3839130731_cluster_11644940326_11644940327_11648561426.rou.xml"/>
    </input>

    <output>
        <tripinfo-output value="xml/tripinfo_42368.xml"/>
    </output>

    <traci_server>
        <remote-port value="54513"/>
    </traci_server>

</configuration>
-->

<tripinfos xmlns:xsi="http://www.w3.org/2001/XMLSchema-instance" xsi:noNamespaceSchemaLocation="http://sumo.dlr.de/xsd/tripinfo_file.xsd">
    <tripinfo id="flow_route_111_duration_20250327_1940.0" depart="0.00" departLane="1253188486#8_0" departPos="138.93" departSpeed="0.00" departDelay="0.00" arrival="20.00" arrivalLane="1254519229#0_1" arrivalPos="3.47" arrivalSpeed="13.77" duration="20.00" routeLength="140.76" waitingTime="0.00" waitingCount="0" stopTime="0.00" timeLoss="11.29" rerouteNo="0" devices="tripinfo_flow_route_111_duration_20250327_1940.0" vType="car" speedFactor="0.83" vaporized=""/>
    <tripinfo id="flow_route_124_duration_20250327_1940.0" depart="0.00" departLane="189240000#0-AddedOnRampEdge_0" departPos="82.66" departSpeed="0.00" departDelay="0.00" arrival="23.00" arrivalLane="1254519225#0.109_3" arrivalPos="34.02" arrivalSpeed="15.38" duration="23.00" routeLength="196.39" waitingTime="0.00" waitingCount="0" stopTime="0.00" timeLoss="9.26" rerouteNo="0" devices="tripinfo_flow_route_124_duration_20250327_1940.0" vType="car" speedFactor="0.94" vaporized=""/>
    <tripinfo id="flow_route_112_duration_20250327_1940.1" depart="9.00" departLane="1253188486#8_0" departPos="234.69" departSpeed="0.00" departDelay="0.43" arrival="24.00" arrivalLane="799091563#0_0" arrivalPos="60.42" arrivalSpeed="10.88" duration="15.00" routeLength="80.44" waitingTime="0.00" waitingCount="0" stopTime="0.00" timeLoss="7.99" rerouteNo="0" devices="tripinfo_flow_route_112_duration_20250327_1940.1" vType="car" speedFactor="0.88" vaporized=""/>
    <tripinfo id="flow_route_111_duration_20250327_1940.2" depart="8.00" departLane="1253188486#8_0" departPos="187.56" departSpeed="0.00" departDelay="0.50" arrival="25.00" arrivalLane="1254519229#0_1" arrivalPos="18.84" arrivalSpeed="12.67" duration="17.00" routeLength="107.49" waitingTime="0.00" waitingCount="0" stopTime="0.00" timeLoss="10.12" rerouteNo="0" devices="tripinfo_flow_route_111_duration_20250327_1940.2" vType="car" speedFactor="0.93" vaporized=""/>
    <tripinfo id="flow_route_111_duration_20250327_1940.1" depart="4.00" departLane="1253188486#8_0" departPos="125.85" departSpeed="0.00" departDelay="0.25" arrival="30.00" arrivalLane="1254519229#0_1" arrivalPos="54.39" arrivalSpeed="14.69" duration="26.00" routeLength="204.76" waitingTime="0.00" waitingCount="0" stopTime="0.00" timeLoss="13.52" rerouteNo="0" devices="tripinfo_flow_route_111_duration_20250327_1940.1" vType="car" speedFactor="0.86" vaporized=""/>
    <tripinfo id="flow_route_111_duration_20250327_1940.4" depart="16.00" departLane="1253188486#8_0" departPos="229.41" departSpeed="0.00" departDelay="1.00" arrival="32.00" arrivalLane="1254519229#0_0" arrivalPos="45.48" arrivalSpeed="11.65" duration="16.00" routeLength="92.30" waitingTime="0.00" waitingCount="0" stopTime="0.00" timeLoss="9.76" rerouteNo="0" devices="tripinfo_flow_route_111_duration_20250327_1940.4" vType="car" speedFactor="0.89" vaporized=""/>
    <tripinfo id="flow_route_104_duration_20250327_1940.0" depart="0.00" departLane="189240001_0" departPos="36.52" departSpeed="0.00" departDelay="0.00" arrival="33.00" arrivalLane="1254519225#0.109_0" arrivalPos="30.66" arrivalSpeed="15.20" duration="33.00" routeLength="198.30" waitingTime="1.00" waitingCount="1" stopTime="0.00" timeLoss="20.61" rerouteNo="0" devices="tripinfo_flow_route_104_duration_20250327_1940.0" vType="car" speedFactor="1.08" vaporized=""/>
    <tripinfo id="flow_route_123_duration_20250327_1940.0" depart="0.00" departLane="189240000#0-AddedOnRampEdge_0" departPos="5.69" departSpeed="0.00" departDelay="0.00" arrival="39.00" arrivalLane="1254519229#0_1" arrivalPos="19.69" arrivalSpeed="8.29" duration="39.00" routeLength="159.84" waitingTime="6.00" waitingCount="1" stopTime="0.00" timeLoss="27.63" rerouteNo="0" devices="tripinfo_flow_route_123_duration_20250327_1940.0" vType="car" speedFactor="0.89" vaporized=""/>
    <tripinfo id="flow_route_123_duration_20250327_1940.2" depart="10.00" departLane="189240000#0-AddedOnRampEdge_0" departPos="31.28" departSpeed="0.00" departDelay="0.00" arrival="39.00" arrivalLane="1254519229#0_1" arrivalPos="2.37" arrivalSpeed="7.23" duration="29.00" routeLength="116.93" waitingTime="3.00" waitingCount="1" stopTime="0.00" timeLoss="20.77" rerouteNo="0" devices="tripinfo_flow_route_123_duration_20250327_1940.2" vType="car" speedFactor="0.94" vaporized=""/>
    <tripinfo id="flow_route_123_duration_20250327_1940.3" depart="15.00" departLane="189240000#0-AddedOnRampEdge_0" departPos="67.56" departSpeed="0.00" departDelay="0.00" arrival="41.00" arrivalLane="1254519229#0_0" arrivalPos="19.21" arrivalSpeed="8.23" duration="26.00" routeLength="93.98" waitingTime="1.00" waitingCount="1" stopTime="0.00" timeLoss="18.66" rerouteNo="0" devices="tripinfo_flow_route_123_duration_20250327_1940.3" vType="car" speedFactor="0.83" vaporized=""/>
    <tripinfo id="flow_route_96_duration_20250327_1940.0" depart="0.00" departLane="1341093416#0_0" departPos="184.53" departSpeed="0.00" departDelay="0.00" arrival="43.00" arrivalLane="1254519229#0_1" arrivalPos="3.62" arrivalSpeed="2.68" duration="43.00" routeLength="114.10" waitingTime="13.00" waitingCount="2" stopTime="0.00" timeLoss="35.18" rerouteNo="0" devices="tripinfo_flow_route_96_duration_20250327_1940.0" vType="car" speedFactor="1.01" vaporized=""/>
    <tripinfo id="flow_route_123_duration_20250327_1940.1" depart="5.00" departLane="189240000#0-AddedOnRampEdge_0" departPos="88.65" departSpeed="0.00" departDelay="0.00" arrival="43.00" arrivalLane="1254519229#0_0" arrivalPos="50.41" arrivalSpeed="10.26" duration="38.00" routeLength="104.08" waitingTime="14.00" waitingCount="1" stopTime="0.00" timeLoss="30.91" rerouteNo="0" devices="tripinfo_flow_route_123_duration_20250327_1940.1" vType="car" speedFactor="1.03" vaporized=""/>
    <tripinfo id="flow_route_123_duration_20250327_1940.4" depart="20.00" departLane="189240000#0-AddedOnRampEdge_0" departPos="87.62" departSpeed="0.00" departDelay="0.00" arrival="43.00" arrivalLane="1254519229#0_0" arrivalPos="12.08" arrivalSpeed="8.66" duration="23.00" routeLength="66.79" waitingTime="1.00" waitingCount="1" stopTime="0.00" timeLoss="18.22" rerouteNo="0" devices="tripinfo_flow_route_123_duration_20250327_1940.4" vType="car" speedFactor="1.18" vaporized=""/>
    <tripinfo id="flow_route_112_duration_20250327_1940.0" depart="0.00" departLane="1253188486#8_0" departPos="64.90" departSpeed="0.00" departDelay="0.00" arrival="46.00" arrivalLane="799091563#0_0" arrivalPos="282.23" arrivalSpeed="16.35" duration="46.00" routeLength="472.04" waitingTime="0.00" waitingCount="0" stopTime="0.00" timeLoss="16.33" rerouteNo="0" devices="tripinfo_flow_route_112_duration_20250327_1940.0" vType="car" speedFactor="1.05" vaporized=""/>
    <tripinfo id="flow_route_95_duration_20250327_1940.2" depart="15.00" departLane="1341093416#0_0" departPos="222.56" departSpeed="0.00" departDelay="0.00" arrival="48.00" arrivalLane="1254519225#0.109_0" arrivalPos="13.92" arrivalSpeed="13.77" duration="33.00" routeLength="173.73" waitingTime="2.00" waitingCount="1" stopTime="0.00" timeLoss="21.55" rerouteNo="0" devices="tripinfo_flow_route_95_duration_20250327_1940.2" vType="car" speedFactor="1.01" vaporized=""/>
    <tripinfo id="flow_route_96_duration_20250327_1940.2" depart="16.00" departLane="1341093416#0_0" departPos="189.63" departSpeed="0.00" departDelay="1.00" arrival="48.00" arrivalLane="1254519229#0_1" arrivalPos="13.36" arrivalSpeed="6.18" duration="32.00" routeLength="118.74" waitingTime="3.00" waitingCount="1" stopTime="0.00" timeLoss="23.62" rerouteNo="0" devices="tripinfo_flow_route_96_duration_20250327_1940.2" vType="car" speedFactor="0.97" vaporized=""/>
    <tripinfo id="flow_route_95_duration_20250327_1940.0" depart="0.00" departLane="1341093416#0_0" departPos="1.65" departSpeed="0.00" departDelay="0.00" arrival="52.00" arrivalLane="1254519225#0.109_0" arrivalPos="44.45" arrivalSpeed="15.32" duration="52.00" routeLength="425.17" waitingTime="2.00" waitingCount="1" stopTime="0.00" timeLoss="24.79" rerouteNo="0" devices="tripinfo_flow_route_95_duration_20250327_1940.0" vType="car" speedFactor="0.94" vaporized=""/>
    <tripinfo id="flow_route_105_duration_20250327_1940.0" depart="1.00" departLane="189240001_0" departPos="25.23" departSpeed="0.00" departDelay="1.00" arrival="53.00" arrivalLane="799091563#0_2" arrivalPos="224.02" arrivalSpeed="16.14" duration="52.00" routeLength="308.35" waitingTime="10.00" waitingCount="1" stopTime="0.00" timeLoss="32.61" rerouteNo="0" devices="tripinfo_flow_route_105_duration_20250327_1940.0" vType="car" speedFactor="1.03" vaporized=""/>
    <tripinfo id="flow_route_96_duration_20250327_1940.1" depart="8.00" departLane="1341093416#0_0" departPos="82.74" departSpeed="0.00" departDelay="0.50" arrival="54.00" arrivalLane="1254519229#0_1" arrivalPos="43.31" arrivalSpeed="9.58" duration="46.00" routeLength="255.58" waitingTime="1.00" waitingCount="1" stopTime="0.00" timeLoss="29.56" rerouteNo="0" devices="tripinfo_flow_route_96_duration_20250327_1940.1" vType="car" speedFactor="0.99" vaporized=""/>
    <tripinfo id="flow_route_112_duration_20250327_1940.3" depart="27.00" departLane="1253188486#8_0" departPos="166.51" departSpeed="0.00" departDelay="1.29" arrival="54.00" arrivalLane="799091563#0_0" arrivalPos="30.38" arrivalSpeed="8.09" duration="27.00" routeLength="118.58" waitingTime="0.00" waitingCount="0" stopTime="0.00" timeLoss="18.11" rerouteNo="0" devices="tripinfo_flow_route_112_duration_20250327_1940.3" vType="car" speedFactor="0.97" vaporized=""/>
    <tripinfo id="flow_route_94_duration_20250327_1940.1" depart="20.00" departLane="1341093416#0_0" departPos="149.92" departSpeed="0.00" departDelay="0.00" arrival="57.00" arrivalLane="799091563#0_1" arrivalPos="243.64" arrivalSpeed="15.25" duration="37.00" routeLength="400.07" waitingTime="0.00" waitingCount="0" stopTime="0.00" timeLoss="11.21" rerouteNo="0" devices="tripinfo_flow_route_94_duration_20250327_1940.1" vType="car" speedFactor="0.93" vaporized=""/>
    <tripinfo id="flow_route_111_duration_20250327_1940.3" depart="12.00" departLane="1253188486#8_0" departPos="100.92" departSpeed="0.00" departDelay="0.75" arrival="58.00" arrivalLane="1254519229#0_0" arrivalPos="9.98" arrivalSpeed="6.59" duration="46.00" routeLength="185.28" waitingTime="8.00" waitingCount="1" stopTime="0.00" timeLoss="34.83" rerouteNo="0" devices="tripinfo_flow_route_111_duration_20250327_1940.3" vType="car" speedFactor="1.16" vaporized=""/>
    <tripinfo id="flow_route_124_duration_20250327_1940.1" depart="4.00" departLane="189240000#0-AddedOnRampEdge_0" departPos="28.99" departSpeed="0.00" departDelay="0.84" arrival="60.00" arrivalLane="1254519225#0.109_3" arrivalPos="2.88" arrivalSpeed="13.85" duration="56.00" routeLength="218.92" waitingTime="15.00" waitingCount="2" stopTime="0.00" timeLoss="41.21" rerouteNo="0" devices="tripinfo_flow_route_124_duration_20250327_1940.1" vType="car" speedFactor="1.09" vaporized=""/>
    <tripinfo id="flow_route_94_duration_20250327_1940.0" depart="0.00" departLane="1341093416#0_0" departPos="204.30" departSpeed="0.00" departDelay="0.00" arrival="61.00" arrivalLane="799091563#0_0" arrivalPos="338.33" arrivalSpeed="16.45" duration="61.00" routeLength="440.38" waitingTime="12.00" waitingCount="1" stopTime="0.00" timeLoss="34.08" rerouteNo="0" devices="tripinfo_flow_route_94_duration_20250327_1940.0" vType="car" speedFactor="1.06" vaporized=""/>
    <tripinfo id="flow_route_124_duration_20250327_1940.2" depart="7.00" departLane="189240000#0-AddedOnRampEdge_0" departPos="83.80" departSpeed="0.00" departDelay="0.69" arrival="61.00" arrivalLane="1254519225#0.109_3" arrivalPos="51.43" arrivalSpeed="15.47" duration="54.00" routeLength="212.66" waitingTime="16.00" waitingCount="2" stopTime="0.00" timeLoss="39.97" rerouteNo="0" devices="tripinfo_flow_route_124_duration_20250327_1940.2" vType="car" speedFactor="1.05" vaporized=""/>
    <tripinfo id="flow_route_111_duration_20250327_1940.7" depart="27.00" departLane="1253188486#8_0" departPos="103.83" departSpeed="0.00" departDelay="0.75" arrival="61.00" arrivalLane="1254519229#0_1" arrivalPos="16.90" arrivalSpeed="9.08" duration="34.00" routeLength="189.29" waitingTime="2.00" waitingCount="1" stopTime="0.00" timeLoss="22.53" rerouteNo="0" devices="tripinfo_flow_route_111_duration_20250327_1940.7" vType="car" speedFactor="1.10" vaporized=""/>
    <tripinfo id="flow_route_112_duration_20250327_1940.4" depart="35.00" departLane="1253188486#8_0" departPos="214.39" departSpeed="0.00" departDelay="0.72" arrival="61.00" arrivalLane="799091563#0_0" arrivalPos="161.42" arrivalSpeed="16.15" duration="26.00" routeLength="201.74" waitingTime="0.00" waitingCount="0" stopTime="0.00" timeLoss="12.70" rerouteNo="0" devices="tripinfo_flow_route_112_duration_20250327_1940.4" vType="car" speedFactor="1.00" vaporized=""/>
    <tripinfo id="flow_route_111_duration_20250327_1940.5" depart="20.00" departLane="1253188486#8_0" departPos="68.41" departSpeed="0.00" departDelay="1.25" arrival="65.00" arrivalLane="1254519229#0_0" arrivalPos="46.16" arrivalSpeed="10.89" duration="45.00" routeLength="253.97" waitingTime="0.00" waitingCount="0" stopTime="0.00" timeLoss="29.14" rerouteNo="0" devices="tripinfo_flow_route_111_duration_20250327_1940.5" vType="car" speedFactor="0.95" vaporized=""/>
    <tripinfo id="flow_route_111_duration_20250327_1940.6" depart="23.00" departLane="1253188486#8_0" departPos="139.14" departSpeed="0.00" departDelay="0.50" arrival="65.00" arrivalLane="1254519229#0_1" arrivalPos="78.95" arrivalSpeed="12.50" duration="42.00" routeLength="216.03" waitingTime="5.00" waitingCount="1" stopTime="0.00" timeLoss="28.39" rerouteNo="0" devices="tripinfo_flow_route_111_duration_20250327_1940.6" vType="car" speedFactor="1.17" vaporized=""/>
    <tripinfo id="flow_route_123_duration_20250327_1940.6" depart="30.00" departLane="189240000#0-AddedOnRampEdge_0" departPos="28.58" departSpeed="0.00" departDelay="0.00" arrival="70.00" arrivalLane="1254519229#0_1" arrivalPos="33.19" arrivalSpeed="10.12" duration="40.00" routeLength="150.45" waitingTime="3.00" waitingCount="1" stopTime="0.00" timeLoss="29.98" rerouteNo="0" devices="tripinfo_flow_route_123_duration_20250327_1940.6" vType="car" speedFactor="1.04" vaporized=""/>
    <tripinfo id="flow_route_123_duration_20250327_1940.7" depart="35.00" departLane="189240000#0-AddedOnRampEdge_0" departPos="54.16" departSpeed="0.00" departDelay="0.00" arrival="72.00" arrivalLane="1254519229#0_0" arrivalPos="56.55" arrivalSpeed="10.43" duration="37.00" routeLength="144.73" waitingTime="8.00" waitingCount="1" stopTime="0.00" timeLoss="27.02" rerouteNo="0" devices="tripinfo_flow_route_123_duration_20250327_1940.7" vType="car" speedFactor="0.90" vaporized=""/>
    <tripinfo id="flow_route_123_duration_20250327_1940.8" depart="40.00" departLane="189240000#0-AddedOnRampEdge_0" departPos="13.33" departSpeed="0.00" departDelay="0.00" arrival="72.00" arrivalLane="1254519229#0_0" arrivalPos="9.89" arrivalSpeed="10.53" duration="32.00" routeLength="138.89" waitingTime="0.00" waitingCount="0" stopTime="0.00" timeLoss="22.54" rerouteNo="0" devices="tripinfo_flow_route_123_duration_20250327_1940.8" vType="car" speedFactor="1.00" vaporized=""/>
    <tripinfo id="flow_route_123_duration_20250327_1940.10" depart="50.00" departLane="189240000#0-AddedOnRampEdge_0" departPos="77.52" departSpeed="0.00" departDelay="0.00" arrival="73.00" arrivalLane="1254519229#0_0" arrivalPos="51.01" arrivalSpeed="10.38" duration="23.00" routeLength="115.82" waitingTime="0.00" waitingCount="0" stopTime="0.00" timeLoss="14.84" rerouteNo="0" devices="tripinfo_flow_route_123_duration_20250327_1940.10" vType="car" speedFactor="0.88" vaporized=""/>
    <tripinfo id="flow_route_123_duration_20250327_1940.11" depart="55.00" departLane="189240000#0-AddedOnRampEdge_0" departPos="86.73" departSpeed="0.00" departDelay="0.00" arrival="73.00" arrivalLane="1254519229#0_1" arrivalPos="52.41" arrivalSpeed="12.85" duration="18.00" routeLength="111.52" waitingTime="0.00" waitingCount="0" stopTime="0.00" timeLoss="10.36" rerouteNo="0" devices="tripinfo_flow_route_123_duration_20250327_1940.11" vType="car" speedFactor="0.94" vaporized=""/>
    <tripinfo id="flow_route_95_duration_20250327_1940.1" depart="8.00" departLane="1341093416#0_0" departPos="8.89" departSpeed="0.00" departDelay="0.50" arrival="75.00" arrivalLane="1254519225#0.109_0" arrivalPos="24.74" arrivalSpeed="14.21" duration="67.00" routeLength="398.22" waitingTime="16.00" waitingCount="1" stopTime="0.00" timeLoss="41.85" rerouteNo="0" devices="tripinfo_flow_route_95_duration_20250327_1940.1" vType="car" speedFactor="1.12" vaporized=""/>
    <tripinfo id="flow_route_95_duration_20250327_1940.3" depart="23.00" departLane="1341093416#0_0" departPos="92.95" departSpeed="0.00" departDelay="0.50" arrival="76.00" arrivalLane="1254519225#0.109_0" arrivalPos="4.18" arrivalSpeed="14.01" duration="53.00" routeLength="293.59" waitingTime="12.00" waitingCount="1" stopTime="0.00" timeLoss="34.08" rerouteNo="0" devices="tripinfo_flow_route_95_duration_20250327_1940.3" vType="car" speedFactor="1.15" vaporized=""/>
    <tripinfo id="flow_route_96_duration_20250327_1940.3" depart="23.00" departLane="1341093416#0_0" departPos="23.59" departSpeed="0.00" departDelay="0.50" arrival="76.00" arrivalLane="1254519229#0_1" arrivalPos="14.24" arrivalSpeed="5.75" duration="53.00" routeLength="285.67" waitingTime="10.00" waitingCount="2" stopTime="0.00" timeLoss="34.52" rerouteNo="0" devices="tripinfo_flow_route_96_duration_20250327_1940.3" vType="car" speedFactor="1.01" vaporized=""/>
    <tripinfo id="flow_route_112_duration_20250327_1940.6" depart="52.00" departLane="1253188486#8_0" departPos="240.67" departSpeed="0.00" departDelay="0.57" arrival="77.00" arrivalLane="799091563#0_0" arrivalPos="5.55" arrivalSpeed="4.75" duration="25.00" routeLength="19.60" waitingTime="16.00" waitingCount="1" stopTime="0.00" timeLoss="22.73" rerouteNo="0" devices="tripinfo_flow_route_112_duration_20250327_1940.6" vType="car" speedFactor="0.91" vaporized=""/>
    <tripinfo id="flow_route_95_duration_20250327_1940.4" depart="30.00" departLane="1341093416#0_0" departPos="100.13" departSpeed="0.00" departDelay="0.00" arrival="80.00" arrivalLane="1254519225#0.109_0" arrivalPos="31.99" arrivalSpeed="15.68" duration="50.00" routeLength="314.24" waitingTime="4.00" waitingCount="1" stopTime="0.00" timeLoss="29.94" rerouteNo="0" devices="tripinfo_flow_route_95_duration_20250327_1940.4" vType="car" speedFactor="1.03" vaporized=""/>
    <tripinfo id="flow_route_95_duration_20250327_1940.6" depart="46.00" departLane="1341093416#0_0" departPos="104.04" departSpeed="0.00" departDelay="1.00" arrival="84.00" arrivalLane="1254519225#0.109_0" arrivalPos="61.03" arrivalSpeed="16.57" duration="38.00" routeLength="339.36" waitingTime="0.00" waitingCount="0" stopTime="0.00" timeLoss="16.37" rerouteNo="0" devices="tripinfo_flow_route_95_duration_20250327_1940.6" vType="car" speedFactor="1.02" vaporized=""/>
    <tripinfo id="flow_route_96_duration_20250327_1940.6" depart="46.00" departLane="1341093416#0_0" departPos="186.68" departSpeed="0.00" departDelay="1.00" arrival="84.00" arrivalLane="1254519229#0_1" arrivalPos="67.28" arrivalSpeed="10.86" duration="38.00" routeLength="175.60" waitingTime="3.00" waitingCount="1" stopTime="0.00" timeLoss="26.05" rerouteNo="0" devices="tripinfo_flow_route_96_duration_20250327_1940.6" vType="car" speedFactor="0.97" vaporized=""/>
    <tripinfo id="flow_route_111_duration_20250327_1940.10" depart="38.00" departLane="1253188486#8_0" departPos="162.37" departSpeed="0.00" departDelay="0.50" arrival="85.00" arrivalLane="1254519229#0_0" arrivalPos="27.28" arrivalSpeed="9.10" duration="47.00" routeLength="141.13" waitingTime="15.00" waitingCount="1" stopTime="0.00" timeLoss="38.30" rerouteNo="0" devices="tripinfo_flow_route_111_duration_20250327_1940.10" vType="car" speedFactor="1.17" vaporized=""/>
    <tripinfo id="flow_route_111_duration_20250327_1940.13" depart="49.00" departLane="1253188486#8_0" departPos="210.15" departSpeed="0.00" departDelay="0.25" arrival="85.00" arrivalLane="1254519229#0_0" arrivalPos="8.19" arrivalSpeed="8.06" duration="36.00" routeLength="74.26" waitingTime="14.00" waitingCount="1" stopTime="0.00" timeLoss="31.31" rerouteNo="0" devices="tripinfo_flow_route_111_duration_20250327_1940.13" vType="car" speedFactor="0.94" vaporized=""/>
    <tripinfo id="flow_route_124_duration_20250327_1940.5" depart="16.00" departLane="189240000#0-AddedOnRampEdge_0" departPos="90.63" departSpeed="0.00" departDelay="0.22" arrival="87.00" arrivalLane="1254519225#0.109_3" arrivalPos="37.20" arrivalSpeed="14.06" duration="71.00" routeLength="191.60" waitingTime="25.00" waitingCount="4" stopTime="0.00" timeLoss="55.76" rerouteNo="0" devices="tripinfo_flow_route_124_duration_20250327_1940.5" vType="car" speedFactor="0.87" vaporized=""/>
    <tripinfo id="flow_route_96_duration_20250327_1940.4" depart="31.00" departLane="1341093416#0_0" departPos="28.71" departSpeed="0.00" departDelay="1.00" arrival="87.00" arrivalLane="1254519229#0_1" arrivalPos="65.69" arrivalSpeed="11.05" duration="56.00" routeLength="331.98" waitingTime="4.00" waitingCount="1" stopTime="0.00" timeLoss="34.18" rerouteNo="0" devices="tripinfo_flow_route_96_duration_20250327_1940.4" vType="car" speedFactor="0.96" vaporized=""/>
    <tripinfo id="flow_route_94_duration_20250327_1940.2" depart="40.00" departLane="1341093416#0_0" departPos="195.57" departSpeed="0.00" departDelay="0.00" arrival="87.00" arrivalLane="799091563#0_0" arrivalPos="270.44" arrivalSpeed="16.32" duration="47.00" routeLength="381.22" waitingTime="2.00" waitingCount="1" stopTime="0.00" timeLoss="23.33" rerouteNo="0" devices="tripinfo_flow_route_94_duration_20250327_1940.2" vType="car" speedFactor="1.10" vaporized=""/>
    <tripinfo id="flow_route_124_duration_20250327_1940.4" depart="13.00" departLane="189240000#0-AddedOnRampEdge_0" departPos="24.93" departSpeed="0.00" departDelay="0.37" arrival="90.00" arrivalLane="1254519225#0.109_3" arrivalPos="60.18" arrivalSpeed="16.51" duration="77.00" routeLength="280.28" waitingTime="21.00" waitingCount="4" stopTime="0.00" timeLoss="58.62" rerouteNo="0" devices="tripinfo_flow_route_124_duration_20250327_1940.4" vType="car" speedFactor="1.02" vaporized=""/>
    <tripinfo id="flow_route_111_duration_20250327_1940.11" depart="42.00" departLane="1253188486#8_0" departPos="117.77" departSpeed="0.00" departDelay="0.75" arrival="93.00" arrivalLane="1254519229#0_0" arrivalPos="70.18" arrivalSpeed="12.22" duration="51.00" routeLength="228.63" waitingTime="12.00" waitingCount="1" stopTime="0.00" timeLoss="37.17" rerouteNo="0" devices="tripinfo_flow_route_111_duration_20250327_1940.11" vType="car" speedFactor="1.00" vaporized=""/>
    <tripinfo id="flow_route_112_duration_20250327_1940.5" depart="43.00" departLane="1253188486#8_0" departPos="165.69" departSpeed="0.00" departDelay="0.15" arrival="93.00" arrivalLane="799091563#0_0" arrivalPos="148.34" arrivalSpeed="15.47" duration="50.00" routeLength="237.37" waitingTime="13.00" waitingCount="1" stopTime="0.00" timeLoss="34.56" rerouteNo="0" devices="tripinfo_flow_route_112_duration_20250327_1940.5" vType="car" speedFactor="1.14" vaporized=""/>
    <tripinfo id="flow_route_112_duration_20250327_1940.2" depart="20.00" departLane="1253188486#8_0" departPos="6.83" departSpeed="0.00" departDelay="2.86" arrival="95.00" arrivalLane="799091563#0_0" arrivalPos="116.87" arrivalSpeed="14.58" duration="75.00" routeLength="364.75" waitingTime="12.00" waitingCount="1" stopTime="0.00" timeLoss="50.27" rerouteNo="0" devices="tripinfo_flow_route_112_duration_20250327_1940.2" vType="car" speedFactor="0.92" vaporized=""/>
    <tripinfo id="flow_route_111_duration_20250327_1940.9" depart="34.00" departLane="1253188486#8_0" departPos="120.87" departSpeed="0.00" departDelay="0.25" arrival="95.00" arrivalLane="1254519229#0_1" arrivalPos="73.59" arrivalSpeed="12.48" duration="61.00" routeLength="228.94" waitingTime="18.00" waitingCount="2" stopTime="0.00" timeLoss="47.09" rerouteNo="0" devices="tripinfo_flow_route_111_duration_20250327_1940.9" vType="car" speedFactor="1.09" vaporized=""/>
    <tripinfo id="flow_route_123_duration_20250327_1940.5" depart="25.00" departLane="189240000#0-AddedOnRampEdge_0" departPos="4.42" departSpeed="0.00" departDelay="0.00" arrival="96.00" arrivalLane="1254519229#0_1" arrivalPos="14.38" arrivalSpeed="7.34" duration="71.00" routeLength="155.79" waitingTime="24.00" waitingCount="4" stopTime="0.00" timeLoss="61.16" rerouteNo="0" devices="tripinfo_flow_route_123_duration_20250327_1940.5" vType="car" speedFactor="1.02" vaporized=""/>
    <tripinfo id="flow_route_123_duration_20250327_1940.9" depart="45.00" departLane="189240000#0-AddedOnRampEdge_0" departPos="55.62" departSpeed="0.00" departDelay="0.00" arrival="102.00" arrivalLane="1254519229#0_0" arrivalPos="71.97" arrivalSpeed="11.47" duration="57.00" routeLength="158.68" waitingTime="21.00" waitingCount="2" stopTime="0.00" timeLoss="47.14" rerouteNo="0" devices="tripinfo_flow_route_123_duration_20250327_1940.9" vType="car" speedFactor="1.12" vaporized=""/>
    <tripinfo id="flow_route_95_duration_20250327_1940.5" depart="38.00" departLane="1341093416#0_0" departPos="27.84" departSpeed="0.00" departDelay="0.50" arrival="104.00" arrivalLane="1254519225#0.109_0" arrivalPos="18.49" arrivalSpeed="13.49" duration="66.00" routeLength="373.02" waitingTime="14.00" waitingCount="1" stopTime="0.00" timeLoss="41.34" rerouteNo="0" devices="tripinfo_flow_route_95_duration_20250327_1940.5" vType="car" speedFactor="0.85" vaporized=""/>
    <tripinfo id="flow_route_96_duration_20250327_1940.5" depart="39.00" departLane="1341093416#0_0" departPos="77.10" departSpeed="0.00" departDelay="1.50" arrival="105.00" arrivalLane="1254519229#0_1" arrivalPos="32.71" arrivalSpeed="7.70" duration="66.00" routeLength="250.62" waitingTime="12.00" waitingCount="2" stopTime="0.00" timeLoss="49.30" rerouteNo="0" devices="tripinfo_flow_route_96_duration_20250327_1940.5" vType="car" speedFactor="0.85" vaporized=""/>
    <tripinfo id="flow_route_124_duration_20250327_1940.3" depart="10.00" departLane="189240000#0-AddedOnRampEdge_0" departPos="12.21" departSpeed="0.00" departDelay="0.53" arrival="107.00" arrivalLane="1254519225#0.109_3" arrivalPos="42.74" arrivalSpeed="15.50" duration="97.00" routeLength="275.56" waitingTime="28.00" waitingCount="4" stopTime="0.00" timeLoss="77.32" rerouteNo="0" devices="tripinfo_flow_route_124_duration_20250327_1940.3" vType="car" speedFactor="0.94" vaporized=""/>
    <tripinfo id="flow_route_96_duration_20250327_1940.7" depart="53.00" departLane="1341093416#0_0" departPos="94.82" departSpeed="0.00" departDelay="0.50" arrival="108.00" arrivalLane="1254519229#0_1" arrivalPos="38.41" arrivalSpeed="8.99" duration="55.00" routeLength="238.59" waitingTime="8.00" waitingCount="1" stopTime="0.00" timeLoss="39.24" rerouteNo="0" devices="tripinfo_flow_route_96_duration_20250327_1940.7" vType="car" speedFactor="1.02" vaporized=""/>
    <tripinfo id="flow_route_124_duration_20250327_1940.6" depart="19.00" departLane="189240000#0-AddedOnRampEdge_0" departPos="17.31" departSpeed="0.00" departDelay="0.06" arrival="109.00" arrivalLane="1254519225#0.109_3" arrivalPos="10.51" arrivalSpeed="14.39" duration="90.00" routeLength="238.23" waitingTime="32.00" waitingCount="4" stopTime="0.00" timeLoss="74.57" rerouteNo="0" devices="tripinfo_flow_route_124_duration_20250327_1940.6" vType="car" speedFactor="1.13" vaporized=""/>
    <tripinfo id="flow_route_124_duration_20250327_1940.11" depart="35.00" departLane="189240000#0-AddedOnRampEdge_0" departPos="91.72" departSpeed="0.00" departDelay="0.27" arrival="109.00" arrivalLane="1254519225#0.109_3" arrivalPos="28.44" arrivalSpeed="14.34" duration="74.00" routeLength="181.75" waitingTime="34.00" waitingCount="4" stopTime="0.00" timeLoss="59.56" rerouteNo="0" devices="tripinfo_flow_route_124_duration_20250327_1940.11" vType="car" speedFactor="0.88" vaporized=""/>
    <tripinfo id="flow_route_95_duration_20250327_1940.7" depart="53.00" departLane="1341093416#0_0" departPos="45.93" departSpeed="0.00" departDelay="0.50" arrival="109.00" arrivalLane="1254519225#0.109_0" arrivalPos="55.35" arrivalSpeed="16.10" duration="56.00" routeLength="391.79" waitingTime="6.00" waitingCount="1" stopTime="0.00" timeLoss="31.26" rerouteNo="0" devices="tripinfo_flow_route_95_duration_20250327_1940.7" vType="car" speedFactor="1.04" vaporized=""/>
    <tripinfo id="flow_route_111_duration_20250327_1940.15" depart="58.00" departLane="1253188486#8_0" departPos="28.05" departSpeed="0.00" departDelay="1.75" arrival="112.00" arrivalLane="1254519229#0_0" arrivalPos="0.93" arrivalSpeed="7.50" duration="54.00" routeLength="249.10" waitingTime="9.00" waitingCount="1" stopTime="0.00" timeLoss="38.70" rerouteNo="0" devices="tripinfo_flow_route_111_duration_20250327_1940.15" vType="car" speedFactor="1.06" vaporized=""/>