<?xml version="1.0" encoding="UTF-8"?>

<!-- generated on 2025-05-06 21:09:12 by Eclipse SUMO sumo Version 1.20.0
<configuration xmlns:xsi="http://www.w3.org/2001/XMLSchema-instance" xsi:noNamespaceSchemaLocation="http://sumo.dlr.de/xsd/sumoConfiguration.xsd">

    <input>
        <net-file value="osm.net.xml"/>
        <route-files value="xml/route_rl_GS_cluster_4854142864_4854142865_9.rou.xml"/>
    </input>

    <output>
        <tripinfo-output value="xml/tripinfo_rl_GS_cluster_4854142864_4854142865_9.xml"/>
    </output>

    <traci_server>
        <remote-port value="34415"/>
    </traci_server>

</configuration>
-->

<tripinfos xmlns:xsi="http://www.w3.org/2001/XMLSchema-instance" xsi:noNamespaceSchemaLocation="http://sumo.dlr.de/xsd/tripinfo_file.xsd">
    <tripinfo id="flow_route_39_duration_20250327_2020.0" depart="0.00" departLane="133126030#0_0" departPos="101.03" departSpeed="0.00" departDelay="0.00" arrival="29.00" arrivalLane="1328664748#0_0" arrivalPos="158.52" arrivalSpeed="15.14" duration="29.00" routeLength="263.70" waitingTime="0.00" waitingCount="0" stopTime="0.00" timeLoss="11.26" rerouteNo="0" devices="tripinfo_flow_route_39_duration_20250327_2020.0" vType="car" speedFactor="0.94" vaporized=""/>
    <tripinfo id="flow_route_38_duration_20250327_2020.0" depart="0.00" departLane="133126030#0_0" departPos="45.86" departSpeed="0.00" departDelay="0.00" arrival="34.00" arrivalLane="134193294#0_0" arrivalPos="152.84" arrivalSpeed="16.03" duration="34.00" routeLength="301.86" waitingTime="0.00" waitingCount="0" stopTime="0.00" timeLoss="14.99" rerouteNo="0" devices="tripinfo_flow_route_38_duration_20250327_2020.0" vType="car" speedFactor="1.06" vaporized=""/>
    <tripinfo id="flow_route_38_duration_20250327_2020.1" depart="12.00" departLane="133126030#0_0" departPos="44.73" departSpeed="0.00" departDelay="0.00" arrival="47.00" arrivalLane="134193294#0_0" arrivalPos="165.46" arrivalSpeed="16.27" duration="35.00" routeLength="315.61" waitingTime="0.00" waitingCount="0" stopTime="0.00" timeLoss="14.95" rerouteNo="0" devices="tripinfo_flow_route_38_duration_20250327_2020.1" vType="car" speedFactor="1.16" vaporized=""/>
    <tripinfo id="flow_route_43_duration_20250327_2020.2" depart="12.00" departLane="1328664744#0_0" departPos="180.08" departSpeed="0.00" departDelay="0.00" arrival="48.00" arrivalLane="134193294#0_3" arrivalPos="45.30" arrivalSpeed="9.79" duration="36.00" routeLength="105.29" waitingTime="11.00" waitingCount="1" stopTime="0.00" timeLoss="28.50" rerouteNo="0" devices="tripinfo_flow_route_43_duration_20250327_2020.2" vType="car" speedFactor="1.02" vaporized=""/>
    <tripinfo id="flow_route_43_duration_20250327_2020.6" depart="36.00" departLane="1328664744#0_0" departPos="187.57" departSpeed="0.00" departDelay="0.00" arrival="52.00" arrivalLane="134193294#0_3" arrivalPos="24.21" arrivalSpeed="9.67" duration="16.00" routeLength="76.71" waitingTime="0.00" waitingCount="0" stopTime="0.00" timeLoss="10.59" rerouteNo="0" devices="tripinfo_flow_route_43_duration_20250327_2020.6" vType="car" speedFactor="1.10" vaporized=""/>
    <tripinfo id="flow_route_43_duration_20250327_2020.0" depart="0.00" departLane="1328664744#0_0" departPos="1.34" departSpeed="0.00" departDelay="0.00" arrival="55.00" arrivalLane="134193294#0_3" arrivalPos="84.30" arrivalSpeed="13.64" duration="55.00" routeLength="323.03" waitingTime="9.00" waitingCount="1" stopTime="0.00" timeLoss="34.25" rerouteNo="0" devices="tripinfo_flow_route_43_duration_20250327_2020.0" vType="car" speedFactor="1.08" vaporized=""/>
    <tripinfo id="flow_route_43_duration_20250327_2020.1" depart="6.00" departLane="1328664744#0_0" departPos="120.76" departSpeed="0.00" departDelay="0.00" arrival="55.00" arrivalLane="134193294#0_3" arrivalPos="108.67" arrivalSpeed="14.38" duration="49.00" routeLength="227.98" waitingTime="11.00" waitingCount="1" stopTime="0.00" timeLoss="33.79" rerouteNo="0" devices="tripinfo_flow_route_43_duration_20250327_2020.1" vType="car" speedFactor="1.03" vaporized=""/>
    <tripinfo id="flow_route_43_duration_20250327_2020.3" depart="18.00" departLane="1328664744#0_0" departPos="121.30" departSpeed="0.00" departDelay="0.00" arrival="58.00" arrivalLane="134193294#0_3" arrivalPos="31.45" arrivalSpeed="10.62" duration="40.00" routeLength="150.22" waitingTime="5.00" waitingCount="2" stopTime="0.00" timeLoss="30.11" rerouteNo="0" devices="tripinfo_flow_route_43_duration_20250327_2020.3" vType="car" speedFactor="1.13" vaporized=""/>
    <tripinfo id="flow_route_43_duration_20250327_2020.4" depart="24.00" departLane="1328664744#0_0" departPos="136.46" departSpeed="0.00" departDelay="0.00" arrival="68.00" arrivalLane="134193294#0_3" arrivalPos="123.83" arrivalSpeed="16.30" duration="44.00" routeLength="227.44" waitingTime="2.00" waitingCount="2" stopTime="0.00" timeLoss="28.97" rerouteNo="0" devices="tripinfo_flow_route_43_duration_20250327_2020.4" vType="car" speedFactor="1.18" vaporized=""/>
    <tripinfo id="flow_route_43_duration_20250327_2020.5" depart="30.00" departLane="1328664744#0_0" departPos="101.11" departSpeed="0.00" departDelay="0.00" arrival="69.00" arrivalLane="134193294#0_3" arrivalPos="107.25" arrivalSpeed="15.10" duration="39.00" routeLength="246.21" waitingTime="0.00" waitingCount="0" stopTime="0.00" timeLoss="22.64" rerouteNo="0" devices="tripinfo_flow_route_43_duration_20250327_2020.5" vType="car" speedFactor="1.09" vaporized=""/>
    <tripinfo id="flow_route_43_duration_20250327_2020.8" depart="48.00" departLane="1328664744#0_0" departPos="87.29" departSpeed="0.00" departDelay="0.00" arrival="79.00" arrivalLane="134193294#0_3" arrivalPos="83.44" arrivalSpeed="13.70" duration="31.00" routeLength="236.22" waitingTime="0.00" waitingCount="0" stopTime="0.00" timeLoss="15.15" rerouteNo="0" devices="tripinfo_flow_route_43_duration_20250327_2020.8" vType="car" speedFactor="1.02" vaporized=""/>
    <tripinfo id="flow_route_45_duration_20250327_2020.0" depart="0.00" departLane="791826085_0" departPos="152.03" departSpeed="0.00" departDelay="0.00" arrival="84.00" arrivalLane="485211947#0_0" arrivalPos="8.08" arrivalSpeed="6.13" duration="84.00" routeLength="191.81" waitingTime="52.00" waitingCount="1" stopTime="0.00" timeLoss="68.80" rerouteNo="0" devices="tripinfo_flow_route_45_duration_20250327_2020.0" vType="car" speedFactor="0.83" vaporized=""/>
    <tripinfo id="flow_route_44_duration_20250327_2020.1" depart="2.00" departLane="791826085_0" departPos="19.65" departSpeed="0.00" departDelay="0.24" arrival="88.00" arrivalLane="134193294#0_1" arrivalPos="45.37" arrivalSpeed="11.12" duration="86.00" routeLength="380.09" waitingTime="39.00" waitingCount="1" stopTime="0.00" timeLoss="60.00" rerouteNo="0" devices="tripinfo_flow_route_44_duration_20250327_2020.1" vType="car" speedFactor="0.89" vaporized=""/>
    <tripinfo id="flow_route_45_duration_20250327_2020.1" depart="6.00" departLane="791826085_0" departPos="129.34" departSpeed="0.00" departDelay="2.00" arrival="88.00" arrivalLane="485211947#0_0" arrivalPos="8.56" arrivalSpeed="7.25" duration="82.00" routeLength="214.98" waitingTime="44.00" waitingCount="1" stopTime="0.00" timeLoss="68.47" rerouteNo="0" devices="tripinfo_flow_route_45_duration_20250327_2020.1" vType="car" speedFactor="1.09" vaporized=""/>
    <tripinfo id="flow_route_44_duration_20250327_2020.5" depart="9.00" departLane="791826085_0" departPos="108.05" departSpeed="0.00" departDelay="0.18" arrival="90.00" arrivalLane="134193294#0_1" arrivalPos="5.12" arrivalSpeed="10.01" duration="81.00" routeLength="251.44" waitingTime="37.00" waitingCount="2" stopTime="0.00" timeLoss="63.27" rerouteNo="0" devices="tripinfo_flow_route_44_duration_20250327_2020.5" vType="car" speedFactor="0.88" vaporized=""/>
    <tripinfo id="flow_route_44_duration_20250327_2020.6" depart="12.00" departLane="791826085_0" departPos="186.42" departSpeed="0.00" departDelay="1.42" arrival="90.00" arrivalLane="134193294#0_0" arrivalPos="21.51" arrivalSpeed="10.53" duration="78.00" routeLength="189.46" waitingTime="43.00" waitingCount="1" stopTime="0.00" timeLoss="65.35" rerouteNo="0" devices="tripinfo_flow_route_44_duration_20250327_2020.6" vType="car" speedFactor="0.94" vaporized=""/>
    <tripinfo id="flow_route_44_duration_20250327_2020.0" depart="0.00" departLane="791826085_0" departPos="219.49" departSpeed="0.00" departDelay="0.00" arrival="91.00" arrivalLane="134193294#0_1" arrivalPos="101.20" arrivalSpeed="14.79" duration="91.00" routeLength="236.08" waitingTime="55.00" waitingCount="1" stopTime="0.00" timeLoss="75.97" rerouteNo="0" devices="tripinfo_flow_route_44_duration_20250327_2020.0" vType="car" speedFactor="1.03" vaporized=""/>
    <tripinfo id="flow_route_44_duration_20250327_2020.4" depart="8.00" departLane="791826085_0" departPos="51.89" departSpeed="0.00" departDelay="0.94" arrival="92.00" arrivalLane="134193294#0_1" arrivalPos="51.76" arrivalSpeed="11.70" duration="84.00" routeLength="354.24" waitingTime="36.00" waitingCount="1" stopTime="0.00" timeLoss="62.35" rerouteNo="0" devices="tripinfo_flow_route_44_duration_20250327_2020.4" vType="car" speedFactor="0.99" vaporized=""/>
    <tripinfo id="flow_route_45_duration_20250327_2020.2" depart="8.00" departLane="791826085_0" departPos="311.97" departSpeed="0.00" departDelay="0.00" arrival="92.00" arrivalLane="485211947#0_0" arrivalPos="141.65" arrivalSpeed="15.00" duration="84.00" routeLength="165.44" waitingTime="57.00" waitingCount="1" stopTime="0.00" timeLoss="71.92" rerouteNo="0" devices="tripinfo_flow_route_45_duration_20250327_2020.2" vType="car" speedFactor="0.93" vaporized=""/>
    <tripinfo id="flow_route_46_duration_20250327_2020.6" depart="35.00" departLane="791826085_0" departPos="254.71" departSpeed="0.00" departDelay="17.00" arrival="93.00" arrivalLane="1328664748#0_1" arrivalPos="33.78" arrivalSpeed="11.86" duration="58.00" routeLength="127.86" waitingTime="29.00" waitingCount="1" stopTime="0.00" timeLoss="49.39" rerouteNo="0" devices="tripinfo_flow_route_46_duration_20250327_2020.6" vType="car" speedFactor="1.18" vaporized=""/>
    <tripinfo id="flow_route_44_duration_20250327_2020.2" depart="6.00" departLane="791826085_0" departPos="289.48" departSpeed="0.00" departDelay="2.47" arrival="94.00" arrivalLane="134193294#0_0" arrivalPos="117.27" arrivalSpeed="13.79" duration="88.00" routeLength="182.15" waitingTime="57.00" waitingCount="1" stopTime="0.00" timeLoss="75.09" rerouteNo="0" devices="tripinfo_flow_route_44_duration_20250327_2020.2" vType="car" speedFactor="0.86" vaporized=""/>
    <tripinfo id="flow_route_46_duration_20250327_2020.0" depart="1.00" departLane="791826085_0" departPos="184.68" departSpeed="0.00" departDelay="1.00" arrival="95.00" arrivalLane="1328664748#0_1" arrivalPos="165.37" arrivalSpeed="16.51" duration="94.00" routeLength="329.48" waitingTime="50.00" waitingCount="1" stopTime="0.00" timeLoss="72.51" rerouteNo="0" devices="tripinfo_flow_route_46_duration_20250327_2020.0" vType="car" speedFactor="1.05" vaporized=""/>
    <tripinfo id="flow_route_45_duration_20250327_2020.5" depart="35.00" departLane="791826085_0" departPos="232.28" departSpeed="0.00" departDelay="15.00" arrival="96.00" arrivalLane="485211947#0_0" arrivalPos="33.16" arrivalSpeed="9.26" duration="61.00" routeLength="136.65" waitingTime="30.00" waitingCount="1" stopTime="0.00" timeLoss="52.17" rerouteNo="0" devices="tripinfo_flow_route_45_duration_20250327_2020.5" vType="car" speedFactor="1.01" vaporized=""/>
    <tripinfo id="flow_route_44_duration_20250327_2020.14" depart="41.00" departLane="791826085_0" departPos="279.35" departSpeed="0.00" departDelay="16.30" arrival="96.00" arrivalLane="134193294#0_0" arrivalPos="66.86" arrivalSpeed="14.78" duration="55.00" routeLength="141.88" waitingTime="32.00" waitingCount="1" stopTime="0.00" timeLoss="46.21" rerouteNo="0" devices="tripinfo_flow_route_44_duration_20250327_2020.14" vType="car" speedFactor="1.03" vaporized=""/>
    <tripinfo id="flow_route_44_duration_20250327_2020.3" depart="6.00" departLane="791826085_0" departPos="77.20" departSpeed="0.00" departDelay="0.71" arrival="98.00" arrivalLane="134193294#0_1" arrivalPos="161.08" arrivalSpeed="16.47" duration="92.00" routeLength="438.25" waitingTime="38.00" waitingCount="1" stopTime="0.00" timeLoss="65.33" rerouteNo="0" devices="tripinfo_flow_route_44_duration_20250327_2020.3" vType="car" speedFactor="1.05" vaporized=""/>
    <tripinfo id="flow_route_46_duration_20250327_2020.3" depart="9.00" departLane="791826085_0" departPos="42.19" departSpeed="0.00" departDelay="0.00" arrival="98.00" arrivalLane="1328664748#0_1" arrivalPos="152.42" arrivalSpeed="15.52" duration="89.00" routeLength="459.02" waitingTime="35.00" waitingCount="1" stopTime="0.00" timeLoss="58.57" rerouteNo="0" devices="tripinfo_flow_route_46_duration_20250327_2020.3" vType="car" speedFactor="0.94" vaporized=""/>
    <tripinfo id="flow_route_46_duration_20250327_2020.4" depart="18.00" departLane="791826085_0" departPos="9.08" departSpeed="0.00" departDelay="6.00" arrival="98.00" arrivalLane="1328664748#0_1" arrivalPos="37.37" arrivalSpeed="12.07" duration="80.00" routeLength="377.08" waitingTime="27.00" waitingCount="1" stopTime="0.00" timeLoss="55.20" rerouteNo="0" devices="tripinfo_flow_route_46_duration_20250327_2020.4" vType="car" speedFactor="0.97" vaporized=""/>
    <tripinfo id="flow_route_44_duration_20250327_2020.12" depart="36.00" departLane="791826085_0" departPos="127.41" departSpeed="0.00" departDelay="14.83" arrival="98.00" arrivalLane="134193294#0_2" arrivalPos="14.76" arrivalSpeed="11.74" duration="62.00" routeLength="241.72" waitingTime="23.00" waitingCount="1" stopTime="0.00" timeLoss="47.00" rerouteNo="0" devices="tripinfo_flow_route_44_duration_20250327_2020.12" vType="car" speedFactor="0.99" vaporized=""/>
    <tripinfo id="flow_route_46_duration_20250327_2020.1" depart="3.00" departLane="791826085_0" departPos="105.00" departSpeed="0.00" departDelay="0.00" arrival="99.00" arrivalLane="1328664748#0_1" arrivalPos="194.81" arrivalSpeed="15.25" duration="96.00" routeLength="438.60" waitingTime="44.00" waitingCount="1" stopTime="0.00" timeLoss="66.55" rerouteNo="0" devices="tripinfo_flow_route_46_duration_20250327_2020.1" vType="car" speedFactor="0.94" vaporized=""/>
    <tripinfo id="flow_route_44_duration_20250327_2020.9" depart="30.00" departLane="791826085_0" departPos="138.64" departSpeed="0.00" departDelay="14.12" arrival="100.00" arrivalLane="134193294#0_1" arrivalPos="52.80" arrivalSpeed="14.55" duration="70.00" routeLength="268.53" waitingTime="22.00" waitingCount="1" stopTime="0.00" timeLoss="51.53" rerouteNo="0" devices="tripinfo_flow_route_44_duration_20250327_2020.9" vType="car" speedFactor="0.92" vaporized=""/>
    <tripinfo id="flow_route_44_duration_20250327_2020.8" depart="24.00" departLane="791826085_0" departPos="69.26" departSpeed="0.00" departDelay="9.89" arrival="101.00" arrivalLane="134193294#0_1" arrivalPos="118.64" arrivalSpeed="13.37" duration="77.00" routeLength="403.75" waitingTime="25.00" waitingCount="1" stopTime="0.00" timeLoss="46.82" rerouteNo="0" devices="tripinfo_flow_route_44_duration_20250327_2020.8" vType="car" speedFactor="0.83" vaporized=""/>
    <tripinfo id="flow_route_46_duration_20250327_2020.2" depart="6.00" departLane="791826085_0" departPos="10.57" departSpeed="0.00" departDelay="0.00" arrival="102.00" arrivalLane="1328664748#0_1" arrivalPos="183.40" arrivalSpeed="16.59" duration="96.00" routeLength="521.62" waitingTime="35.00" waitingCount="1" stopTime="0.00" timeLoss="62.93" rerouteNo="0" devices="tripinfo_flow_route_46_duration_20250327_2020.2" vType="car" speedFactor="1.12" vaporized=""/>
    <tripinfo id="flow_route_45_duration_20250327_2020.3" depart="17.00" departLane="791826085_0" departPos="54.92" departSpeed="0.00" departDelay="5.00" arrival="102.00" arrivalLane="485211947#0_0" arrivalPos="41.34" arrivalSpeed="9.94" duration="85.00" routeLength="322.18" waitingTime="25.00" waitingCount="1" stopTime="0.00" timeLoss="64.15" rerouteNo="0" devices="tripinfo_flow_route_45_duration_20250327_2020.3" vType="car" speedFactor="1.01" vaporized=""/>
    <tripinfo id="flow_route_44_duration_20250327_2020.7" depart="23.00" departLane="791826085_0" departPos="58.92" departSpeed="0.00" departDelay="10.65" arrival="102.00" arrivalLane="134193294#0_1" arrivalPos="114.61" arrivalSpeed="14.14" duration="79.00" routeLength="410.06" waitingTime="24.00" waitingCount="1" stopTime="0.00" timeLoss="50.88" rerouteNo="0" devices="tripinfo_flow_route_44_duration_20250327_2020.7" vType="car" speedFactor="0.89" vaporized=""/>
    <tripinfo id="flow_route_44_duration_20250327_2020.11" depart="35.00" departLane="791826085_0" departPos="91.71" departSpeed="0.00" departDelay="15.60" arrival="105.00" arrivalLane="134193294#0_2" arrivalPos="11.49" arrivalSpeed="12.87" duration="70.00" routeLength="274.15" waitingTime="15.00" waitingCount="1" stopTime="0.00" timeLoss="53.12" rerouteNo="0" devices="tripinfo_flow_route_44_duration_20250327_2020.11" vType="car" speedFactor="1.15" vaporized=""/>
    <tripinfo id="flow_route_46_duration_20250327_2020.9" depart="47.00" departLane="791826085_0" departPos="214.80" departSpeed="0.00" departDelay="20.00" arrival="105.00" arrivalLane="1328664748#0_1" arrivalPos="92.82" arrivalSpeed="16.05" duration="58.00" routeLength="226.81" waitingTime="18.00" waitingCount="2" stopTime="0.00" timeLoss="42.99" rerouteNo="0" devices="tripinfo_flow_route_46_duration_20250327_2020.9" vType="car" speedFactor="1.09" vaporized=""/>
    <tripinfo id="flow_route_44_duration_20250327_2020.10" depart="35.00" departLane="791826085_0" departPos="215.84" departSpeed="0.00" departDelay="17.36" arrival="106.00" arrivalLane="134193294#0_0" arrivalPos="110.07" arrivalSpeed="15.39" duration="71.00" routeLength="248.60" waitingTime="29.00" waitingCount="1" stopTime="0.00" timeLoss="54.24" rerouteNo="0" devices="tripinfo_flow_route_44_duration_20250327_2020.10" vType="car" speedFactor="0.93" vaporized=""/>
    <tripinfo id="flow_route_44_duration_20250327_2020.13" depart="37.00" departLane="791826085_0" departPos="50.08" departSpeed="0.00" departDelay="14.07" arrival="106.00" arrivalLane="134193294#0_1" arrivalPos="35.54" arrivalSpeed="14.21" duration="69.00" routeLength="339.83" waitingTime="19.00" waitingCount="1" stopTime="0.00" timeLoss="47.83" rerouteNo="0" devices="tripinfo_flow_route_44_duration_20250327_2020.13" vType="car" speedFactor="1.02" vaporized=""/>
    <tripinfo id="flow_route_46_duration_20250327_2020.5" depart="27.00" departLane="791826085_0" departPos="119.09" departSpeed="0.00" departDelay="12.00" arrival="108.00" arrivalLane="1328664748#0_1" arrivalPos="208.04" arrivalSpeed="14.30" duration="81.00" routeLength="437.74" waitingTime="28.00" waitingCount="1" stopTime="0.00" timeLoss="49.68" rerouteNo="0" devices="tripinfo_flow_route_46_duration_20250327_2020.5" vType="car" speedFactor="0.87" vaporized=""/>
    <tripinfo id="flow_route_44_duration_20250327_2020.16" depart="52.00" departLane="791826085_0" departPos="50.01" departSpeed="0.00" departDelay="23.78" arrival="109.00" arrivalLane="134193294#0_1" arrivalPos="17.96" arrivalSpeed="14.12" duration="57.00" routeLength="322.32" waitingTime="8.00" waitingCount="1" stopTime="0.00" timeLoss="37.49" rerouteNo="0" devices="tripinfo_flow_route_44_duration_20250327_2020.16" vType="car" speedFactor="1.04" vaporized=""/>
    <tripinfo id="flow_route_45_duration_20250327_2020.4" depart="34.00" departLane="791826085_0" departPos="33.11" departSpeed="0.00" departDelay="18.00" arrival="110.00" arrivalLane="485211947#0_0" arrivalPos="91.27" arrivalSpeed="12.16" duration="76.00" routeLength="393.92" waitingTime="18.00" waitingCount="1" stopTime="0.00" timeLoss="49.96" rerouteNo="0" devices="tripinfo_flow_route_45_duration_20250327_2020.4" vType="car" speedFactor="0.95" vaporized=""/>
    <tripinfo id="flow_route_45_duration_20250327_2020.6" depart="39.00" departLane="791826085_0" departPos="90.43" departSpeed="0.00" departDelay="15.00" arrival="110.00" arrivalLane="485211947#0_0" arrivalPos="65.19" arrivalSpeed="11.46" duration="71.00" routeLength="310.52" waitingTime="17.00" waitingCount="1" stopTime="0.00" timeLoss="51.49" rerouteNo="0" devices="tripinfo_flow_route_45_duration_20250327_2020.6" vType="car" speedFactor="1.10" vaporized=""/>
    <tripinfo id="flow_route_44_duration_20250327_2020.17" depart="53.00" departLane="791826085_0" departPos="235.84" departSpeed="0.00" departDelay="23.01" arrival="110.00" arrivalLane="134193294#0_1" arrivalPos="158.66" arrivalSpeed="16.38" duration="57.00" routeLength="277.19" waitingTime="18.00" waitingCount="1" stopTime="0.00" timeLoss="39.49" rerouteNo="0" devices="tripinfo_flow_route_44_duration_20250327_2020.17" vType="car" speedFactor="1.00" vaporized=""/>
    <tripinfo id="flow_route_45_duration_20250327_2020.7" depart="52.00" departLane="791826085_0" departPos="67.67" departSpeed="0.00" departDelay="24.00" arrival="111.00" arrivalLane="485211947#0_0" arrivalPos="4.42" arrivalSpeed="6.55" duration="59.00" routeLength="272.50" waitingTime="8.00" waitingCount="1" stopTime="0.00" timeLoss="41.41" rerouteNo="0" devices="tripinfo_flow_route_45_duration_20250327_2020.7" vType="car" speedFactor="1.04" vaporized=""/>
    <tripinfo id="flow_route_46_duration_20250327_2020.10" depart="55.00" departLane="791826085_0" departPos="257.49" departSpeed="0.00" departDelay="25.00" arrival="111.00" arrivalLane="1328664748#0_1" arrivalPos="109.62" arrivalSpeed="14.63" duration="56.00" routeLength="200.92" waitingTime="25.00" waitingCount="3" stopTime="0.00" timeLoss="40.92" rerouteNo="0" devices="tripinfo_flow_route_46_duration_20250327_2020.10" vType="car" speedFactor="0.90" vaporized=""/>
    <tripinfo id="flow_route_46_duration_20250327_2020.8" depart="39.00" departLane="791826085_0" departPos="123.75" departSpeed="0.00" departDelay="15.00" arrival="112.00" arrivalLane="1328664748#0_1" arrivalPos="64.53" arrivalSpeed="14.32" duration="73.00" routeLength="289.57" waitingTime="15.00" waitingCount="2" stopTime="0.00" timeLoss="52.12" rerouteNo="0" devices="tripinfo_flow_route_46_duration_20250327_2020.8" vType="car" speedFactor="0.90" vaporized=""/>
    <tripinfo id="flow_route_44_duration_20250327_2020.15" depart="47.00" departLane="791826085_0" departPos="0.28" departSpeed="0.00" departDelay="20.54" arrival="112.00" arrivalLane="134193294#0_1" arrivalPos="100.35" arrivalSpeed="15.67" duration="65.00" routeLength="454.44" waitingTime="10.00" waitingCount="1" stopTime="0.00" timeLoss="35.58" rerouteNo="0" devices="tripinfo_flow_route_44_duration_20250327_2020.15" vType="car" speedFactor="0.96" vaporized=""/>
    <tripinfo id="flow_route_44_duration_20250327_2020.18" depart="58.00" departLane="791826085_0" departPos="104.63" departSpeed="0.00" departDelay="26.25" arrival="113.00" arrivalLane="134193294#0_1" arrivalPos="98.40" arrivalSpeed="14.18" duration="55.00" routeLength="348.14" waitingTime="10.00" waitingCount="1" stopTime="0.00" timeLoss="31.03" rerouteNo="0" devices="tripinfo_flow_route_44_duration_20250327_2020.18" vType="car" speedFactor="0.88" vaporized=""/>
    <tripinfo id="flow_route_46_duration_20250327_2020.7" depart="36.00" departLane="791826085_0" departPos="13.89" departSpeed="0.00" departDelay="15.00" arrival="114.00" arrivalLane="1328664748#0_1" arrivalPos="69.83" arrivalSpeed="14.96" duration="78.00" routeLength="404.73" waitingTime="15.00" waitingCount="1" stopTime="0.00" timeLoss="52.32" rerouteNo="0" devices="tripinfo_flow_route_46_duration_20250327_2020.7" vType="car" speedFactor="1.17" vaporized=""/>
    <tripinfo id="flow_route_44_duration_20250327_2020.22" depart="72.00" departLane="791826085_0" departPos="140.33" departSpeed="0.00" departDelay="33.19" arrival="115.00" arrivalLane="134193294#0_1" arrivalPos="73.91" arrivalSpeed="16.19" duration="43.00" routeLength="287.95" waitingTime="0.00" waitingCount="0" stopTime="0.00" timeLoss="24.93" rerouteNo="0" devices="tripinfo_flow_route_44_duration_20250327_2020.22" vType="car" speedFactor="1.02" vaporized=""/>
    <tripinfo id="flow_route_44_duration_20250327_2020.19" depart="63.00" departLane="791826085_0" departPos="185.43" departSpeed="0.00" departDelay="29.48" arrival="116.00" arrivalLane="134193294#0_0" arrivalPos="119.99" arrivalSpeed="16.24" duration="53.00" routeLength="288.92" waitingTime="8.00" waitingCount="1" stopTime="0.00" timeLoss="35.16" rerouteNo="0" devices="tripinfo_flow_route_44_duration_20250327_2020.19" vType="car" speedFactor="1.17" vaporized=""/>
    <tripinfo id="flow_route_46_duration_20250327_2020.12" depart="68.00" departLane="791826085_0" departPos="217.24" departSpeed="0.00" departDelay="32.00" arrival="119.00" arrivalLane="1328664748#0_1" arrivalPos="106.80" arrivalSpeed="14.60" duration="51.00" routeLength="238.35" waitingTime="16.00" waitingCount="1" stopTime="0.00" timeLoss="33.71" rerouteNo="0" devices="tripinfo_flow_route_46_duration_20250327_2020.12" vType="car" speedFactor="0.90" vaporized=""/>
    <tripinfo id="flow_route_38_duration_20250327_2020.2" depart="24.00" departLane="133126030#0_0" departPos="78.42" departSpeed="0.00" departDelay="0.00" arrival="122.00" arrivalLane="134193294#0_0" arrivalPos="13.72" arrivalSpeed="6.69" duration="98.00" routeLength="130.18" waitingTime="70.00" waitingCount="1" stopTime="0.00" timeLoss="89.00" rerouteNo="0" devices="tripinfo_flow_route_38_duration_20250327_2020.2" vType="car" speedFactor="0.97" vaporized=""/>
    <tripinfo id="flow_route_38_duration_20250327_2020.4" depart="48.00" departLane="133126030#0_0" departPos="151.82" departSpeed="0.00" departDelay="0.00" arrival="122.00" arrivalLane="134193294#0_0" arrivalPos="2.00" arrivalSpeed="5.54" duration="74.00" routeLength="45.06" waitingTime="57.00" waitingCount="1" stopTime="0.00" timeLoss="70.42" rerouteNo="0" devices="tripinfo_flow_route_38_duration_20250327_2020.4" vType="car" speedFactor="1.02" vaporized=""/>
    <tripinfo id="flow_route_45_duration_20250327_2020.8" depart="59.00" departLane="791826085_0" departPos="151.92" departSpeed="0.00" departDelay="27.00" arrival="125.00" arrivalLane="485211947#0_0" arrivalPos="180.01" arrivalSpeed="13.75" duration="66.00" routeLength="363.85" waitingTime="8.00" waitingCount="1" stopTime="0.00" timeLoss="38.47" rerouteNo="0" devices="tripinfo_flow_route_45_duration_20250327_2020.8" vType="car" speedFactor="0.85" vaporized=""/>
    <tripinfo id="flow_route_38_duration_20250327_2020.3" depart="36.00" departLane="133126030#0_0" departPos="181.25" departSpeed="0.00" departDelay="0.00" arrival="130.00" arrivalLane="134193294#0_0" arrivalPos="122.36" arrivalSpeed="13.78" duration="94.00" routeLength="135.98" waitingTime="71.00" waitingCount="1" stopTime="0.00" timeLoss="85.05" rerouteNo="0" devices="tripinfo_flow_route_38_duration_20250327_2020.3" vType="car" speedFactor="1.02" vaporized=""/>
    <tripinfo id="flow_route_43_duration_20250327_2020.9" depart="54.00" departLane="1328664744#0_0" departPos="128.58" departSpeed="0.00" departDelay="0.00" arrival="161.00" arrivalLane="134193294#0_3" arrivalPos="62.87" arrivalSpeed="10.42" duration="107.00" routeLength="174.36" waitingTime="73.00" waitingCount="1" stopTime="0.00" timeLoss="95.77" rerouteNo="0" devices="tripinfo_flow_route_43_duration_20250327_2020.9" vType="car" speedFactor="1.09" vaporized=""/>
    <tripinfo id="flow_route_43_duration_20250327_2020.7" depart="42.00" departLane="1328664744#0_0" departPos="3.24" departSpeed="0.00" departDelay="0.00" arrival="170.00" arrivalLane="134193294#0_3" arrivalPos="140.85" arrivalSpeed="15.55" duration="128.00" routeLength="377.68" waitingTime="72.00" waitingCount="1" stopTime="0.00" timeLoss="103.64" rerouteNo="0" devices="tripinfo_flow_route_43_duration_20250327_2020.7" vType="car" speedFactor="1.02" vaporized=""/>
    <tripinfo id="flow_route_45_duration_20250327_2020.9" depart="66.00" departLane="791826085_0" departPos="11.29" departSpeed="0.00" departDelay="30.00" arrival="201.00" arrivalLane="485211947#0_0" arrivalPos="68.86" arrivalSpeed="11.20" duration="135.00" routeLength="393.32" waitingTime="72.00" waitingCount="1" stopTime="0.00" timeLoss="110.19" rerouteNo="0" devices="tripinfo_flow_route_45_duration_20250327_2020.9" vType="car" speedFactor="1.00" vaporized=""/>
    <tripinfo id="flow_route_44_duration_20250327_2020.25" depart="86.00" departLane="791826085_0" departPos="145.77" departSpeed="0.00" departDelay="41.90" arrival="201.00" arrivalLane="134193294#0_1" arrivalPos="28.73" arrivalSpeed="9.73" duration="115.00" routeLength="237.34" waitingTime="71.00" waitingCount="1" stopTime="0.00" timeLoss="98.89" rerouteNo="0" devices="tripinfo_flow_route_44_duration_20250327_2020.25" vType="car" speedFactor="0.91" vaporized=""/>
    <tripinfo id="flow_route_46_duration_20250327_2020.11" depart="62.00" departLane="791826085_0" departPos="71.95" departSpeed="0.00" departDelay="29.00" arrival="202.00" arrivalLane="1328664748#0_1" arrivalPos="91.46" arrivalSpeed="13.01" duration="140.00" routeLength="368.30" waitingTime="79.00" waitingCount="2" stopTime="0.00" timeLoss="112.61" rerouteNo="0" devices="tripinfo_flow_route_46_duration_20250327_2020.11" vType="car" speedFactor="0.85" vaporized=""/>
    <tripinfo id="flow_route_44_duration_20250327_2020.21" depart="70.00" departLane="791826085_0" departPos="2.39" departSpeed="0.00" departDelay="32.96" arrival="202.00" arrivalLane="134193294#0_1" arrivalPos="59.11" arrivalSpeed="11.57" duration="132.00" routeLength="411.08" waitingTime="72.00" waitingCount="1" stopTime="0.00" timeLoss="106.80" rerouteNo="0" devices="tripinfo_flow_route_44_duration_20250327_2020.21" vType="car" speedFactor="1.14" vaporized=""/>