<?xml version="1.0" encoding="UTF-8"?>

<!-- generated on 2025-05-06 21:08:03 by Eclipse SUMO sumo Version 1.20.0
<configuration xmlns:xsi="http://www.w3.org/2001/XMLSchema-instance" xsi:noNamespaceSchemaLocation="http://sumo.dlr.de/xsd/sumoConfiguration.xsd">

    <input>
        <net-file value="osm.net.xml"/>
        <route-files value="xml/route_rl_cluster3839130731_cluster_11644940326_11644940327_11648561426_2.rou.xml"/>
    </input>

    <output>
        <tripinfo-output value="xml/tripinfo_rl_cluster3839130731_cluster_11644940326_11644940327_11648561426_2.xml"/>
    </output>

    <traci_server>
        <remote-port value="34419"/>
    </traci_server>

</configuration>
-->

<tripinfos xmlns:xsi="http://www.w3.org/2001/XMLSchema-instance" xsi:noNamespaceSchemaLocation="http://sumo.dlr.de/xsd/tripinfo_file.xsd">
    <tripinfo id="flow_route_123_duration_20250327_2030.0" depart="0.00" departLane="189240000#0-AddedOnRampEdge_0" departPos="5.69" departSpeed="0.00" departDelay="0.00" arrival="22.00" arrivalLane="1254519229#0_1" arrivalPos="19.69" arrivalSpeed="12.20" duration="22.00" routeLength="159.84" waitingTime="0.00" waitingCount="0" stopTime="0.00" timeLoss="10.57" rerouteNo="0" devices="tripinfo_flow_route_123_duration_20250327_2030.0" vType="car" speedFactor="0.89" vaporized=""/>
    <tripinfo id="flow_route_95_duration_20250327_2030.1" depart="4.00" departLane="1341093416#0_0" departPos="257.48" departSpeed="0.00" departDelay="0.47" arrival="24.00" arrivalLane="1254519225#0.109_0" arrivalPos="32.00" arrivalSpeed="15.14" duration="20.00" routeLength="156.90" waitingTime="0.00" waitingCount="0" stopTime="0.00" timeLoss="9.60" rerouteNo="0" devices="tripinfo_flow_route_95_duration_20250327_2030.1" vType="car" speedFactor="1.09" vaporized=""/>
    <tripinfo id="flow_route_96_duration_20250327_2030.0" depart="0.00" departLane="1341093416#0_0" departPos="184.53" departSpeed="0.00" departDelay="0.00" arrival="28.00" arrivalLane="1254519229#0_1" arrivalPos="3.62" arrivalSpeed="3.00" duration="28.00" routeLength="114.10" waitingTime="6.00" waitingCount="1" stopTime="0.00" timeLoss="19.98" rerouteNo="0" devices="tripinfo_flow_route_96_duration_20250327_2030.0" vType="car" speedFactor="1.01" vaporized=""/>
    <tripinfo id="flow_route_123_duration_20250327_2030.1" depart="12.00" departLane="189240000#0-AddedOnRampEdge_0" departPos="63.08" departSpeed="0.00" departDelay="0.00" arrival="31.00" arrivalLane="1254519229#0_0" arrivalPos="64.59" arrivalSpeed="14.43" duration="19.00" routeLength="143.84" waitingTime="0.00" waitingCount="0" stopTime="0.00" timeLoss="9.47" rerouteNo="0" devices="tripinfo_flow_route_123_duration_20250327_2030.1" vType="car" speedFactor="0.97" vaporized=""/>
    <tripinfo id="flow_route_95_duration_20250327_2030.2" depart="8.00" departLane="1341093416#0_0" departPos="209.62" departSpeed="0.00" departDelay="0.94" arrival="33.00" arrivalLane="1254519225#0.109_0" arrivalPos="33.96" arrivalSpeed="16.04" duration="25.00" routeLength="206.71" waitingTime="0.00" waitingCount="0" stopTime="0.00" timeLoss="11.33" rerouteNo="0" devices="tripinfo_flow_route_95_duration_20250327_2030.2" vType="car" speedFactor="1.12" vaporized=""/>
    <tripinfo id="flow_route_124_duration_20250327_2030.0" depart="0.00" departLane="189240000#0-AddedOnRampEdge_0" departPos="82.66" departSpeed="0.00" departDelay="0.00" arrival="36.00" arrivalLane="1254519225#0.109_3" arrivalPos="34.02" arrivalSpeed="15.06" duration="36.00" routeLength="196.39" waitingTime="4.00" waitingCount="1" stopTime="0.00" timeLoss="21.60" rerouteNo="0" devices="tripinfo_flow_route_124_duration_20250327_2030.0" vType="car" speedFactor="0.94" vaporized=""/>
    <tripinfo id="flow_route_94_duration_20250327_2030.1" depart="10.00" departLane="1341093416#0_0" departPos="112.79" departSpeed="0.00" departDelay="0.00" arrival="36.00" arrivalLane="799091563#0_0" arrivalPos="47.61" arrivalSpeed="15.39" duration="26.00" routeLength="241.17" waitingTime="0.00" waitingCount="0" stopTime="0.00" timeLoss="10.71" rerouteNo="0" devices="tripinfo_flow_route_94_duration_20250327_2030.1" vType="car" speedFactor="0.94" vaporized=""/>
    <tripinfo id="flow_route_94_duration_20250327_2030.0" depart="0.00" departLane="1341093416#0_0" departPos="204.30" departSpeed="0.00" departDelay="0.00" arrival="37.00" arrivalLane="799091563#0_0" arrivalPos="338.33" arrivalSpeed="16.40" duration="37.00" routeLength="440.38" waitingTime="0.00" waitingCount="0" stopTime="0.00" timeLoss="10.27" rerouteNo="0" devices="tripinfo_flow_route_94_duration_20250327_2030.0" vType="car" speedFactor="1.06" vaporized=""/>
    <tripinfo id="flow_route_96_duration_20250327_2030.1" depart="8.00" departLane="1341093416#0_0" departPos="43.63" departSpeed="0.00" departDelay="0.50" arrival="37.00" arrivalLane="1254519229#0_1" arrivalPos="18.84" arrivalSpeed="10.47" duration="29.00" routeLength="270.22" waitingTime="0.00" waitingCount="0" stopTime="0.00" timeLoss="11.40" rerouteNo="0" devices="tripinfo_flow_route_96_duration_20250327_2030.1" vType="car" speedFactor="0.99" vaporized=""/>
    <tripinfo id="flow_route_124_duration_20250327_2030.1" depart="4.00" departLane="189240000#0-AddedOnRampEdge_0" departPos="59.81" departSpeed="0.00" departDelay="1.27" arrival="38.00" arrivalLane="1254519225#0.109_3" arrivalPos="42.65" arrivalSpeed="13.92" duration="34.00" routeLength="227.87" waitingTime="0.00" waitingCount="0" stopTime="0.00" timeLoss="16.44" rerouteNo="0" devices="tripinfo_flow_route_124_duration_20250327_2030.1" vType="car" speedFactor="0.86" vaporized=""/>
    <tripinfo id="flow_route_124_duration_20250327_2030.2" depart="6.00" departLane="189240000#0-AddedOnRampEdge_0" departPos="37.44" departSpeed="0.00" departDelay="0.55" arrival="41.00" arrivalLane="1254519225#0.109_3" arrivalPos="55.38" arrivalSpeed="16.16" duration="35.00" routeLength="262.97" waitingTime="0.00" waitingCount="0" stopTime="0.00" timeLoss="17.70" rerouteNo="0" devices="tripinfo_flow_route_124_duration_20250327_2030.2" vType="car" speedFactor="1.05" vaporized=""/>
    <tripinfo id="flow_route_123_duration_20250327_2030.2" depart="24.00" departLane="189240000#0-AddedOnRampEdge_0" departPos="82.66" departSpeed="0.00" departDelay="0.00" arrival="42.00" arrivalLane="1254519229#0_0" arrivalPos="77.73" arrivalSpeed="14.11" duration="18.00" routeLength="137.40" waitingTime="0.00" waitingCount="0" stopTime="0.00" timeLoss="8.48" rerouteNo="0" devices="tripinfo_flow_route_123_duration_20250327_2030.2" vType="car" speedFactor="0.90" vaporized=""/>
    <tripinfo id="flow_route_111_duration_20250327_2030.0" depart="0.00" departLane="1253188486#8_0" departPos="138.93" departSpeed="0.00" departDelay="0.00" arrival="46.00" arrivalLane="1254519229#0_1" arrivalPos="3.47" arrivalSpeed="7.89" duration="46.00" routeLength="140.76" waitingTime="18.00" waitingCount="1" stopTime="0.00" timeLoss="37.16" rerouteNo="0" devices="tripinfo_flow_route_111_duration_20250327_2030.0" vType="car" speedFactor="0.83" vaporized=""/>
    <tripinfo id="flow_route_111_duration_20250327_2030.1" depart="4.00" departLane="1253188486#8_0" departPos="202.24" departSpeed="0.00" departDelay="0.47" arrival="48.00" arrivalLane="1254519229#0_0" arrivalPos="24.43" arrivalSpeed="8.92" duration="44.00" routeLength="98.42" waitingTime="19.00" waitingCount="1" stopTime="0.00" timeLoss="37.86" rerouteNo="0" devices="tripinfo_flow_route_111_duration_20250327_2030.1" vType="car" speedFactor="1.03" vaporized=""/>
    <tripinfo id="flow_route_95_duration_20250327_2030.4" depart="15.00" departLane="1341093416#0_0" departPos="159.05" departSpeed="0.00" departDelay="0.88" arrival="48.00" arrivalLane="1254519225#0.109_0" arrivalPos="43.15" arrivalSpeed="13.65" duration="33.00" routeLength="266.47" waitingTime="0.00" waitingCount="0" stopTime="0.00" timeLoss="13.40" rerouteNo="0" devices="tripinfo_flow_route_95_duration_20250327_2030.4" vType="car" speedFactor="0.83" vaporized=""/>
    <tripinfo id="flow_route_111_duration_20250327_2030.3" depart="11.00" departLane="1253188486#8_0" departPos="140.24" departSpeed="0.00" departDelay="0.41" arrival="50.00" arrivalLane="1254519229#0_1" arrivalPos="21.01" arrivalSpeed="9.94" duration="39.00" routeLength="156.99" waitingTime="7.00" waitingCount="1" stopTime="0.00" timeLoss="29.16" rerouteNo="0" devices="tripinfo_flow_route_111_duration_20250327_2030.3" vType="car" speedFactor="1.02" vaporized=""/>
    <tripinfo id="flow_route_124_duration_20250327_2030.5" depart="14.00" departLane="189240000#0-AddedOnRampEdge_0" departPos="56.29" departSpeed="0.00" departDelay="0.37" arrival="52.00" arrivalLane="1254519225#0.109_3" arrivalPos="44.64" arrivalSpeed="14.77" duration="38.00" routeLength="233.38" waitingTime="1.00" waitingCount="1" stopTime="0.00" timeLoss="20.35" rerouteNo="0" devices="tripinfo_flow_route_124_duration_20250327_2030.5" vType="car" speedFactor="0.89" vaporized=""/>
    <tripinfo id="flow_route_111_duration_20250327_2030.6" depart="22.00" departLane="1253188486#8_0" departPos="150.91" departSpeed="0.00" departDelay="0.83" arrival="52.00" arrivalLane="1254519229#0_0" arrivalPos="16.90" arrivalSpeed="9.29" duration="30.00" routeLength="142.21" waitingTime="1.00" waitingCount="1" stopTime="0.00" timeLoss="21.13" rerouteNo="0" devices="tripinfo_flow_route_111_duration_20250327_2030.6" vType="car" speedFactor="1.02" vaporized=""/>
    <tripinfo id="flow_route_111_duration_20250327_2030.2" depart="8.00" departLane="1253188486#8_0" departPos="7.32" departSpeed="0.00" departDelay="0.94" arrival="53.00" arrivalLane="1254519229#0_1" arrivalPos="24.01" arrivalSpeed="10.51" duration="45.00" routeLength="292.91" waitingTime="4.00" waitingCount="1" stopTime="0.00" timeLoss="26.94" rerouteNo="0" devices="tripinfo_flow_route_111_duration_20250327_2030.2" vType="car" speedFactor="0.88" vaporized=""/>
    <tripinfo id="flow_route_111_duration_20250327_2030.7" depart="26.00" departLane="1253188486#8_0" departPos="238.34" departSpeed="0.00" departDelay="1.30" arrival="55.00" arrivalLane="1254519229#0_0" arrivalPos="73.59" arrivalSpeed="12.70" duration="29.00" routeLength="111.47" waitingTime="11.00" waitingCount="1" stopTime="0.00" timeLoss="22.07" rerouteNo="0" devices="tripinfo_flow_route_111_duration_20250327_2030.7" vType="car" speedFactor="0.96" vaporized=""/>
    <tripinfo id="flow_route_104_duration_20250327_2030.0" depart="0.00" departLane="189240001_0" departPos="36.52" departSpeed="0.00" departDelay="0.00" arrival="56.00" arrivalLane="1254519225#0.109_0" arrivalPos="30.66" arrivalSpeed="14.66" duration="56.00" routeLength="198.30" waitingTime="24.00" waitingCount="1" stopTime="0.00" timeLoss="43.90" rerouteNo="0" devices="tripinfo_flow_route_104_duration_20250327_2030.0" vType="car" speedFactor="1.08" vaporized=""/>
    <tripinfo id="flow_route_104_duration_20250327_2030.1" depart="9.00" departLane="189240001_0" departPos="25.96" departSpeed="0.00" departDelay="1.50" arrival="57.00" arrivalLane="1254519225#0.109_0" arrivalPos="2.02" arrivalSpeed="14.88" duration="48.00" routeLength="180.22" waitingTime="16.00" waitingCount="1" stopTime="0.00" timeLoss="35.49" rerouteNo="0" devices="tripinfo_flow_route_104_duration_20250327_2030.1" vType="car" speedFactor="0.93" vaporized=""/>
    <tripinfo id="flow_route_111_duration_20250327_2030.4" depart="15.00" departLane="1253188486#8_0" departPos="44.98" departSpeed="0.00" departDelay="0.88" arrival="57.00" arrivalLane="1254519229#0_1" arrivalPos="24.49" arrivalSpeed="11.17" duration="42.00" routeLength="255.73" waitingTime="0.00" waitingCount="0" stopTime="0.00" timeLoss="26.56" rerouteNo="0" devices="tripinfo_flow_route_111_duration_20250327_2030.4" vType="car" speedFactor="0.95" vaporized=""/>
    <tripinfo id="flow_route_111_duration_20250327_2030.10" depart="36.00" departLane="1253188486#8_0" departPos="201.45" departSpeed="0.00" departDelay="0.71" arrival="57.00" arrivalLane="1254519229#0_0" arrivalPos="45.62" arrivalSpeed="12.30" duration="21.00" routeLength="120.39" waitingTime="0.00" waitingCount="0" stopTime="0.00" timeLoss="13.02" rerouteNo="0" devices="tripinfo_flow_route_111_duration_20250327_2030.10" vType="car" speedFactor="1.00" vaporized=""/>
    <tripinfo id="flow_route_111_duration_20250327_2030.9" depart="32.00" departLane="1253188486#8_0" departPos="105.71" departSpeed="0.00" departDelay="0.24" arrival="58.00" arrivalLane="1254519229#0_1" arrivalPos="12.22" arrivalSpeed="10.54" duration="26.00" routeLength="182.73" waitingTime="0.00" waitingCount="0" stopTime="0.00" timeLoss="14.80" rerouteNo="0" devices="tripinfo_flow_route_111_duration_20250327_2030.9" vType="car" speedFactor="1.02" vaporized=""/>
    <tripinfo id="flow_route_111_duration_20250327_2030.5" depart="18.00" departLane="1253188486#8_0" departPos="83.17" departSpeed="0.00" departDelay="0.36" arrival="60.00" arrivalLane="1254519229#0_1" arrivalPos="78.95" arrivalSpeed="14.16" duration="42.00" routeLength="272.00" waitingTime="0.00" waitingCount="0" stopTime="0.00" timeLoss="25.06" rerouteNo="0" devices="tripinfo_flow_route_111_duration_20250327_2030.5" vType="car" speedFactor="1.15" vaporized=""/>
    <tripinfo id="flow_route_111_duration_20250327_2030.8" depart="29.00" departLane="1253188486#8_0" departPos="162.37" departSpeed="0.00" departDelay="0.77" arrival="60.00" arrivalLane="1254519229#0_0" arrivalPos="8.08" arrivalSpeed="9.32" duration="31.00" routeLength="121.93" waitingTime="1.00" waitingCount="1" stopTime="0.00" timeLoss="23.18" rerouteNo="0" devices="tripinfo_flow_route_111_duration_20250327_2030.8" vType="car" speedFactor="1.09" vaporized=""/>
    <tripinfo id="flow_route_104_duration_20250327_2030.3" depart="24.00" departLane="189240001_0" departPos="8.20" departSpeed="0.00" departDelay="1.50" arrival="62.00" arrivalLane="1254519225#0.109_0" arrivalPos="51.50" arrivalSpeed="16.13" duration="38.00" routeLength="247.46" waitingTime="0.00" waitingCount="0" stopTime="0.00" timeLoss="22.72" rerouteNo="0" devices="tripinfo_flow_route_104_duration_20250327_2030.3" vType="car" speedFactor="1.10" vaporized=""/>
    <tripinfo id="flow_route_112_duration_20250327_2030.2" depart="30.00" departLane="1253188486#8_0" departPos="117.77" departSpeed="0.00" departDelay="0.00" arrival="63.00" arrivalLane="799091563#0_0" arrivalPos="47.20" arrivalSpeed="9.37" duration="33.00" routeLength="184.14" waitingTime="0.00" waitingCount="0" stopTime="0.00" timeLoss="19.60" rerouteNo="0" devices="tripinfo_flow_route_112_duration_20250327_2030.2" vType="car" speedFactor="0.85" vaporized=""/>
    <tripinfo id="flow_route_111_duration_20250327_2030.12" depart="43.00" departLane="1253188486#8_0" departPos="229.68" departSpeed="0.00" departDelay="0.65" arrival="64.00" arrivalLane="1254519229#0_0" arrivalPos="79.31" arrivalSpeed="14.03" duration="21.00" routeLength="125.85" waitingTime="1.00" waitingCount="1" stopTime="0.00" timeLoss="12.83" rerouteNo="0" devices="tripinfo_flow_route_111_duration_20250327_2030.12" vType="car" speedFactor="0.91" vaporized=""/>
    <tripinfo id="flow_route_112_duration_20250327_2030.3" depart="45.00" departLane="1253188486#8_0" departPos="177.42" departSpeed="0.00" departDelay="0.00" arrival="67.00" arrivalLane="799091563#0_0" arrivalPos="58.23" arrivalSpeed="11.17" duration="22.00" routeLength="135.52" waitingTime="0.00" waitingCount="0" stopTime="0.00" timeLoss="12.97" rerouteNo="0" devices="tripinfo_flow_route_112_duration_20250327_2030.3" vType="car" speedFactor="1.02" vaporized=""/>
    <tripinfo id="flow_route_111_duration_20250327_2030.11" depart="39.00" departLane="1253188486#8_0" departPos="0.21" departSpeed="0.00" departDelay="0.18" arrival="68.00" arrivalLane="1254519229#0_0" arrivalPos="27.52" arrivalSpeed="16.46" duration="29.00" routeLength="303.53" waitingTime="0.00" waitingCount="0" stopTime="0.00" timeLoss="9.93" rerouteNo="0" devices="tripinfo_flow_route_111_duration_20250327_2030.11" vType="car" speedFactor="1.12" vaporized=""/>
    <tripinfo id="flow_route_104_duration_20250327_2030.6" depart="45.00" departLane="189240001_0" departPos="25.34" departSpeed="0.00" departDelay="0.00" arrival="68.00" arrivalLane="1254519225#0.109_0" arrivalPos="12.95" arrivalSpeed="14.51" duration="23.00" routeLength="191.77" waitingTime="0.00" waitingCount="0" stopTime="0.00" timeLoss="11.28" rerouteNo="0" devices="tripinfo_flow_route_104_duration_20250327_2030.6" vType="car" speedFactor="1.02" vaporized=""/>
    <tripinfo id="flow_route_112_duration_20250327_2030.0" depart="0.00" departLane="1253188486#8_0" departPos="64.90" departSpeed="0.00" departDelay="0.00" arrival="69.00" arrivalLane="799091563#0_0" arrivalPos="282.23" arrivalSpeed="16.18" duration="69.00" routeLength="472.04" waitingTime="10.00" waitingCount="1" stopTime="0.00" timeLoss="39.26" rerouteNo="0" devices="tripinfo_flow_route_112_duration_20250327_2030.0" vType="car" speedFactor="1.05" vaporized=""/>
    <tripinfo id="flow_route_112_duration_20250327_2030.1" depart="16.00" departLane="1253188486#8_0" departPos="68.41" departSpeed="0.00" departDelay="1.00" arrival="69.00" arrivalLane="799091563#0_0" arrivalPos="187.04" arrivalSpeed="16.21" duration="53.00" routeLength="373.34" waitingTime="1.00" waitingCount="1" stopTime="0.00" timeLoss="28.50" rerouteNo="0" devices="tripinfo_flow_route_112_duration_20250327_2030.1" vType="car" speedFactor="1.13" vaporized=""/>
    <tripinfo id="flow_route_104_duration_20250327_2030.4" depart="32.00" departLane="189240001_0" departPos="27.00" departSpeed="0.00" departDelay="2.00" arrival="69.00" arrivalLane="1254519225#0.109_0" arrivalPos="44.44" arrivalSpeed="14.61" duration="37.00" routeLength="221.60" waitingTime="1.00" waitingCount="1" stopTime="0.00" timeLoss="21.26" rerouteNo="0" devices="tripinfo_flow_route_104_duration_20250327_2030.4" vType="car" speedFactor="0.88" vaporized=""/>
    <tripinfo id="flow_route_111_duration_20250327_2030.13" depart="46.00" departLane="1253188486#8_0" departPos="38.67" departSpeed="0.00" departDelay="0.12" arrival="74.00" arrivalLane="1254519229#0_0" arrivalPos="29.16" arrivalSpeed="16.17" duration="28.00" routeLength="266.71" waitingTime="0.00" waitingCount="0" stopTime="0.00" timeLoss="11.12" rerouteNo="0" devices="tripinfo_flow_route_111_duration_20250327_2030.13" vType="car" speedFactor="0.94" vaporized=""/>
    <tripinfo id="flow_route_104_duration_20250327_2030.7" depart="54.00" departLane="189240001_0" departPos="0.57" departSpeed="0.00" departDelay="1.50" arrival="78.00" arrivalLane="1254519225#0.109_0" arrivalPos="2.16" arrivalSpeed="16.29" duration="24.00" routeLength="205.75" waitingTime="0.00" waitingCount="0" stopTime="0.00" timeLoss="11.06" rerouteNo="0" devices="tripinfo_flow_route_104_duration_20250327_2030.7" vType="car" speedFactor="1.02" vaporized=""/>
    <tripinfo id="flow_route_104_duration_20250327_2030.5" depart="39.00" departLane="189240001_0" departPos="26.55" departSpeed="0.00" departDelay="1.50" arrival="79.00" arrivalLane="1254519225#0.109_0" arrivalPos="55.35" arrivalSpeed="15.79" duration="40.00" routeLength="232.96" waitingTime="7.00" waitingCount="1" stopTime="0.00" timeLoss="25.26" rerouteNo="0" devices="tripinfo_flow_route_104_duration_20250327_2030.5" vType="car" speedFactor="0.97" vaporized=""/>
    <tripinfo id="flow_route_123_duration_20250327_2030.3" depart="36.00" departLane="189240000#0-AddedOnRampEdge_0" departPos="89.20" departSpeed="0.00" departDelay="0.00" arrival="83.00" arrivalLane="1254519229#0_0" arrivalPos="8.19" arrivalSpeed="6.84" duration="47.00" routeLength="61.32" waitingTime="27.00" waitingCount="1" stopTime="0.00" timeLoss="42.14" rerouteNo="0" devices="tripinfo_flow_route_123_duration_20250327_2030.3" vType="car" speedFactor="0.90" vaporized=""/>
    <tripinfo id="flow_route_96_duration_20250327_2030.4" depart="32.00" departLane="1341093416#0_0" departPos="247.98" departSpeed="0.00" departDelay="2.00" arrival="84.00" arrivalLane="1254519229#0_1" arrivalPos="22.38" arrivalSpeed="7.98" duration="52.00" routeLength="69.40" waitingTime="32.00" waitingCount="1" stopTime="0.00" timeLoss="46.52" rerouteNo="0" devices="tripinfo_flow_route_96_duration_20250327_2030.4" vType="car" speedFactor="0.90" vaporized=""/>
    <tripinfo id="flow_route_96_duration_20250327_2030.3" depart="25.00" departLane="1341093416#0_0" departPos="116.56" departSpeed="0.00" departDelay="2.50" arrival="89.00" arrivalLane="1254519229#0_1" arrivalPos="40.81" arrivalSpeed="10.39" duration="64.00" routeLength="219.26" waitingTime="27.00" waitingCount="1" stopTime="0.00" timeLoss="49.65" rerouteNo="0" devices="tripinfo_flow_route_96_duration_20250327_2030.3" vType="car" speedFactor="1.18" vaporized=""/>
    <tripinfo id="flow_route_94_duration_20250327_2030.2" depart="23.00" departLane="1341093416#0_0" departPos="160.41" departSpeed="0.00" departDelay="3.00" arrival="91.00" arrivalLane="799091563#0_0" arrivalPos="78.67" arrivalSpeed="12.23" duration="68.00" routeLength="224.61" waitingTime="30.00" waitingCount="1" stopTime="0.00" timeLoss="54.17" rerouteNo="0" devices="tripinfo_flow_route_94_duration_20250327_2030.2" vType="car" speedFactor="1.01" vaporized=""/>
    <tripinfo id="flow_route_96_duration_20250327_2030.2" depart="19.00" departLane="1341093416#0_0" departPos="23.59" departSpeed="0.00" departDelay="4.00" arrival="93.00" arrivalLane="1254519229#0_1" arrivalPos="74.40" arrivalSpeed="12.96" duration="74.00" routeLength="345.83" waitingTime="26.00" waitingCount="1" stopTime="0.00" timeLoss="51.46" rerouteNo="0" devices="tripinfo_flow_route_96_duration_20250327_2030.2" vType="car" speedFactor="0.87" vaporized=""/>
    <tripinfo id="flow_route_94_duration_20250327_2030.5" depart="55.00" departLane="1341093416#0_0" departPos="117.98" departSpeed="0.00" departDelay="5.00" arrival="94.00" arrivalLane="799091563#0_1" arrivalPos="121.83" arrivalSpeed="15.77" duration="39.00" routeLength="310.20" waitingTime="0.00" waitingCount="0" stopTime="0.00" timeLoss="19.99" rerouteNo="0" devices="tripinfo_flow_route_94_duration_20250327_2030.5" vType="car" speedFactor="0.98" vaporized=""/>
    <tripinfo id="flow_route_95_duration_20250327_2030.11" depart="42.00" departLane="1341093416#0_0" departPos="233.42" departSpeed="0.00" departDelay="3.18" arrival="95.00" arrivalLane="1254519225#0.109_0" arrivalPos="10.45" arrivalSpeed="14.04" duration="53.00" routeLength="159.40" waitingTime="24.00" waitingCount="1" stopTime="0.00" timeLoss="41.97" rerouteNo="0" devices="tripinfo_flow_route_95_duration_20250327_2030.11" vType="car" speedFactor="1.08" vaporized=""/>
    <tripinfo id="flow_route_95_duration_20250327_2030.0" depart="0.00" departLane="1341093416#0_0" departPos="1.65" departSpeed="0.00" departDelay="0.00" arrival="96.00" arrivalLane="1254519225#0.109_0" arrivalPos="44.45" arrivalSpeed="15.56" duration="96.00" routeLength="425.17" waitingTime="30.00" waitingCount="1" stopTime="0.00" timeLoss="68.16" rerouteNo="0" devices="tripinfo_flow_route_95_duration_20250327_2030.0" vType="car" speedFactor="0.94" vaporized=""/>
    <tripinfo id="flow_route_96_duration_20250327_2030.6" depart="52.00" departLane="1341093416#0_0" departPos="155.90" departSpeed="0.00" departDelay="7.00" arrival="96.00" arrivalLane="1254519229#0_1" arrivalPos="26.48" arrivalSpeed="7.89" duration="44.00" routeLength="165.59" waitingTime="11.00" waitingCount="1" stopTime="0.00" timeLoss="32.90" rerouteNo="0" devices="tripinfo_flow_route_96_duration_20250327_2030.6" vType="car" speedFactor="1.04" vaporized=""/>
    <tripinfo id="flow_route_105_duration_20250327_2030.0" depart="1.00" departLane="189240001_0" departPos="25.23" departSpeed="0.00" departDelay="1.00" arrival="98.00" arrivalLane="799091563#0_2" arrivalPos="224.02" arrivalSpeed="16.22" duration="97.00" routeLength="308.35" waitingTime="52.00" waitingCount="2" stopTime="0.00" timeLoss="78.32" rerouteNo="0" devices="tripinfo_flow_route_105_duration_20250327_2030.0" vType="car" speedFactor="1.03" vaporized=""/>
    <tripinfo id="flow_route_96_duration_20250327_2030.5" depart="41.00" departLane="1341093416#0_0" departPos="249.28" departSpeed="0.00" departDelay="3.50" arrival="98.00" arrivalLane="1254519229#0_1" arrivalPos="78.05" arrivalSpeed="12.01" duration="57.00" routeLength="123.79" waitingTime="33.00" waitingCount="1" stopTime="0.00" timeLoss="48.44" rerouteNo="0" devices="tripinfo_flow_route_96_duration_20250327_2030.5" vType="car" speedFactor="1.02" vaporized=""/>
    <tripinfo id="flow_route_95_duration_20250327_2030.9" depart="34.00" departLane="1341093416#0_0" departPos="186.68" departSpeed="0.00" departDelay="2.24" arrival="99.00" arrivalLane="1254519225#0.109_0" arrivalPos="52.75" arrivalSpeed="16.51" duration="65.00" routeLength="248.44" waitingTime="23.00" waitingCount="1" stopTime="0.00" timeLoss="49.35" rerouteNo="0" devices="tripinfo_flow_route_95_duration_20250327_2030.9" vType="car" speedFactor="1.17" vaporized=""/>
    <tripinfo id="flow_route_96_duration_20250327_2030.7" depart="58.00" departLane="1341093416#0_0" departPos="63.16" departSpeed="0.00" departDelay="5.50" arrival="100.00" arrivalLane="1254519229#0_1" arrivalPos="45.32" arrivalSpeed="9.52" duration="42.00" routeLength="277.17" waitingTime="0.00" waitingCount="0" stopTime="0.00" timeLoss="24.09" rerouteNo="0" devices="tripinfo_flow_route_96_duration_20250327_2030.7" vType="car" speedFactor="1.00" vaporized=""/>
    <tripinfo id="flow_route_95_duration_20250327_2030.3" depart="12.00" departLane="1341093416#0_0" departPos="24.41" departSpeed="0.00" departDelay="1.41" arrival="102.00" arrivalLane="1254519225#0.109_0" arrivalPos="60.18" arrivalSpeed="16.37" duration="90.00" routeLength="418.14" waitingTime="22.00" waitingCount="1" stopTime="0.00" timeLoss="63.76" rerouteNo="0" devices="tripinfo_flow_route_95_duration_20250327_2030.3" vType="car" speedFactor="1.16" vaporized=""/>
    <tripinfo id="flow_route_124_duration_20250327_2030.7" depart="20.00" departLane="189240000#0-AddedOnRampEdge_0" departPos="68.15" departSpeed="0.00" departDelay="0.91" arrival="102.00" arrivalLane="1254519225#0.109_3" arrivalPos="11.27" arrivalSpeed="14.02" duration="82.00" routeLength="188.15" waitingTime="42.00" waitingCount="2" stopTime="0.00" timeLoss="69.27" rerouteNo="0" devices="tripinfo_flow_route_124_duration_20250327_2030.7" vType="car" speedFactor="1.17" vaporized=""/>
    <tripinfo id="flow_route_95_duration_20250327_2030.5" depart="20.00" departLane="1341093416#0_0" departPos="12.84" departSpeed="0.00" departDelay="2.36" arrival="103.00" arrivalLane="1254519225#0.109_0" arrivalPos="11.17" arrivalSpeed="15.02" duration="83.00" routeLength="380.69" waitingTime="22.00" waitingCount="1" stopTime="0.00" timeLoss="58.77" rerouteNo="0" devices="tripinfo_flow_route_95_duration_20250327_2030.5" vType="car" speedFactor="1.18" vaporized=""/>
    <tripinfo id="flow_route_95_duration_20250327_2030.7" depart="27.00" departLane="1341093416#0_0" departPos="81.25" departSpeed="0.00" departDelay="2.30" arrival="103.00" arrivalLane="1254519225#0.109_0" arrivalPos="39.01" arrivalSpeed="16.55" duration="76.00" routeLength="340.13" waitingTime="23.00" waitingCount="1" stopTime="0.00" timeLoss="54.10" rerouteNo="0" devices="tripinfo_flow_route_95_duration_20250327_2030.7" vType="car" speedFactor="1.03" vaporized=""/>
    <tripinfo id="flow_route_94_duration_20250327_2030.3" depart="31.00" departLane="1341093416#0_0" departPos="107.12" departSpeed="0.00" departDelay="1.00" arrival="103.00" arrivalLane="799091563#0_0" arrivalPos="296.56" arrivalSpeed="16.39" duration="72.00" routeLength="495.80" waitingTime="19.00" waitingCount="1" stopTime="0.00" timeLoss="41.96" rerouteNo="0" devices="tripinfo_flow_route_94_duration_20250327_2030.3" vType="car" speedFactor="1.00" vaporized=""/>
    <tripinfo id="flow_route_124_duration_20250327_2030.9" depart="25.00" departLane="189240000#0-AddedOnRampEdge_0" departPos="82.50" departSpeed="0.00" departDelay="0.46" arrival="105.00" arrivalLane="1254519225#0.109_3" arrivalPos="30.74" arrivalSpeed="15.27" duration="80.00" routeLength="193.27" waitingTime="42.00" waitingCount="3" stopTime="0.00" timeLoss="66.72" rerouteNo="0" devices="tripinfo_flow_route_124_duration_20250327_2030.9" vType="car" speedFactor="1.09" vaporized=""/>
    <tripinfo id="flow_route_124_duration_20250327_2030.4" depart="11.00" departLane="189240000#0-AddedOnRampEdge_0" departPos="22.79" departSpeed="0.00" departDelay="0.09" arrival="106.00" arrivalLane="1254519225#0.109_3" arrivalPos="13.92" arrivalSpeed="14.86" duration="95.00" routeLength="236.16" waitingTime="42.00" waitingCount="4" stopTime="0.00" timeLoss="78.86" rerouteNo="0" devices="tripinfo_flow_route_124_duration_20250327_2030.4" vType="car" speedFactor="1.01" vaporized=""/>
    <tripinfo id="flow_route_95_duration_20250327_2030.8" depart="30.00" departLane="1341093416#0_0" departPos="38.70" departSpeed="0.00" departDelay="1.77" arrival="107.00" arrivalLane="1254519225#0.109_0" arrivalPos="43.64" arrivalSpeed="15.95" duration="77.00" routeLength="387.31" waitingTime="21.00" waitingCount="2" stopTime="0.00" timeLoss="52.39" rerouteNo="0" devices="tripinfo_flow_route_95_duration_20250327_2030.8" vType="car" speedFactor="1.04" vaporized=""/>
    <tripinfo id="flow_route_95_duration_20250327_2030.6" depart="24.00" departLane="1341093416#0_0" departPos="6.54" departSpeed="0.00" departDelay="2.83" arrival="108.00" arrivalLane="1254519225#0.109_0" arrivalPos="18.10" arrivalSpeed="14.71" duration="84.00" routeLength="393.93" waitingTime="21.00" waitingCount="2" stopTime="0.00" timeLoss="58.94" rerouteNo="0" devices="tripinfo_flow_route_95_duration_20250327_2030.6" vType="car" speedFactor="0.99" vaporized=""/>