<?xml version="1.0" encoding="UTF-8"?>

<!-- generated on 2025-05-06 21:08:54 by Eclipse SUMO sumo Version 1.20.0
<configuration xmlns:xsi="http://www.w3.org/2001/XMLSchema-instance" xsi:noNamespaceSchemaLocation="http://sumo.dlr.de/xsd/sumoConfiguration.xsd">

    <input>
        <net-file value="osm.net.xml"/>
        <route-files value="xml/route_rl_J7_7.rou.xml"/>
    </input>

    <output>
        <tripinfo-output value="xml/tripinfo_rl_J7_7.xml"/>
    </output>

    <traci_server>
        <remote-port value="60697"/>
    </traci_server>

</configuration>
-->

<tripinfos xmlns:xsi="http://www.w3.org/2001/XMLSchema-instance" xsi:noNamespaceSchemaLocation="http://sumo.dlr.de/xsd/tripinfo_file.xsd">
    <tripinfo id="flow_route_131_duration_20250327_2020.0" depart="0.00" departLane="714011134#0_0" departPos="6.35" departSpeed="0.00" departDelay="0.00" arrival="26.00" arrivalLane="134194079#0_1" arrivalPos="73.02" arrivalSpeed="14.32" duration="26.00" routeLength="232.63" waitingTime="0.00" waitingCount="0" stopTime="0.00" timeLoss="10.16" rerouteNo="0" devices="tripinfo_flow_route_131_duration_20250327_2020.0" vType="car" speedFactor="0.89" vaporized=""/>
    <tripinfo id="flow_route_127_duration_20250327_2020.3" depart="11.00" departLane="-138000461_0" departPos="202.86" departSpeed="0.00" departDelay="0.41" arrival="30.00" arrivalLane="189240000#0-AddedOnRampEdge_0" arrivalPos="67.56" arrivalSpeed="12.35" duration="19.00" routeLength="123.80" waitingTime="0.00" waitingCount="0" stopTime="0.00" timeLoss="9.40" rerouteNo="0" devices="tripinfo_flow_route_127_duration_20250327_2020.3" vType="car" speedFactor="0.83" vaporized=""/>
    <tripinfo id="flow_route_127_duration_20250327_2020.1" depart="4.00" departLane="-138000461_0" departPos="115.03" departSpeed="0.00" departDelay="0.47" arrival="33.00" arrivalLane="189240000#0-AddedOnRampEdge_0" arrivalPos="77.82" arrivalSpeed="14.04" duration="29.00" routeLength="221.90" waitingTime="0.00" waitingCount="0" stopTime="0.00" timeLoss="14.51" rerouteNo="0" devices="tripinfo_flow_route_127_duration_20250327_2020.1" vType="car" speedFactor="1.12" vaporized=""/>
    <tripinfo id="flow_route_127_duration_20250327_2020.0" depart="0.00" departLane="-138000461_0" departPos="55.90" departSpeed="0.00" departDelay="0.00" arrival="34.00" arrivalLane="189240000#0-AddedOnRampEdge_0" arrivalPos="70.17" arrivalSpeed="12.97" duration="34.00" routeLength="273.38" waitingTime="0.00" waitingCount="0" stopTime="0.00" timeLoss="16.59" rerouteNo="0" devices="tripinfo_flow_route_127_duration_20250327_2020.0" vType="car" speedFactor="1.05" vaporized=""/>
    <tripinfo id="flow_route_132_duration_20250327_2020.0" depart="0.00" departLane="714011134#0_0" departPos="92.28" departSpeed="0.00" departDelay="0.00" arrival="34.00" arrivalLane="189240000#0-AddedOnRampEdge_1" arrivalPos="51.48" arrivalSpeed="15.21" duration="34.00" routeLength="375.34" waitingTime="0.00" waitingCount="0" stopTime="0.00" timeLoss="9.93" rerouteNo="0" devices="tripinfo_flow_route_132_duration_20250327_2020.0" vType="car" speedFactor="0.94" vaporized=""/>
    <tripinfo id="flow_route_121_duration_20250327_2020.0" depart="1.00" departLane="799091563#0_0" departPos="259.58" departSpeed="0.00" departDelay="1.00" arrival="35.00" arrivalLane="134194079#0_0" arrivalPos="144.99" arrivalSpeed="15.11" duration="34.00" routeLength="274.57" waitingTime="0.00" waitingCount="0" stopTime="0.00" timeLoss="16.12" rerouteNo="0" devices="tripinfo_flow_route_121_duration_20250327_2020.0" vType="car" speedFactor="1.08" vaporized=""/>
    <tripinfo id="flow_route_116_duration_20250327_2020.0" depart="0.00" departLane="177211987#1_0" departPos="0.88" departSpeed="0.00" departDelay="0.00" arrival="40.00" arrivalLane="688883939#0_1" arrivalPos="93.94" arrivalSpeed="16.27" duration="40.00" routeLength="448.08" waitingTime="0.00" waitingCount="0" stopTime="0.00" timeLoss="12.42" rerouteNo="0" devices="tripinfo_flow_route_116_duration_20250327_2020.0" vType="car" speedFactor="1.06" vaporized=""/>
    <tripinfo id="flow_route_132_duration_20250327_2020.2" depart="6.00" departLane="714011134#0_0" departPos="80.57" departSpeed="0.00" departDelay="0.00" arrival="40.00" arrivalLane="189240000#0-AddedOnRampEdge_1" arrivalPos="28.49" arrivalSpeed="15.11" duration="34.00" routeLength="364.06" waitingTime="0.00" waitingCount="0" stopTime="0.00" timeLoss="10.22" rerouteNo="0" devices="tripinfo_flow_route_132_duration_20250327_2020.2" vType="car" speedFactor="0.93" vaporized=""/>
    <tripinfo id="flow_route_132_duration_20250327_2020.1" depart="3.00" departLane="714011134#0_0" departPos="32.36" departSpeed="0.00" departDelay="0.00" arrival="42.00" arrivalLane="189240000#0-AddedOnRampEdge_2" arrivalPos="48.43" arrivalSpeed="16.57" duration="39.00" routeLength="432.21" waitingTime="0.00" waitingCount="0" stopTime="0.00" timeLoss="12.77" rerouteNo="0" devices="tripinfo_flow_route_132_duration_20250327_2020.1" vType="car" speedFactor="1.09" vaporized=""/>
    <tripinfo id="flow_route_127_duration_20250327_2020.7" depart="25.00" departLane="-138000461_0" departPos="178.68" departSpeed="0.00" departDelay="0.30" arrival="44.00" arrivalLane="189240000#0-AddedOnRampEdge_0" arrivalPos="4.02" arrivalSpeed="8.03" duration="19.00" routeLength="84.45" waitingTime="0.00" waitingCount="0" stopTime="0.00" timeLoss="12.47" rerouteNo="0" devices="tripinfo_flow_route_127_duration_20250327_2020.7" vType="car" speedFactor="0.88" vaporized=""/>
    <tripinfo id="flow_route_121_duration_20250327_2020.4" depart="19.00" departLane="799091563#0_0" departPos="351.21" departSpeed="0.00" departDelay="1.86" arrival="45.00" arrivalLane="134194079#0_0" arrivalPos="172.59" arrivalSpeed="16.09" duration="26.00" routeLength="210.55" waitingTime="0.00" waitingCount="0" stopTime="0.00" timeLoss="11.57" rerouteNo="0" devices="tripinfo_flow_route_121_duration_20250327_2020.4" vType="car" speedFactor="0.97" vaporized=""/>
    <tripinfo id="flow_route_127_duration_20250327_2020.8" depart="29.00" departLane="-138000461_0" departPos="207.31" departSpeed="0.00" departDelay="0.77" arrival="48.00" arrivalLane="189240000#0-AddedOnRampEdge_0" arrivalPos="77.52" arrivalSpeed="13.46" duration="19.00" routeLength="129.32" waitingTime="0.00" waitingCount="0" stopTime="0.00" timeLoss="10.51" rerouteNo="0" devices="tripinfo_flow_route_127_duration_20250327_2020.8" vType="car" speedFactor="1.10" vaporized=""/>
    <tripinfo id="flow_route_127_duration_20250327_2020.5" depart="19.00" departLane="-138000461_0" departPos="104.12" departSpeed="0.00" departDelay="1.36" arrival="49.00" arrivalLane="189240000#0-AddedOnRampEdge_0" arrivalPos="39.39" arrivalSpeed="12.42" duration="30.00" routeLength="194.38" waitingTime="0.00" waitingCount="0" stopTime="0.00" timeLoss="17.84" rerouteNo="0" devices="tripinfo_flow_route_127_duration_20250327_2020.5" vType="car" speedFactor="1.18" vaporized=""/>
    <tripinfo id="flow_route_132_duration_20250327_2020.3" depart="13.00" departLane="714011134#0_0" departPos="67.62" departSpeed="0.00" departDelay="4.00" arrival="50.00" arrivalLane="189240000#0-AddedOnRampEdge_1" arrivalPos="91.06" arrivalSpeed="16.43" duration="37.00" routeLength="439.58" waitingTime="0.00" waitingCount="0" stopTime="0.00" timeLoss="9.85" rerouteNo="0" devices="tripinfo_flow_route_132_duration_20250327_2020.3" vType="car" speedFactor="1.01" vaporized=""/>
    <tripinfo id="flow_route_127_duration_20250327_2020.4" depart="15.00" departLane="-138000461_0" departPos="38.18" departSpeed="0.00" departDelay="0.88" arrival="52.00" arrivalLane="189240000#0-AddedOnRampEdge_0" arrivalPos="29.63" arrivalSpeed="13.10" duration="37.00" routeLength="250.56" waitingTime="0.00" waitingCount="0" stopTime="0.00" timeLoss="21.19" rerouteNo="0" devices="tripinfo_flow_route_127_duration_20250327_2020.4" vType="car" speedFactor="1.15" vaporized=""/>
    <tripinfo id="flow_route_126_duration_20250327_2020.0" depart="0.00" departLane="-138000461_0" departPos="119.67" departSpeed="0.00" departDelay="0.00" arrival="53.00" arrivalLane="138000492#0_1" arrivalPos="18.35" arrivalSpeed="13.72" duration="53.00" routeLength="582.25" waitingTime="0.00" waitingCount="0" stopTime="0.00" timeLoss="10.35" rerouteNo="0" devices="tripinfo_flow_route_126_duration_20250327_2020.0" vType="car" speedFactor="0.83" vaporized=""/>
    <tripinfo id="flow_route_127_duration_20250327_2020.2" depart="8.00" departLane="-138000461_0" departPos="26.50" departSpeed="0.00" departDelay="0.94" arrival="53.00" arrivalLane="189240000#0-AddedOnRampEdge_0" arrivalPos="64.68" arrivalSpeed="14.25" duration="45.00" routeLength="297.29" waitingTime="0.00" waitingCount="0" stopTime="0.00" timeLoss="26.27" rerouteNo="0" devices="tripinfo_flow_route_127_duration_20250327_2020.2" vType="car" speedFactor="1.16" vaporized=""/>
    <tripinfo id="flow_route_131_duration_20250327_2020.1" depart="31.00" departLane="714011134#0_0" departPos="51.26" departSpeed="0.00" departDelay="1.00" arrival="53.00" arrivalLane="134194079#0_1" arrivalPos="49.42" arrivalSpeed="15.76" duration="22.00" routeLength="164.11" waitingTime="0.00" waitingCount="0" stopTime="0.00" timeLoss="11.50" rerouteNo="0" devices="tripinfo_flow_route_131_duration_20250327_2020.1" vType="car" speedFactor="1.14" vaporized=""/>
    <tripinfo id="flow_route_127_duration_20250327_2020.11" depart="40.00" departLane="-138000461_0" departPos="167.55" departSpeed="0.00" departDelay="1.18" arrival="56.00" arrivalLane="189240000#0-AddedOnRampEdge_0" arrivalPos="7.99" arrivalSpeed="10.51" duration="16.00" routeLength="99.54" waitingTime="0.00" waitingCount="0" stopTime="0.00" timeLoss="9.54" rerouteNo="0" devices="tripinfo_flow_route_127_duration_20250327_2020.11" vType="car" speedFactor="1.06" vaporized=""/>
    <tripinfo id="flow_route_117_duration_20250327_2020.1" depart="4.00" departLane="177211987#1_0" departPos="129.92" departSpeed="0.00" departDelay="0.47" arrival="57.00" arrivalLane="138000492#0_1" arrivalPos="266.59" arrivalSpeed="16.56" duration="53.00" routeLength="636.93" waitingTime="0.00" waitingCount="0" stopTime="0.00" timeLoss="14.30" rerouteNo="0" devices="tripinfo_flow_route_117_duration_20250327_2020.1" vType="car" speedFactor="1.03" vaporized=""/>
    <tripinfo id="flow_route_133_duration_20250327_2020.0" depart="0.00" departLane="714011134#0_0" departPos="33.93" departSpeed="0.00" departDelay="0.00" arrival="59.00" arrivalLane="138000492#0_0" arrivalPos="313.58" arrivalSpeed="14.27" duration="59.00" routeLength="604.48" waitingTime="0.00" waitingCount="0" stopTime="0.00" timeLoss="15.55" rerouteNo="0" devices="tripinfo_flow_route_133_duration_20250327_2020.0" vType="car" speedFactor="0.86" vaporized=""/>
    <tripinfo id="flow_route_132_duration_20250327_2020.8" depart="24.00" departLane="714011134#0_0" departPos="92.95" departSpeed="0.00" departDelay="0.00" arrival="59.00" arrivalLane="189240000#0-AddedOnRampEdge_1" arrivalPos="67.34" arrivalSpeed="16.14" duration="35.00" routeLength="390.53" waitingTime="0.00" waitingCount="0" stopTime="0.00" timeLoss="10.96" rerouteNo="0" devices="tripinfo_flow_route_132_duration_20250327_2020.8" vType="car" speedFactor="1.09" vaporized=""/>
    <tripinfo id="flow_route_132_duration_20250327_2020.6" depart="19.00" departLane="714011134#0_0" departPos="44.80" departSpeed="0.00" departDelay="1.00" arrival="62.00" arrivalLane="189240000#0-AddedOnRampEdge_1" arrivalPos="34.48" arrivalSpeed="15.30" duration="43.00" routeLength="405.81" waitingTime="0.00" waitingCount="0" stopTime="0.00" timeLoss="17.70" rerouteNo="0" devices="tripinfo_flow_route_132_duration_20250327_2020.6" vType="car" speedFactor="1.10" vaporized=""/>
    <tripinfo id="flow_route_132_duration_20250327_2020.7" depart="23.00" departLane="714011134#0_0" departPos="82.31" departSpeed="0.00" departDelay="2.00" arrival="62.00" arrivalLane="189240000#0-AddedOnRampEdge_1" arrivalPos="67.10" arrivalSpeed="14.90" duration="39.00" routeLength="400.93" waitingTime="0.00" waitingCount="0" stopTime="0.00" timeLoss="11.92" rerouteNo="0" devices="tripinfo_flow_route_132_duration_20250327_2020.7" vType="car" speedFactor="0.90" vaporized=""/>
    <tripinfo id="flow_route_132_duration_20250327_2020.5" depart="16.00" departLane="714011134#0_0" departPos="22.38" departSpeed="0.00" departDelay="1.00" arrival="63.00" arrivalLane="189240000#0-AddedOnRampEdge_1" arrivalPos="32.01" arrivalSpeed="16.43" duration="47.00" routeLength="425.76" waitingTime="0.00" waitingCount="0" stopTime="0.00" timeLoss="20.85" rerouteNo="0" devices="tripinfo_flow_route_132_duration_20250327_2020.5" vType="car" speedFactor="1.01" vaporized=""/>
    <tripinfo id="flow_route_117_duration_20250327_2020.0" depart="0.00" departLane="177211987#1_0" departPos="98.51" departSpeed="0.00" departDelay="0.00" arrival="64.00" arrivalLane="138000492#0_1" arrivalPos="299.85" arrivalSpeed="15.18" duration="64.00" routeLength="701.60" waitingTime="0.00" waitingCount="0" stopTime="0.00" timeLoss="18.41" rerouteNo="0" devices="tripinfo_flow_route_117_duration_20250327_2020.0" vType="car" speedFactor="0.94" vaporized=""/>
    <tripinfo id="flow_route_133_duration_20250327_2020.1" depart="17.00" departLane="714011134#0_0" departPos="41.08" departSpeed="0.00" departDelay="2.00" arrival="64.00" arrivalLane="138000492#0_1" arrivalPos="36.20" arrivalSpeed="10.57" duration="47.00" routeLength="319.96" waitingTime="1.00" waitingCount="1" stopTime="0.00" timeLoss="27.26" rerouteNo="0" devices="tripinfo_flow_route_133_duration_20250327_2020.1" vType="car" speedFactor="1.17" vaporized=""/>
    <tripinfo id="flow_route_127_duration_20250327_2020.6" depart="23.00" departLane="-138000461_0" departPos="26.27" departSpeed="0.00" departDelay="1.83" arrival="64.00" arrivalLane="189240000#0-AddedOnRampEdge_0" arrivalPos="27.98" arrivalSpeed="11.83" duration="41.00" routeLength="260.82" waitingTime="0.00" waitingCount="0" stopTime="0.00" timeLoss="24.55" rerouteNo="0" devices="tripinfo_flow_route_127_duration_20250327_2020.6" vType="car" speedFactor="1.04" vaporized=""/>
    <tripinfo id="flow_route_127_duration_20250327_2020.10" depart="39.00" departLane="-138000461_0" departPos="156.61" departSpeed="0.00" departDelay="3.71" arrival="64.00" arrivalLane="189240000#0-AddedOnRampEdge_0" arrivalPos="74.54" arrivalSpeed="14.28" duration="25.00" routeLength="177.04" waitingTime="0.00" waitingCount="0" stopTime="0.00" timeLoss="13.02" rerouteNo="0" devices="tripinfo_flow_route_127_duration_20250327_2020.10" vType="car" speedFactor="0.91" vaporized=""/>
    <tripinfo id="flow_route_132_duration_20250327_2020.4" depart="13.00" departLane="714011134#0_0" departPos="2.93" departSpeed="0.00" departDelay="1.00" arrival="66.00" arrivalLane="189240000#0-AddedOnRampEdge_1" arrivalPos="29.06" arrivalSpeed="14.27" duration="53.00" routeLength="442.26" waitingTime="0.00" waitingCount="0" stopTime="0.00" timeLoss="22.20" rerouteNo="0" devices="tripinfo_flow_route_132_duration_20250327_2020.4" vType="car" speedFactor="0.87" vaporized=""/>
    <tripinfo id="flow_route_127_duration_20250327_2020.9" depart="32.00" departLane="-138000461_0" departPos="97.82" departSpeed="0.00" departDelay="0.24" arrival="66.00" arrivalLane="189240000#0-AddedOnRampEdge_0" arrivalPos="80.37" arrivalSpeed="14.59" duration="34.00" routeLength="241.66" waitingTime="0.00" waitingCount="0" stopTime="0.00" timeLoss="18.61" rerouteNo="0" devices="tripinfo_flow_route_127_duration_20250327_2020.9" vType="car" speedFactor="1.02" vaporized=""/>
    <tripinfo id="flow_route_132_duration_20250327_2020.10" depart="32.00" departLane="714011134#0_0" departPos="51.37" departSpeed="0.00" departDelay="2.00" arrival="67.00" arrivalLane="189240000#0-AddedOnRampEdge_2" arrivalPos="32.65" arrivalSpeed="16.18" duration="35.00" routeLength="397.42" waitingTime="0.00" waitingCount="0" stopTime="0.00" timeLoss="10.82" rerouteNo="0" devices="tripinfo_flow_route_132_duration_20250327_2020.10" vType="car" speedFactor="1.02" vaporized=""/>
    <tripinfo id="flow_route_132_duration_20250327_2020.9" depart="28.00" departLane="714011134#0_0" departPos="10.84" departSpeed="0.00" departDelay="1.00" arrival="72.00" arrivalLane="189240000#0-AddedOnRampEdge_1" arrivalPos="40.68" arrivalSpeed="14.07" duration="44.00" routeLength="445.98" waitingTime="0.00" waitingCount="0" stopTime="0.00" timeLoss="11.87" rerouteNo="0" devices="tripinfo_flow_route_132_duration_20250327_2020.9" vType="car" speedFactor="0.85" vaporized=""/>
    <tripinfo id="flow_route_127_duration_20250327_2020.15" depart="53.00" departLane="-138000461_0" departPos="156.43" departSpeed="0.00" departDelay="0.07" arrival="74.00" arrivalLane="189240000#0-AddedOnRampEdge_0" arrivalPos="33.71" arrivalSpeed="11.35" duration="21.00" routeLength="136.39" waitingTime="0.00" waitingCount="0" stopTime="0.00" timeLoss="11.21" rerouteNo="0" devices="tripinfo_flow_route_127_duration_20250327_2020.15" vType="car" speedFactor="0.91" vaporized=""/>
    <tripinfo id="flow_route_132_duration_20250327_2020.12" depart="41.00" departLane="714011134#0_0" departPos="63.71" departSpeed="0.00" departDelay="5.00" arrival="75.00" arrivalLane="189240000#0-AddedOnRampEdge_1" arrivalPos="10.83" arrivalSpeed="16.12" duration="34.00" routeLength="363.25" waitingTime="0.00" waitingCount="0" stopTime="0.00" timeLoss="11.31" rerouteNo="0" devices="tripinfo_flow_route_132_duration_20250327_2020.12" vType="car" speedFactor="1.04" vaporized=""/>
    <tripinfo id="flow_route_127_duration_20250327_2020.13" depart="46.00" departLane="-138000461_0" departPos="72.47" departSpeed="0.00" departDelay="0.12" arrival="77.00" arrivalLane="189240000#0-AddedOnRampEdge_0" arrivalPos="4.62" arrivalSpeed="9.34" duration="31.00" routeLength="191.26" waitingTime="0.00" waitingCount="0" stopTime="0.00" timeLoss="19.02" rerouteNo="0" devices="tripinfo_flow_route_127_duration_20250327_2020.13" vType="car" speedFactor="1.00" vaporized=""/>
    <tripinfo id="flow_route_127_duration_20250327_2020.16" depart="57.00" departLane="-138000461_0" departPos="146.51" departSpeed="0.00" departDelay="0.54" arrival="79.00" arrivalLane="189240000#0-AddedOnRampEdge_0" arrivalPos="47.80" arrivalSpeed="12.01" duration="22.00" routeLength="160.40" waitingTime="0.00" waitingCount="0" stopTime="0.00" timeLoss="11.62" rerouteNo="0" devices="tripinfo_flow_route_127_duration_20250327_2020.16" vType="car" speedFactor="0.97" vaporized=""/>
    <tripinfo id="flow_route_132_duration_20250327_2020.11" depart="36.00" departLane="714011134#0_0" departPos="24.00" departSpeed="0.00" departDelay="3.00" arrival="81.00" arrivalLane="189240000#0-AddedOnRampEdge_1" arrivalPos="79.65" arrivalSpeed="16.02" duration="45.00" routeLength="471.79" waitingTime="0.00" waitingCount="0" stopTime="0.00" timeLoss="15.49" rerouteNo="0" devices="tripinfo_flow_route_132_duration_20250327_2020.11" vType="car" speedFactor="0.99" vaporized=""/>
    <tripinfo id="flow_route_127_duration_20250327_2020.12" depart="43.00" departLane="-138000461_0" departPos="39.73" departSpeed="0.00" departDelay="0.65" arrival="85.00" arrivalLane="189240000#0-AddedOnRampEdge_0" arrivalPos="85.43" arrivalSpeed="15.48" duration="42.00" routeLength="304.81" waitingTime="0.00" waitingCount="0" stopTime="0.00" timeLoss="22.86" rerouteNo="0" devices="tripinfo_flow_route_127_duration_20250327_2020.12" vType="car" speedFactor="1.09" vaporized=""/>
    <tripinfo id="flow_route_127_duration_20250327_2020.14" depart="50.00" departLane="-138000461_0" departPos="32.46" departSpeed="0.00" departDelay="0.59" arrival="85.00" arrivalLane="189240000#0-AddedOnRampEdge_0" arrivalPos="32.23" arrivalSpeed="11.13" duration="35.00" routeLength="258.88" waitingTime="0.00" waitingCount="0" stopTime="0.00" timeLoss="16.75" rerouteNo="0" devices="tripinfo_flow_route_127_duration_20250327_2020.14" vType="car" speedFactor="0.89" vaporized=""/>
    <tripinfo id="flow_route_132_duration_20250327_2020.19" depart="58.00" departLane="714011134#0_0" departPos="102.70" departSpeed="0.00" departDelay="1.00" arrival="91.00" arrivalLane="189240000#0-AddedOnRampEdge_1" arrivalPos="38.41" arrivalSpeed="15.45" duration="33.00" routeLength="351.85" waitingTime="0.00" waitingCount="0" stopTime="0.00" timeLoss="10.36" rerouteNo="0" devices="tripinfo_flow_route_132_duration_20250327_2020.19" vType="car" speedFactor="0.95" vaporized=""/>
    <tripinfo id="flow_route_122_duration_20250327_2020.2" depart="19.00" departLane="799091563#0_0" departPos="332.46" departSpeed="0.00" departDelay="4.00" arrival="94.00" arrivalLane="688883939#0_2" arrivalPos="104.61" arrivalSpeed="16.48" duration="75.00" routeLength="210.80" waitingTime="44.00" waitingCount="1" stopTime="0.00" timeLoss="61.69" rerouteNo="0" devices="tripinfo_flow_route_122_duration_20250327_2020.2" vType="car" speedFactor="1.18" vaporized=""/>
    <tripinfo id="flow_route_132_duration_20250327_2020.18" depart="55.00" departLane="714011134#0_0" departPos="88.87" departSpeed="0.00" departDelay="1.00" arrival="94.00" arrivalLane="189240000#0-AddedOnRampEdge_2" arrivalPos="75.35" arrivalSpeed="16.32" duration="39.00" routeLength="402.63" waitingTime="0.00" waitingCount="0" stopTime="0.00" timeLoss="14.72" rerouteNo="0" devices="tripinfo_flow_route_132_duration_20250327_2020.18" vType="car" speedFactor="1.12" vaporized=""/>
    <tripinfo id="flow_route_122_duration_20250327_2020.3" depart="26.00" departLane="799091563#0_0" departPos="343.43" departSpeed="0.00" departDelay="3.50" arrival="95.00" arrivalLane="688883939#0_2" arrivalPos="69.78" arrivalSpeed="14.48" duration="69.00" routeLength="164.99" waitingTime="39.00" waitingCount="1" stopTime="0.00" timeLoss="58.59" rerouteNo="0" devices="tripinfo_flow_route_122_duration_20250327_2020.3" vType="car" speedFactor="1.04" vaporized=""/>
    <tripinfo id="flow_route_132_duration_20250327_2020.16" depart="48.00" departLane="714011134#0_0" departPos="53.43" departSpeed="0.00" departDelay="0.00" arrival="95.00" arrivalLane="189240000#0-AddedOnRampEdge_1" arrivalPos="51.42" arrivalSpeed="16.18" duration="47.00" routeLength="414.14" waitingTime="0.00" waitingCount="0" stopTime="0.00" timeLoss="21.56" rerouteNo="0" devices="tripinfo_flow_route_132_duration_20250327_2020.16" vType="car" speedFactor="1.01" vaporized=""/>
    <tripinfo id="flow_route_133_duration_20250327_2020.3" depart="46.00" departLane="714011134#0_0" departPos="96.78" departSpeed="0.00" departDelay="1.00" arrival="97.00" arrivalLane="138000492#0_0" arrivalPos="348.55" arrivalSpeed="15.77" duration="51.00" routeLength="576.61" waitingTime="0.00" waitingCount="0" stopTime="0.00" timeLoss="13.46" rerouteNo="0" devices="tripinfo_flow_route_133_duration_20250327_2020.3" vType="car" speedFactor="0.97" vaporized=""/>
    <tripinfo id="flow_route_132_duration_20250327_2020.15" depart="45.00" departLane="714011134#0_0" departPos="38.52" departSpeed="0.00" departDelay="0.00" arrival="98.00" arrivalLane="189240000#0-AddedOnRampEdge_1" arrivalPos="71.85" arrivalSpeed="16.20" duration="53.00" routeLength="449.46" waitingTime="0.00" waitingCount="0" stopTime="0.00" timeLoss="25.61" rerouteNo="0" devices="tripinfo_flow_route_132_duration_20250327_2020.15" vType="car" speedFactor="1.02" vaporized=""/>
    <tripinfo id="flow_route_122_duration_20250327_2020.1" depart="9.00" departLane="799091563#0_0" departPos="84.73" departSpeed="0.00" departDelay="1.50" arrival="99.00" arrivalLane="688883939#0_2" arrivalPos="3.14" arrivalSpeed="10.35" duration="90.00" routeLength="357.06" waitingTime="38.00" waitingCount="1" stopTime="0.00" timeLoss="66.95" rerouteNo="0" devices="tripinfo_flow_route_122_duration_20250327_2020.1" vType="car" speedFactor="0.94" vaporized=""/>
    <tripinfo id="flow_route_133_duration_20250327_2020.2" depart="36.00" departLane="714011134#0_0" departPos="10.30" departSpeed="0.00" departDelay="6.00" arrival="101.00" arrivalLane="138000492#0_1" arrivalPos="335.81" arrivalSpeed="15.91" duration="65.00" routeLength="650.35" waitingTime="0.00" waitingCount="0" stopTime="0.00" timeLoss="23.49" rerouteNo="0" devices="tripinfo_flow_route_133_duration_20250327_2020.2" vType="car" speedFactor="0.97" vaporized=""/>
    <tripinfo id="flow_route_122_duration_20250327_2020.0" depart="1.00" departLane="799091563#0_0" departPos="17.54" departSpeed="0.00" departDelay="1.00" arrival="102.00" arrivalLane="688883939#0_2" arrivalPos="62.20" arrivalSpeed="13.47" duration="101.00" routeLength="483.30" waitingTime="38.00" waitingCount="1" stopTime="0.00" timeLoss="71.61" rerouteNo="0" devices="tripinfo_flow_route_122_duration_20250327_2020.0" vType="car" speedFactor="1.03" vaporized=""/>
    <tripinfo id="flow_route_120_duration_20250327_2020.0" depart="0.00" departLane="799091563#0_0" departPos="177.01" departSpeed="0.00" departDelay="0.00" arrival="103.00" arrivalLane="138000492#0_1" arrivalPos="19.14" arrivalSpeed="9.87" duration="103.00" routeLength="440.29" waitingTime="50.00" waitingCount="1" stopTime="0.00" timeLoss="76.35" rerouteNo="0" devices="tripinfo_flow_route_120_duration_20250327_2020.0" vType="car" speedFactor="1.01" vaporized=""/>
    <tripinfo id="flow_route_122_duration_20250327_2020.4" depart="32.00" departLane="799091563#0_0" departPos="378.48" departSpeed="0.00" departDelay="2.00" arrival="103.00" arrivalLane="688883939#0_2" arrivalPos="95.24" arrivalSpeed="14.76" duration="71.00" routeLength="155.40" waitingTime="48.00" waitingCount="1" stopTime="0.00" timeLoss="59.74" rerouteNo="0" devices="tripinfo_flow_route_122_duration_20250327_2020.4" vType="car" speedFactor="0.90" vaporized=""/>
    <tripinfo id="flow_route_122_duration_20250327_2020.6" depart="49.00" departLane="799091563#0_0" departPos="267.40" departSpeed="0.00" departDelay="4.00" arrival="104.00" arrivalLane="688883939#0_2" arrivalPos="31.88" arrivalSpeed="12.53" duration="55.00" routeLength="203.12" waitingTime="12.00" waitingCount="1" stopTime="0.00" timeLoss="42.46" rerouteNo="0" devices="tripinfo_flow_route_122_duration_20250327_2020.6" vType="car" speedFactor="1.00" vaporized=""/>
    <tripinfo id="flow_route_121_duration_20250327_2020.13" depart="63.00" departLane="799091563#0_0" departPos="363.64" departSpeed="0.00" departDelay="7.30" arrival="104.00" arrivalLane="134194079#0_0" arrivalPos="191.75" arrivalSpeed="16.36" duration="41.00" routeLength="217.27" waitingTime="14.00" waitingCount="1" stopTime="0.00" timeLoss="26.36" rerouteNo="0" devices="tripinfo_flow_route_121_duration_20250327_2020.13" vType="car" speedFactor="1.10" vaporized=""/>
    <tripinfo id="flow_route_122_duration_20250327_2020.5" depart="38.00" departLane="799091563#0_0" departPos="348.59" departSpeed="0.00" departDelay="0.50" arrival="105.00" arrivalLane="688883939#0_2" arrivalPos="20.09" arrivalSpeed="12.76" duration="67.00" routeLength="110.14" waitingTime="46.00" waitingCount="3" stopTime="0.00" timeLoss="59.87" rerouteNo="0" devices="tripinfo_flow_route_122_duration_20250327_2020.5" vType="car" speedFactor="1.02" vaporized=""/>
    <tripinfo id="flow_route_122_duration_20250327_2020.7" depart="62.00" departLane="799091563#0_0" departPos="6.23" departSpeed="0.00" departDelay="9.50" arrival="105.00" arrivalLane="688883939#0_2" arrivalPos="1.17" arrivalSpeed="12.19" duration="43.00" routeLength="433.58" waitingTime="0.00" waitingCount="0" stopTime="0.00" timeLoss="16.49" rerouteNo="0" devices="tripinfo_flow_route_122_duration_20250327_2020.7" vType="car" speedFactor="1.01" vaporized=""/>
    <tripinfo id="flow_route_121_duration_20250327_2020.6" depart="29.00" departLane="799091563#0_0" departPos="208.56" departSpeed="0.00" departDelay="3.29" arrival="107.00" arrivalLane="134194079#0_0" arrivalPos="45.30" arrivalSpeed="9.64" duration="78.00" routeLength="225.91" waitingTime="30.00" waitingCount="1" stopTime="0.00" timeLoss="60.62" rerouteNo="0" devices="tripinfo_flow_route_121_duration_20250327_2020.6" vType="car" speedFactor="0.85" vaporized=""/>
    <tripinfo id="flow_route_121_duration_20250327_2020.1" depart="5.00" departLane="799091563#0_0" departPos="12.31" departSpeed="0.00" departDelay="0.72" arrival="118.00" arrivalLane="134194079#0_0" arrivalPos="69.84" arrivalSpeed="11.04" duration="113.00" routeLength="446.69" waitingTime="28.00" waitingCount="1" stopTime="0.00" timeLoss="84.20" rerouteNo="0" devices="tripinfo_flow_route_121_duration_20250327_2020.1" vType="car" speedFactor="0.99" vaporized=""/>
    <tripinfo id="flow_route_121_duration_20250327_2020.2" depart="13.00" departLane="799091563#0_0" departPos="69.62" departSpeed="0.00" departDelay="4.43" arrival="118.00" arrivalLane="134194079#0_0" arrivalPos="121.36" arrivalSpeed="13.98" duration="105.00" routeLength="440.89" waitingTime="29.00" waitingCount="1" stopTime="0.00" timeLoss="77.82" rerouteNo="0" devices="tripinfo_flow_route_121_duration_20250327_2020.2" vType="car" speedFactor="1.02" vaporized=""/>
    <tripinfo id="flow_route_120_duration_20250327_2020.9" depart="32.00" departLane="799091563#0_0" departPos="297.71" departSpeed="0.00" departDelay="0.24" arrival="123.00" arrivalLane="138000492#0_1" arrivalPos="48.12" arrivalSpeed="11.24" duration="91.00" routeLength="348.57" waitingTime="38.00" waitingCount="2" stopTime="0.00" timeLoss="69.94" rerouteNo="0" devices="tripinfo_flow_route_120_duration_20250327_2020.9" vType="car" speedFactor="1.12" vaporized=""/>
    <tripinfo id="flow_route_121_duration_20250327_2020.9" depart="42.00" departLane="799091563#0_0" departPos="200.62" departSpeed="0.00" departDelay="3.44" arrival="124.00" arrivalLane="134194079#0_0" arrivalPos="118.99" arrivalSpeed="13.51" duration="82.00" routeLength="307.53" waitingTime="29.00" waitingCount="1" stopTime="0.00" timeLoss="61.14" rerouteNo="0" devices="tripinfo_flow_route_121_duration_20250327_2020.9" vType="car" speedFactor="0.94" vaporized=""/>