<?xml version="1.0" encoding="UTF-8"?>

<!-- generated on 2025-05-06 21:08:13 by Eclipse SUMO sumo Version 1.20.0
<configuration xmlns:xsi="http://www.w3.org/2001/XMLSchema-instance" xsi:noNamespaceSchemaLocation="http://sumo.dlr.de/xsd/sumoConfiguration.xsd">

    <input>
        <net-file value="osm.net.xml"/>
        <route-files value="xml/route_rl_cluster_11648745684_256036885_3839031483_3.rou.xml"/>
    </input>

    <output>
        <tripinfo-output value="xml/tripinfo_rl_cluster_11648745684_256036885_3839031483_3.xml"/>
    </output>

    <traci_server>
        <remote-port value="56141"/>
    </traci_server>

</configuration>
-->

<tripinfos xmlns:xsi="http://www.w3.org/2001/XMLSchema-instance" xsi:noNamespaceSchemaLocation="http://sumo.dlr.de/xsd/tripinfo_file.xsd">
    <tripinfo id="flow_route_72_duration_20250327_2300.0" depart="0.00" departLane="1369578052#0_0" departPos="161.40" departSpeed="0.00" departDelay="0.00" arrival="15.00" arrivalLane="133342692#0_0" arrivalPos="42.43" arrivalSpeed="11.65" duration="15.00" routeLength="81.12" waitingTime="0.00" waitingCount="0" stopTime="0.00" timeLoss="8.08" rerouteNo="0" devices="tripinfo_flow_route_72_duration_20250327_2300.0" vType="car" speedFactor="0.89" vaporized=""/>
    <tripinfo id="flow_route_68_duration_20250327_2300.0" depart="0.00" departLane="1253209803#0_0" departPos="143.52" departSpeed="0.00" departDelay="0.00" arrival="29.00" arrivalLane="-138002002#2_1" arrivalPos="90.53" arrivalSpeed="16.38" duration="29.00" routeLength="298.33" waitingTime="0.00" waitingCount="0" stopTime="0.00" timeLoss="10.88" rerouteNo="0" devices="tripinfo_flow_route_68_duration_20250327_2300.0" vType="car" speedFactor="1.08" vaporized=""/>
    <tripinfo id="flow_route_70_duration_20250327_2300.0" depart="0.00" departLane="1253209803#0_0" departPos="83.97" departSpeed="0.00" departDelay="0.00" arrival="32.00" arrivalLane="133342692#0_2" arrivalPos="7.48" arrivalSpeed="9.70" duration="32.00" routeLength="271.18" waitingTime="0.00" waitingCount="0" stopTime="0.00" timeLoss="13.58" rerouteNo="0" devices="tripinfo_flow_route_70_duration_20250327_2300.0" vType="car" speedFactor="0.83" vaporized=""/>
    <tripinfo id="flow_route_69_duration_20250327_2300.0" depart="0.00" departLane="1253209803#0_0" departPos="179.76" departSpeed="0.00" departDelay="0.00" arrival="34.00" arrivalLane="380585337#0_0" arrivalPos="14.31" arrivalSpeed="16.34" duration="34.00" routeLength="299.43" waitingTime="0.00" waitingCount="0" stopTime="0.00" timeLoss="14.50" rerouteNo="0" devices="tripinfo_flow_route_69_duration_20250327_2300.0" vType="car" speedFactor="1.03" vaporized=""/>
    <tripinfo id="flow_route_71_duration_20250327_2300.0" depart="0.00" departLane="1369578052#0_0" departPos="11.11" departSpeed="0.00" departDelay="0.00" arrival="38.00" arrivalLane="138002016#0_0" arrivalPos="236.62" arrivalSpeed="16.58" duration="38.00" routeLength="443.19" waitingTime="0.00" waitingCount="0" stopTime="0.00" timeLoss="10.85" rerouteNo="0" devices="tripinfo_flow_route_71_duration_20250327_2300.0" vType="car" speedFactor="1.05" vaporized=""/>
    <tripinfo id="flow_route_68_duration_20250327_2300.1" depart="15.00" departLane="1253209803#0_0" departPos="41.07" departSpeed="0.00" departDelay="0.00" arrival="53.00" arrivalLane="-138002002#2_0" arrivalPos="126.20" arrivalSpeed="16.06" duration="38.00" routeLength="436.45" waitingTime="0.00" waitingCount="0" stopTime="0.00" timeLoss="11.01" rerouteNo="0" devices="tripinfo_flow_route_68_duration_20250327_2300.1" vType="car" speedFactor="0.99" vaporized=""/>
    <tripinfo id="flow_route_68_duration_20250327_2300.2" depart="30.00" departLane="1253209803#0_0" departPos="58.21" departSpeed="0.00" departDelay="0.00" arrival="66.00" arrivalLane="-138002002#2_0" arrivalPos="106.85" arrivalSpeed="14.44" duration="36.00" routeLength="399.97" waitingTime="0.00" waitingCount="0" stopTime="0.00" timeLoss="10.33" rerouteNo="0" devices="tripinfo_flow_route_68_duration_20250327_2300.2" vType="car" speedFactor="0.89" vaporized=""/>
    <tripinfo id="flow_route_68_duration_20250327_2300.3" depart="45.00" departLane="1253209803#0_0" departPos="92.07" departSpeed="0.00" departDelay="0.00" arrival="80.00" arrivalLane="-138002002#2_0" arrivalPos="132.98" arrivalSpeed="16.51" duration="35.00" routeLength="392.22" waitingTime="0.00" waitingCount="0" stopTime="0.00" timeLoss="10.41" rerouteNo="0" devices="tripinfo_flow_route_68_duration_20250327_2300.3" vType="car" speedFactor="1.15" vaporized=""/>
    <tripinfo id="flow_route_65_duration_20250327_2300.0" depart="8.00" departLane="133131666#1_0" departPos="5.26" departSpeed="0.00" departDelay="8.00" arrival="83.00" arrivalLane="138002016#0_2" arrivalPos="14.48" arrivalSpeed="7.81" duration="75.00" routeLength="193.68" waitingTime="41.00" waitingCount="1" stopTime="0.00" timeLoss="62.34" rerouteNo="0" devices="tripinfo_flow_route_65_duration_20250327_2300.0" vType="car" speedFactor="1.01" vaporized=""/>
    <tripinfo id="flow_route_63_duration_20250327_2300.1" depart="20.00" departLane="133131666#1_0" departPos="12.69" departSpeed="0.00" departDelay="0.00" arrival="86.00" arrivalLane="133342692#0_1" arrivalPos="38.26" arrivalSpeed="10.14" duration="66.00" routeLength="209.29" waitingTime="32.00" waitingCount="1" stopTime="0.00" timeLoss="52.16" rerouteNo="0" devices="tripinfo_flow_route_63_duration_20250327_2300.1" vType="car" speedFactor="0.94" vaporized=""/>
    <tripinfo id="flow_route_64_duration_20250327_2300.2" depart="25.00" departLane="133131666#1_0" departPos="15.35" departSpeed="0.00" departDelay="1.00" arrival="88.00" arrivalLane="-138002002#2_0" arrivalPos="16.40" arrivalSpeed="8.81" duration="63.00" routeLength="166.60" waitingTime="31.00" waitingCount="1" stopTime="0.00" timeLoss="51.61" rerouteNo="0" devices="tripinfo_flow_route_64_duration_20250327_2300.2" vType="car" speedFactor="1.16" vaporized=""/>
    <tripinfo id="flow_route_63_duration_20250327_2300.2" depart="40.00" departLane="133131666#1_0" departPos="12.59" departSpeed="0.00" departDelay="0.00" arrival="89.00" arrivalLane="133342692#0_1" arrivalPos="58.12" arrivalSpeed="11.59" duration="49.00" routeLength="229.25" waitingTime="13.00" waitingCount="1" stopTime="0.00" timeLoss="35.12" rerouteNo="0" devices="tripinfo_flow_route_63_duration_20250327_2300.2" vType="car" speedFactor="1.13" vaporized=""/>
    <tripinfo id="flow_route_63_duration_20250327_2300.0" depart="0.00" departLane="133131666#1_0" departPos="14.94" departSpeed="0.00" departDelay="0.00" arrival="94.00" arrivalLane="133342692#0_0" arrivalPos="152.76" arrivalSpeed="16.49" duration="94.00" routeLength="321.54" waitingTime="52.00" waitingCount="1" stopTime="0.00" timeLoss="74.09" rerouteNo="0" devices="tripinfo_flow_route_63_duration_20250327_2300.0" vType="car" speedFactor="1.06" vaporized=""/>
    <tripinfo id="flow_route_64_duration_20250327_2300.0" depart="2.00" departLane="133131666#1_0" departPos="6.82" departSpeed="0.00" departDelay="2.00" arrival="94.00" arrivalLane="-138002002#2_0" arrivalPos="131.25" arrivalSpeed="14.95" duration="92.00" routeLength="289.98" waitingTime="51.00" waitingCount="1" stopTime="0.00" timeLoss="71.50" rerouteNo="0" devices="tripinfo_flow_route_64_duration_20250327_2300.0" vType="car" speedFactor="0.94" vaporized=""/>
    <tripinfo id="flow_route_64_duration_20250327_2300.1" depart="12.00" departLane="133131666#1_0" departPos="21.24" departSpeed="0.00" departDelay="0.00" arrival="96.00" arrivalLane="-138002002#2_0" arrivalPos="140.83" arrivalSpeed="15.44" duration="84.00" routeLength="285.14" waitingTime="42.00" waitingCount="1" stopTime="0.00" timeLoss="66.20" rerouteNo="0" devices="tripinfo_flow_route_64_duration_20250327_2300.1" vType="car" speedFactor="1.05" vaporized=""/>
    <tripinfo id="flow_route_65_duration_20250327_2300.1" depart="31.00" departLane="133131666#1_0" departPos="3.37" departSpeed="0.00" departDelay="1.00" arrival="96.00" arrivalLane="138002016#0_2" arrivalPos="156.81" arrivalSpeed="15.83" duration="65.00" routeLength="337.90" waitingTime="20.00" waitingCount="1" stopTime="0.00" timeLoss="42.87" rerouteNo="0" devices="tripinfo_flow_route_65_duration_20250327_2300.1" vType="car" speedFactor="0.97" vaporized=""/>
    <tripinfo id="flow_route_64_duration_20250327_2300.4" depart="48.00" departLane="133131666#1_0" departPos="13.66" departSpeed="0.00" departDelay="0.00" arrival="103.00" arrivalLane="-138002002#2_0" arrivalPos="125.02" arrivalSpeed="15.07" duration="55.00" routeLength="276.91" waitingTime="9.00" waitingCount="1" stopTime="0.00" timeLoss="36.71" rerouteNo="0" devices="tripinfo_flow_route_64_duration_20250327_2300.4" vType="car" speedFactor="1.17" vaporized=""/>
    <tripinfo id="flow_route_64_duration_20250327_2300.3" depart="36.00" departLane="133131666#1_0" departPos="22.03" departSpeed="0.00" departDelay="0.00" arrival="104.00" arrivalLane="-138002002#2_0" arrivalPos="170.97" arrivalSpeed="15.01" duration="68.00" routeLength="314.49" waitingTime="22.00" waitingCount="1" stopTime="0.00" timeLoss="45.80" rerouteNo="0" devices="tripinfo_flow_route_64_duration_20250327_2300.3" vType="car" speedFactor="0.92" vaporized=""/>
    <tripinfo id="flow_route_75_duration_20250327_2300.0" depart="0.00" departLane="380593307#0_0" departPos="8.02" departSpeed="0.00" departDelay="0.00" arrival="118.00" arrivalLane="-138002002#2_1" arrivalPos="1.11" arrivalSpeed="6.44" duration="118.00" routeLength="196.85" waitingTime="86.00" waitingCount="1" stopTime="0.00" timeLoss="105.49" rerouteNo="0" devices="tripinfo_flow_route_75_duration_20250327_2300.0" vType="car" speedFactor="1.09" vaporized=""/>
    <tripinfo id="flow_route_74_duration_20250327_2300.1" depart="9.00" departLane="380593307#0_0" departPos="52.39" departSpeed="0.00" departDelay="0.43" arrival="121.00" arrivalLane="138002016#0_0" arrivalPos="10.32" arrivalSpeed="6.99" duration="112.00" routeLength="140.62" waitingTime="79.00" waitingCount="1" stopTime="0.00" timeLoss="102.46" rerouteNo="0" devices="tripinfo_flow_route_74_duration_20250327_2300.1" vType="car" speedFactor="1.03" vaporized=""/>
    <tripinfo id="flow_route_75_duration_20250327_2300.1" depart="12.00" departLane="380593307#0_0" departPos="5.18" departSpeed="0.00" departDelay="0.00" arrival="123.00" arrivalLane="-138002002#2_1" arrivalPos="29.31" arrivalSpeed="9.81" duration="111.00" routeLength="227.89" waitingTime="75.00" waitingCount="1" stopTime="0.00" timeLoss="96.74" rerouteNo="0" devices="tripinfo_flow_route_75_duration_20250327_2300.1" vType="car" speedFactor="1.12" vaporized=""/>
    <tripinfo id="flow_route_75_duration_20250327_2300.3" depart="36.00" departLane="380593307#0_0" departPos="54.49" departSpeed="0.00" departDelay="0.00" arrival="127.00" arrivalLane="-138002002#2_1" arrivalPos="12.34" arrivalSpeed="9.67" duration="91.00" routeLength="161.61" waitingTime="60.00" waitingCount="1" stopTime="0.00" timeLoss="79.56" rerouteNo="0" devices="tripinfo_flow_route_75_duration_20250327_2300.3" vType="car" speedFactor="0.95" vaporized=""/>
    <tripinfo id="flow_route_73_duration_20250327_2300.0" depart="0.00" departLane="380593307#0_0" departPos="55.90" departSpeed="0.00" departDelay="0.00" arrival="131.00" arrivalLane="380585337#0_0" arrivalPos="13.23" arrivalSpeed="15.30" duration="131.00" routeLength="294.01" waitingTime="91.00" waitingCount="1" stopTime="0.00" timeLoss="111.39" rerouteNo="0" devices="tripinfo_flow_route_73_duration_20250327_2300.0" vType="car" speedFactor="0.94" vaporized=""/>
    <tripinfo id="flow_route_73_duration_20250327_2300.1" depart="21.00" departLane="380593307#0_0" departPos="140.92" departSpeed="0.00" departDelay="1.00" arrival="132.00" arrivalLane="380585337#0_0" arrivalPos="4.07" arrivalSpeed="15.38" duration="111.00" routeLength="199.84" waitingTime="80.00" waitingCount="1" stopTime="0.00" timeLoss="97.38" rerouteNo="0" devices="tripinfo_flow_route_73_duration_20250327_2300.1" vType="car" speedFactor="0.94" vaporized=""/>
    <tripinfo id="flow_route_73_duration_20250327_2300.2" depart="41.00" departLane="380593307#0_0" departPos="31.36" departSpeed="0.00" departDelay="1.00" arrival="132.00" arrivalLane="380585337#0_1" arrivalPos="2.09" arrivalSpeed="15.29" duration="91.00" routeLength="307.40" waitingTime="47.00" waitingCount="1" stopTime="0.00" timeLoss="70.25" rerouteNo="0" devices="tripinfo_flow_route_73_duration_20250327_2300.2" vType="car" speedFactor="0.93" vaporized=""/>
    <tripinfo id="flow_route_75_duration_20250327_2300.2" depart="24.00" departLane="380593307#0_0" departPos="103.51" departSpeed="0.00" departDelay="0.00" arrival="133.00" arrivalLane="-138002002#2_1" arrivalPos="123.08" arrivalSpeed="15.56" duration="109.00" routeLength="223.32" waitingTime="75.00" waitingCount="1" stopTime="0.00" timeLoss="94.68" rerouteNo="0" devices="tripinfo_flow_route_75_duration_20250327_2300.2" vType="car" speedFactor="1.02" vaporized=""/>
    <tripinfo id="flow_route_74_duration_20250327_2300.5" depart="43.00" departLane="380593307#0_0" departPos="13.89" departSpeed="0.00" departDelay="0.15" arrival="134.00" arrivalLane="138002016#0_0" arrivalPos="14.91" arrivalSpeed="7.70" duration="91.00" routeLength="183.71" waitingTime="53.00" waitingCount="1" stopTime="0.00" timeLoss="79.46" rerouteNo="0" devices="tripinfo_flow_route_74_duration_20250327_2300.5" vType="car" speedFactor="1.18" vaporized=""/>
    <tripinfo id="flow_route_74_duration_20250327_2300.0" depart="0.00" departLane="380593307#0_0" departPos="118.68" departSpeed="0.00" departDelay="0.00" arrival="135.00" arrivalLane="138002016#0_0" arrivalPos="237.21" arrivalSpeed="13.87" duration="135.00" routeLength="301.22" waitingTime="95.00" waitingCount="1" stopTime="0.00" timeLoss="112.95" rerouteNo="0" devices="tripinfo_flow_route_74_duration_20250327_2300.0" vType="car" speedFactor="0.86" vaporized=""/>
    <tripinfo id="flow_route_75_duration_20250327_2300.4" depart="48.00" departLane="380593307#0_0" departPos="67.66" departSpeed="0.00" departDelay="0.00" arrival="135.00" arrivalLane="-138002002#2_1" arrivalPos="77.96" arrivalSpeed="14.40" duration="87.00" routeLength="214.06" waitingTime="51.00" waitingCount="1" stopTime="0.00" timeLoss="72.91" rerouteNo="0" devices="tripinfo_flow_route_75_duration_20250327_2300.4" vType="car" speedFactor="0.99" vaporized=""/>
    <tripinfo id="flow_route_74_duration_20250327_2300.2" depart="19.00" departLane="380593307#0_0" departPos="45.85" departSpeed="0.00" departDelay="1.86" arrival="136.00" arrivalLane="138002016#0_0" arrivalPos="130.95" arrivalSpeed="14.37" duration="117.00" routeLength="267.80" waitingTime="74.00" waitingCount="1" stopTime="0.00" timeLoss="97.00" rerouteNo="0" devices="tripinfo_flow_route_74_duration_20250327_2300.2" vType="car" speedFactor="0.88" vaporized=""/>
    <tripinfo id="flow_route_74_duration_20250327_2300.4" depart="36.00" departLane="380593307#0_0" departPos="31.07" departSpeed="0.00" departDelay="1.72" arrival="137.00" arrivalLane="138002016#0_0" arrivalPos="88.77" arrivalSpeed="12.68" duration="101.00" routeLength="240.39" waitingTime="60.00" waitingCount="1" stopTime="0.00" timeLoss="83.28" rerouteNo="0" devices="tripinfo_flow_route_74_duration_20250327_2300.4" vType="car" speedFactor="0.87" vaporized=""/>
    <tripinfo id="flow_route_74_duration_20250327_2300.6" depart="53.00" departLane="380593307#0_0" departPos="101.56" departSpeed="0.00" departDelay="1.57" arrival="145.00" arrivalLane="138002016#0_0" arrivalPos="163.26" arrivalSpeed="16.09" duration="92.00" routeLength="244.38" waitingTime="54.00" waitingCount="1" stopTime="0.00" timeLoss="76.37" rerouteNo="0" devices="tripinfo_flow_route_74_duration_20250327_2300.6" vType="car" speedFactor="1.02" vaporized=""/>
    <tripinfo id="flow_route_74_duration_20250327_2300.3" depart="27.00" departLane="380593307#0_0" departPos="53.43" departSpeed="0.00" departDelay="1.29" arrival="148.00" arrivalLane="138002016#0_0" arrivalPos="297.67" arrivalSpeed="16.32" duration="121.00" routeLength="426.93" waitingTime="69.00" waitingCount="1" stopTime="0.00" timeLoss="94.16" rerouteNo="0" devices="tripinfo_flow_route_74_duration_20250327_2300.3" vType="car" speedFactor="1.01" vaporized=""/>
    <tripinfo id="flow_route_72_duration_20250327_2300.1" depart="15.00" departLane="1369578052#0_0" departPos="23.11" departSpeed="0.00" departDelay="0.00" arrival="159.00" arrivalLane="133342692#0_0" arrivalPos="56.80" arrivalSpeed="10.75" duration="144.00" routeLength="233.77" waitingTime="109.00" waitingCount="1" stopTime="0.00" timeLoss="127.99" rerouteNo="0" devices="tripinfo_flow_route_72_duration_20250327_2300.1" vType="car" speedFactor="0.93" vaporized=""/>
    <tripinfo id="flow_route_72_duration_20250327_2300.2" depart="31.00" departLane="1369578052#0_0" departPos="5.13" departSpeed="0.00" departDelay="1.00" arrival="159.00" arrivalLane="133342692#0_0" arrivalPos="28.87" arrivalSpeed="9.38" duration="128.00" routeLength="223.82" waitingTime="91.00" waitingCount="1" stopTime="0.00" timeLoss="110.21" rerouteNo="0" devices="tripinfo_flow_route_72_duration_20250327_2300.2" vType="car" speedFactor="0.83" vaporized=""/>
    <tripinfo id="flow_route_72_duration_20250327_2300.3" depart="45.00" departLane="1369578052#0_0" departPos="39.15" departSpeed="0.00" departDelay="0.00" arrival="165.00" arrivalLane="133342692#0_0" arrivalPos="60.32" arrivalSpeed="11.78" duration="120.00" routeLength="221.26" waitingTime="83.00" waitingCount="1" stopTime="0.00" timeLoss="105.55" rerouteNo="0" devices="tripinfo_flow_route_72_duration_20250327_2300.3" vType="car" speedFactor="1.01" vaporized=""/>
</tripinfos>
