<?xml version="1.0" encoding="UTF-8"?>

<!-- generated on 2025-05-06 21:08:05 by Eclipse SUMO sumo Version 1.20.0
<configuration xmlns:xsi="http://www.w3.org/2001/XMLSchema-instance" xsi:noNamespaceSchemaLocation="http://sumo.dlr.de/xsd/sumoConfiguration.xsd">

    <input>
        <net-file value="osm.net.xml"/>
        <route-files value="xml/route_static_cluster_356722183_3828703848_2.rou.xml"/>
    </input>

    <output>
        <tripinfo-output value="xml/tripinfo_static_cluster_356722183_3828703848_2.xml"/>
    </output>

    <traci_server>
        <remote-port value="53403"/>
    </traci_server>

</configuration>
-->

<tripinfos xmlns:xsi="http://www.w3.org/2001/XMLSchema-instance" xsi:noNamespaceSchemaLocation="http://sumo.dlr.de/xsd/tripinfo_file.xsd">
    <tripinfo id="flow_route_18_duration_20250327_2120.0" depart="0.00" departLane="133126040#0_0" departPos="80.59" departSpeed="0.00" departDelay="0.00" arrival="13.00" arrivalLane="1318893695#0_0" arrivalPos="9.11" arrivalSpeed="10.23" duration="13.00" routeLength="59.37" waitingTime="0.00" waitingCount="0" stopTime="0.00" timeLoss="8.87" rerouteNo="0" devices="tripinfo_flow_route_18_duration_20250327_2120.0" vType="car" speedFactor="1.01" vaporized=""/>
    <tripinfo id="flow_route_0_duration_20250327_2120.1" depart="9.00" departLane="1318793176#1_0" departPos="1.34" departSpeed="0.00" departDelay="5.25" arrival="29.00" arrivalLane="133126031#0_0" arrivalPos="15.36" arrivalSpeed="11.39" duration="20.00" routeLength="134.44" waitingTime="0.00" waitingCount="0" stopTime="0.00" timeLoss="10.00" rerouteNo="0" devices="tripinfo_flow_route_0_duration_20250327_2120.1" vType="car" speedFactor="0.89" vaporized=""/>
    <tripinfo id="flow_route_19_duration_20250327_2120.0" depart="0.00" departLane="133126040#0_0" departPos="0.65" departSpeed="0.00" departDelay="0.00" arrival="32.00" arrivalLane="133126031#0_1" arrivalPos="163.43" arrivalSpeed="16.46" duration="32.00" routeLength="291.65" waitingTime="0.00" waitingCount="0" stopTime="0.00" timeLoss="13.32" rerouteNo="0" devices="tripinfo_flow_route_19_duration_20250327_2120.0" vType="car" speedFactor="1.08" vaporized=""/>
    <tripinfo id="flow_route_0_duration_20250327_2120.0" depart="0.00" departLane="1318793176#1_0" departPos="2.64" departSpeed="0.00" departDelay="0.00" arrival="36.00" arrivalLane="133126031#0_0" arrivalPos="296.30" arrivalSpeed="16.19" duration="36.00" routeLength="414.08" waitingTime="0.00" waitingCount="0" stopTime="0.00" timeLoss="10.40" rerouteNo="0" devices="tripinfo_flow_route_0_duration_20250327_2120.0" vType="car" speedFactor="1.06" vaporized=""/>
    <tripinfo id="flow_route_0_duration_20250327_2120.2" depart="14.00" departLane="1318793176#1_0" departPos="3.29" departSpeed="0.00" departDelay="6.50" arrival="36.00" arrivalLane="133126031#0_0" arrivalPos="52.91" arrivalSpeed="15.85" duration="22.00" routeLength="170.04" waitingTime="0.00" waitingCount="0" stopTime="0.00" timeLoss="10.47" rerouteNo="0" devices="tripinfo_flow_route_0_duration_20250327_2120.2" vType="car" speedFactor="1.09" vaporized=""/>
    <tripinfo id="flow_route_19_duration_20250327_2120.1" depart="6.00" departLane="133126040#0_0" departPos="3.51" departSpeed="0.00" departDelay="0.55" arrival="38.00" arrivalLane="133126031#0_1" arrivalPos="131.88" arrivalSpeed="15.19" duration="32.00" routeLength="257.25" waitingTime="0.00" waitingCount="0" stopTime="0.00" timeLoss="14.11" rerouteNo="0" devices="tripinfo_flow_route_19_duration_20250327_2120.1" vType="car" speedFactor="0.86" vaporized=""/>
    <tripinfo id="flow_route_19_duration_20250327_2120.2" depart="11.00" departLane="133126040#0_0" departPos="9.63" departSpeed="0.00" departDelay="0.09" arrival="40.00" arrivalLane="133126031#0_1" arrivalPos="55.85" arrivalSpeed="12.09" duration="29.00" routeLength="175.09" waitingTime="0.00" waitingCount="0" stopTime="0.00" timeLoss="17.07" rerouteNo="0" devices="tripinfo_flow_route_19_duration_20250327_2120.2" vType="car" speedFactor="1.12" vaporized=""/>
    <tripinfo id="flow_route_19_duration_20250327_2120.3" depart="17.00" departLane="133126040#0_0" departPos="36.67" departSpeed="0.00" departDelay="0.64" arrival="41.00" arrivalLane="133126031#0_1" arrivalPos="22.27" arrivalSpeed="9.80" duration="24.00" routeLength="114.47" waitingTime="0.00" waitingCount="0" stopTime="0.00" timeLoss="15.62" rerouteNo="0" devices="tripinfo_flow_route_19_duration_20250327_2120.3" vType="car" speedFactor="1.02" vaporized=""/>
    <tripinfo id="flow_route_19_duration_20250327_2120.4" depart="22.00" departLane="133126040#0_0" departPos="89.29" departSpeed="0.00" departDelay="0.18" arrival="44.00" arrivalLane="133126031#0_1" arrivalPos="140.74" arrivalSpeed="16.45" duration="22.00" routeLength="180.32" waitingTime="0.00" waitingCount="0" stopTime="0.00" timeLoss="9.01" rerouteNo="0" devices="tripinfo_flow_route_19_duration_20250327_2120.4" vType="car" speedFactor="0.89" vaporized=""/>
    <tripinfo id="flow_route_0_duration_20250327_2120.3" depart="18.00" departLane="1318793176#1_0" departPos="2.21" departSpeed="0.00" departDelay="6.75" arrival="51.00" arrivalLane="133126031#0_0" arrivalPos="222.19" arrivalSpeed="16.32" duration="33.00" routeLength="340.39" waitingTime="0.00" waitingCount="0" stopTime="0.00" timeLoss="10.65" rerouteNo="0" devices="tripinfo_flow_route_0_duration_20250327_2120.3" vType="car" speedFactor="0.93" vaporized=""/>
    <tripinfo id="flow_route_48_duration_20250327_2120.0" depart="2.00" departLane="380351865#0_0" departPos="1.03" departSpeed="0.00" departDelay="2.00" arrival="53.00" arrivalLane="133126031#0_0" arrivalPos="14.50" arrivalSpeed="8.56" duration="51.00" routeLength="180.64" waitingTime="17.00" waitingCount="1" stopTime="0.00" timeLoss="32.87" rerouteNo="0" devices="tripinfo_flow_route_48_duration_20250327_2120.0" vType="car" speedFactor="0.83" vaporized=""/>
    <tripinfo id="flow_route_0_duration_20250327_2120.5" depart="33.00" departLane="1318793176#1_0" departPos="1.64" departSpeed="0.00" departDelay="14.25" arrival="55.00" arrivalLane="133126031#0_0" arrivalPos="15.58" arrivalSpeed="8.67" duration="22.00" routeLength="134.36" waitingTime="0.00" waitingCount="0" stopTime="0.00" timeLoss="12.99" rerouteNo="0" devices="tripinfo_flow_route_0_duration_20250327_2120.5" vType="car" speedFactor="0.97" vaporized=""/>
    <tripinfo id="flow_route_47_duration_20250327_2120.0" depart="0.00" departLane="380351865#0_0" departPos="11.49" departSpeed="0.00" departDelay="0.00" arrival="56.00" arrivalLane="1318793173#0_1" arrivalPos="63.76" arrivalSpeed="11.11" duration="56.00" routeLength="213.71" waitingTime="22.00" waitingCount="1" stopTime="0.00" timeLoss="39.58" rerouteNo="0" devices="tripinfo_flow_route_47_duration_20250327_2120.0" vType="car" speedFactor="1.03" vaporized=""/>
    <tripinfo id="flow_route_0_duration_20250327_2120.4" depart="24.00" departLane="1318793176#1_0" departPos="3.23" departSpeed="0.00" departDelay="9.00" arrival="56.00" arrivalLane="133126031#0_0" arrivalPos="192.90" arrivalSpeed="16.32" duration="32.00" routeLength="310.09" waitingTime="0.00" waitingCount="0" stopTime="0.00" timeLoss="11.33" rerouteNo="0" devices="tripinfo_flow_route_0_duration_20250327_2120.4" vType="car" speedFactor="0.88" vaporized=""/>
    <tripinfo id="flow_route_48_duration_20250327_2120.2" depart="17.00" departLane="380351865#0_0" departPos="3.06" departSpeed="0.00" departDelay="9.94" arrival="57.00" arrivalLane="133126031#0_1" arrivalPos="9.92" arrivalSpeed="9.83" duration="40.00" routeLength="174.03" waitingTime="7.00" waitingCount="1" stopTime="0.00" timeLoss="25.64" rerouteNo="0" devices="tripinfo_flow_route_48_duration_20250327_2120.2" vType="car" speedFactor="1.05" vaporized=""/>
    <tripinfo id="flow_route_47_duration_20250327_2120.1" depart="15.00" departLane="380351865#0_0" departPos="2.59" departSpeed="0.00" departDelay="7.50" arrival="62.00" arrivalLane="1318793173#0_1" arrivalPos="103.38" arrivalSpeed="13.80" duration="47.00" routeLength="262.23" waitingTime="7.00" waitingCount="1" stopTime="0.00" timeLoss="27.19" rerouteNo="0" devices="tripinfo_flow_route_47_duration_20250327_2120.1" vType="car" speedFactor="1.03" vaporized=""/>
    <tripinfo id="flow_route_48_duration_20250327_2120.5" depart="33.00" departLane="380351865#0_0" departPos="14.43" departSpeed="0.00" departDelay="15.36" arrival="62.00" arrivalLane="133126031#0_0" arrivalPos="28.61" arrivalSpeed="11.31" duration="29.00" routeLength="181.34" waitingTime="0.00" waitingCount="0" stopTime="0.00" timeLoss="14.54" rerouteNo="0" devices="tripinfo_flow_route_48_duration_20250327_2120.5" vType="car" speedFactor="1.01" vaporized=""/>
    <tripinfo id="flow_route_49_duration_20250327_2120.0" depart="9.00" departLane="380351865#0_0" departPos="2.21" departSpeed="0.00" departDelay="9.00" arrival="63.00" arrivalLane="1318893695#0_0" arrivalPos="148.83" arrivalSpeed="15.24" duration="54.00" routeLength="290.50" waitingTime="13.00" waitingCount="1" stopTime="0.00" timeLoss="32.02" rerouteNo="0" devices="tripinfo_flow_route_49_duration_20250327_2120.0" vType="car" speedFactor="1.05" vaporized=""/>
    <tripinfo id="flow_route_48_duration_20250327_2120.4" depart="32.00" departLane="380351865#0_0" departPos="0.73" departSpeed="0.00" departDelay="17.88" arrival="65.00" arrivalLane="133126031#0_1" arrivalPos="60.98" arrivalSpeed="13.45" duration="33.00" routeLength="227.42" waitingTime="0.00" waitingCount="0" stopTime="0.00" timeLoss="16.42" rerouteNo="0" devices="tripinfo_flow_route_48_duration_20250327_2120.4" vType="car" speedFactor="1.16" vaporized=""/>
    <tripinfo id="flow_route_47_duration_20250327_2120.2" depart="28.00" departLane="380351865#0_0" departPos="7.02" departSpeed="0.00" departDelay="13.00" arrival="66.00" arrivalLane="1318793173#0_1" arrivalPos="103.20" arrivalSpeed="15.50" duration="38.00" routeLength="257.62" waitingTime="0.00" waitingCount="0" stopTime="0.00" timeLoss="16.51" rerouteNo="0" devices="tripinfo_flow_route_47_duration_20250327_2120.2" vType="car" speedFactor="0.94" vaporized=""/>
    <tripinfo id="flow_route_48_duration_20250327_2120.1" depart="15.00" departLane="380351865#0_0" departPos="10.95" departSpeed="0.00" departDelay="11.47" arrival="68.00" arrivalLane="133126031#0_0" arrivalPos="170.59" arrivalSpeed="16.57" duration="53.00" routeLength="326.80" waitingTime="9.00" waitingCount="1" stopTime="0.00" timeLoss="28.60" rerouteNo="0" devices="tripinfo_flow_route_48_duration_20250327_2120.1" vType="car" speedFactor="0.94" vaporized=""/>
    <tripinfo id="flow_route_48_duration_20250327_2120.3" depart="23.00" departLane="380351865#0_0" departPos="6.23" departSpeed="0.00" departDelay="12.41" arrival="71.00" arrivalLane="133126031#0_0" arrivalPos="190.09" arrivalSpeed="16.43" duration="48.00" routeLength="351.02" waitingTime="3.00" waitingCount="1" stopTime="0.00" timeLoss="22.69" rerouteNo="0" devices="tripinfo_flow_route_48_duration_20250327_2120.3" vType="car" speedFactor="0.99" vaporized=""/>
    <tripinfo id="flow_route_1_duration_20250327_2120.1" depart="29.00" departLane="1318793176#1_0" departPos="4.98" departSpeed="0.00" departDelay="14.00" arrival="73.00" arrivalLane="1318793173#0_2" arrivalPos="18.20" arrivalSpeed="7.63" duration="44.00" routeLength="137.12" waitingTime="16.00" waitingCount="1" stopTime="0.00" timeLoss="35.15" rerouteNo="0" devices="tripinfo_flow_route_1_duration_20250327_2120.1" vType="car" speedFactor="0.94" vaporized=""/>
    <tripinfo id="flow_route_1_duration_20250327_2120.0" depart="4.00" departLane="1318793176#1_0" departPos="3.28" departSpeed="0.00" departDelay="4.00" arrival="78.00" arrivalLane="1318793173#0_1" arrivalPos="77.00" arrivalSpeed="12.85" duration="74.00" routeLength="197.62" waitingTime="40.00" waitingCount="1" stopTime="0.00" timeLoss="61.11" rerouteNo="0" devices="tripinfo_flow_route_1_duration_20250327_2120.0" vType="car" speedFactor="0.94" vaporized=""/>
    <tripinfo id="flow_route_0_duration_20250327_2120.11" depart="60.00" departLane="1318793176#1_0" departPos="6.19" departSpeed="0.00" departDelay="18.75" arrival="78.00" arrivalLane="133126031#0_0" arrivalPos="3.88" arrivalSpeed="11.98" duration="18.00" routeLength="118.11" waitingTime="0.00" waitingCount="0" stopTime="0.00" timeLoss="10.07" rerouteNo="0" devices="tripinfo_flow_route_0_duration_20250327_2120.11" vType="car" speedFactor="1.09" vaporized=""/>
    <tripinfo id="flow_route_0_duration_20250327_2120.8" depart="45.00" departLane="1318793176#1_0" departPos="2.22" departSpeed="0.00" departDelay="15.00" arrival="80.00" arrivalLane="133126031#0_0" arrivalPos="93.52" arrivalSpeed="14.11" duration="35.00" routeLength="211.72" waitingTime="0.00" waitingCount="0" stopTime="0.00" timeLoss="21.22" rerouteNo="0" devices="tripinfo_flow_route_0_duration_20250327_2120.8" vType="car" speedFactor="1.15" vaporized=""/>
    <tripinfo id="flow_route_1_duration_20250327_2120.2" depart="49.00" departLane="1318793176#1_0" departPos="1.22" departSpeed="0.00" departDelay="19.00" arrival="81.00" arrivalLane="1318793173#0_1" arrivalPos="76.97" arrivalSpeed="12.94" duration="32.00" routeLength="199.64" waitingTime="0.00" waitingCount="0" stopTime="0.00" timeLoss="19.20" rerouteNo="0" devices="tripinfo_flow_route_1_duration_20250327_2120.2" vType="car" speedFactor="1.01" vaporized=""/>
    <tripinfo id="flow_route_0_duration_20250327_2120.7" depart="44.00" departLane="1318793176#1_0" departPos="10.65" departSpeed="0.00" departDelay="17.75" arrival="82.00" arrivalLane="133126031#0_0" arrivalPos="151.57" arrivalSpeed="16.21" duration="38.00" routeLength="261.34" waitingTime="0.00" waitingCount="0" stopTime="0.00" timeLoss="21.29" rerouteNo="0" devices="tripinfo_flow_route_0_duration_20250327_2120.7" vType="car" speedFactor="1.13" vaporized=""/>
    <tripinfo id="flow_route_48_duration_20250327_2120.6" depart="40.00" departLane="380351865#0_0" departPos="13.62" departSpeed="0.00" departDelay="18.83" arrival="83.00" arrivalLane="133126031#0_1" arrivalPos="204.56" arrivalSpeed="16.54" duration="43.00" routeLength="358.11" waitingTime="0.00" waitingCount="0" stopTime="0.00" timeLoss="14.29" rerouteNo="0" devices="tripinfo_flow_route_48_duration_20250327_2120.6" vType="car" speedFactor="0.83" vaporized=""/>
    <tripinfo id="flow_route_0_duration_20250327_2120.6" depart="38.00" departLane="1318793176#1_0" departPos="0.16" departSpeed="0.00" departDelay="15.50" arrival="83.00" arrivalLane="133126031#0_0" arrivalPos="194.55" arrivalSpeed="16.38" duration="45.00" routeLength="314.81" waitingTime="3.00" waitingCount="1" stopTime="0.00" timeLoss="24.02" rerouteNo="0" devices="tripinfo_flow_route_0_duration_20250327_2120.6" vType="car" speedFactor="0.87" vaporized=""/>
    <tripinfo id="flow_route_0_duration_20250327_2120.9" depart="53.00" departLane="1318793176#1_0" departPos="8.47" departSpeed="0.00" departDelay="19.25" arrival="85.00" arrivalLane="133126031#0_0" arrivalPos="143.28" arrivalSpeed="16.25" duration="32.00" routeLength="255.23" waitingTime="0.00" waitingCount="0" stopTime="0.00" timeLoss="15.42" rerouteNo="0" devices="tripinfo_flow_route_0_duration_20250327_2120.9" vType="car" speedFactor="0.97" vaporized=""/>
    <tripinfo id="flow_route_0_duration_20250327_2120.10" depart="54.00" departLane="1318793176#1_0" departPos="0.37" departSpeed="0.00" departDelay="16.50" arrival="94.00" arrivalLane="133126031#0_0" arrivalPos="273.06" arrivalSpeed="16.35" duration="40.00" routeLength="393.11" waitingTime="0.00" waitingCount="0" stopTime="0.00" timeLoss="15.84" rerouteNo="0" devices="tripinfo_flow_route_0_duration_20250327_2120.10" vType="car" speedFactor="1.10" vaporized=""/>
    <tripinfo id="flow_route_0_duration_20250327_2120.13" depart="74.00" departLane="1318793176#1_0" departPos="8.51" departSpeed="0.00" departDelay="25.25" arrival="96.00" arrivalLane="133126031#0_0" arrivalPos="43.06" arrivalSpeed="12.55" duration="22.00" routeLength="154.98" waitingTime="0.00" waitingCount="0" stopTime="0.00" timeLoss="10.24" rerouteNo="0" devices="tripinfo_flow_route_0_duration_20250327_2120.13" vType="car" speedFactor="0.85" vaporized=""/>
    <tripinfo id="flow_route_0_duration_20250327_2120.12" depart="63.00" departLane="1318793176#1_0" departPos="2.47" departSpeed="0.00" departDelay="18.00" arrival="98.00" arrivalLane="133126031#0_0" arrivalPos="260.73" arrivalSpeed="16.20" duration="35.00" routeLength="378.68" waitingTime="0.00" waitingCount="0" stopTime="0.00" timeLoss="11.62" rerouteNo="0" devices="tripinfo_flow_route_0_duration_20250327_2120.12" vType="car" speedFactor="1.09" vaporized=""/>
    <tripinfo id="flow_route_0_duration_20250327_2120.15" depart="80.00" departLane="1318793176#1_0" departPos="0.12" departSpeed="0.00" departDelay="23.75" arrival="100.00" arrivalLane="133126031#0_0" arrivalPos="28.29" arrivalSpeed="11.95" duration="20.00" routeLength="148.59" waitingTime="0.00" waitingCount="0" stopTime="0.00" timeLoss="9.54" rerouteNo="0" devices="tripinfo_flow_route_0_duration_20250327_2120.15" vType="car" speedFactor="0.90" vaporized=""/>
    <tripinfo id="flow_route_19_duration_20250327_2120.5" depart="28.00" departLane="133126040#0_0" departPos="75.66" departSpeed="0.00" departDelay="0.73" arrival="104.00" arrivalLane="133126031#0_1" arrivalPos="323.07" arrivalSpeed="16.14" duration="76.00" routeLength="376.28" waitingTime="29.00" waitingCount="2" stopTime="0.00" timeLoss="51.20" rerouteNo="0" devices="tripinfo_flow_route_19_duration_20250327_2120.5" vType="car" speedFactor="0.93" vaporized=""/>
    <tripinfo id="flow_route_19_duration_20250327_2120.9" depart="50.00" departLane="133126040#0_0" departPos="27.09" departSpeed="0.00" departDelay="0.91" arrival="105.00" arrivalLane="133126031#0_1" arrivalPos="75.15" arrivalSpeed="12.30" duration="55.00" routeLength="176.92" waitingTime="9.00" waitingCount="3" stopTime="0.00" timeLoss="40.94" rerouteNo="0" devices="tripinfo_flow_route_19_duration_20250327_2120.9" vType="car" speedFactor="0.85" vaporized=""/>
    <tripinfo id="flow_route_19_duration_20250327_2120.8" depart="44.00" departLane="133126040#0_0" departPos="101.26" departSpeed="0.00" departDelay="0.37" arrival="111.00" arrivalLane="133126031#0_1" arrivalPos="272.47" arrivalSpeed="16.52" duration="67.00" routeLength="300.09" waitingTime="32.00" waitingCount="3" stopTime="0.00" timeLoss="47.39" rerouteNo="0" devices="tripinfo_flow_route_19_duration_20250327_2120.8" vType="car" speedFactor="1.04" vaporized=""/>
    <tripinfo id="flow_route_19_duration_20250327_2120.6" depart="33.00" departLane="133126040#0_0" departPos="71.74" departSpeed="0.00" departDelay="0.28" arrival="113.00" arrivalLane="133126031#0_0" arrivalPos="325.30" arrivalSpeed="16.56" duration="80.00" routeLength="382.43" waitingTime="28.00" waitingCount="3" stopTime="0.00" timeLoss="54.78" rerouteNo="0" devices="tripinfo_flow_route_19_duration_20250327_2120.6" vType="car" speedFactor="1.02" vaporized=""/>
    <tripinfo id="flow_route_19_duration_20250327_2120.10" depart="55.00" departLane="133126040#0_0" departPos="49.29" departSpeed="0.00" departDelay="0.46" arrival="113.00" arrivalLane="133126031#0_1" arrivalPos="246.44" arrivalSpeed="16.30" duration="58.00" routeLength="326.03" waitingTime="8.00" waitingCount="2" stopTime="0.00" timeLoss="36.94" rerouteNo="0" devices="tripinfo_flow_route_19_duration_20250327_2120.10" vType="car" speedFactor="1.00" vaporized=""/>
    <tripinfo id="flow_route_19_duration_20250327_2120.7" depart="39.00" departLane="133126040#0_0" departPos="37.41" departSpeed="0.00" departDelay="0.82" arrival="114.00" arrivalLane="133126031#0_1" arrivalPos="295.04" arrivalSpeed="16.26" duration="75.00" routeLength="386.51" waitingTime="20.00" waitingCount="3" stopTime="0.00" timeLoss="50.02" rerouteNo="0" devices="tripinfo_flow_route_19_duration_20250327_2120.7" vType="car" speedFactor="1.03" vaporized=""/>
    <tripinfo id="flow_route_0_duration_20250327_2120.14" depart="76.00" departLane="1318793176#1_0" departPos="3.13" departSpeed="0.00" departDelay="23.50" arrival="114.00" arrivalLane="133126031#0_0" arrivalPos="312.83" arrivalSpeed="16.15" duration="38.00" routeLength="430.12" waitingTime="0.00" waitingCount="0" stopTime="0.00" timeLoss="11.53" rerouteNo="0" devices="tripinfo_flow_route_0_duration_20250327_2120.14" vType="car" speedFactor="1.02" vaporized=""/>
    <tripinfo id="flow_route_47_duration_20250327_2120.4" depart="54.00" departLane="380351865#0_0" departPos="1.44" departSpeed="0.00" departDelay="24.00" arrival="117.00" arrivalLane="1318793173#0_1" arrivalPos="13.43" arrivalSpeed="8.72" duration="63.00" routeLength="173.43" waitingTime="32.00" waitingCount="1" stopTime="0.00" timeLoss="50.00" rerouteNo="0" devices="tripinfo_flow_route_47_duration_20250327_2120.4" vType="car" speedFactor="1.17" vaporized=""/>
    <tripinfo id="flow_route_47_duration_20250327_2120.3" depart="41.00" departLane="380351865#0_0" departPos="0.01" departSpeed="0.00" departDelay="18.50" arrival="118.00" arrivalLane="1318793173#0_1" arrivalPos="45.08" arrivalSpeed="10.73" duration="77.00" routeLength="206.51" waitingTime="42.00" waitingCount="1" stopTime="0.00" timeLoss="58.21" rerouteNo="0" devices="tripinfo_flow_route_47_duration_20250327_2120.3" vType="car" speedFactor="0.92" vaporized=""/>
    <tripinfo id="flow_route_48_duration_20250327_2120.8" depart="50.00" departLane="380351865#0_0" departPos="3.33" departSpeed="0.00" departDelay="21.77" arrival="120.00" arrivalLane="133126031#0_0" arrivalPos="33.76" arrivalSpeed="10.23" duration="70.00" routeLength="197.60" waitingTime="35.00" waitingCount="1" stopTime="0.00" timeLoss="55.80" rerouteNo="0" devices="tripinfo_flow_route_48_duration_20250327_2120.8" vType="car" speedFactor="1.18" vaporized=""/>
    <tripinfo id="flow_route_47_duration_20250327_2120.5" depart="64.00" departLane="380351865#0_0" departPos="5.92" departSpeed="0.00" departDelay="26.50" arrival="128.00" arrivalLane="1318793173#0_1" arrivalPos="102.10" arrivalSpeed="14.89" duration="64.00" routeLength="257.62" waitingTime="25.00" waitingCount="1" stopTime="0.00" timeLoss="41.50" rerouteNo="0" devices="tripinfo_flow_route_47_duration_20250327_2120.5" vType="car" speedFactor="0.90" vaporized=""/>
    <tripinfo id="flow_route_48_duration_20250327_2120.14" depart="78.00" departLane="380351865#0_0" departPos="4.12" departSpeed="0.00" departDelay="28.59" arrival="129.00" arrivalLane="133126031#0_0" arrivalPos="75.74" arrivalSpeed="14.59" duration="51.00" routeLength="238.78" waitingTime="10.00" waitingCount="1" stopTime="0.00" timeLoss="34.05" rerouteNo="0" devices="tripinfo_flow_route_48_duration_20250327_2120.14" vType="car" speedFactor="1.17" vaporized=""/>
    <tripinfo id="flow_route_48_duration_20250327_2120.7" depart="47.00" departLane="380351865#0_0" departPos="7.59" departSpeed="0.00" departDelay="22.30" arrival="130.00" arrivalLane="133126031#0_0" arrivalPos="207.92" arrivalSpeed="16.43" duration="83.00" routeLength="367.50" waitingTime="37.00" waitingCount="1" stopTime="0.00" timeLoss="56.07" rerouteNo="0" devices="tripinfo_flow_route_48_duration_20250327_2120.7" vType="car" speedFactor="0.95" vaporized=""/>
    <tripinfo id="flow_route_48_duration_20250327_2120.9" depart="59.00" departLane="380351865#0_0" departPos="16.77" departSpeed="0.00" departDelay="27.24" arrival="131.00" arrivalLane="133126031#0_0" arrivalPos="159.63" arrivalSpeed="16.41" duration="72.00" routeLength="310.03" waitingTime="29.00" waitingCount="1" stopTime="0.00" timeLoss="49.21" rerouteNo="0" devices="tripinfo_flow_route_48_duration_20250327_2120.9" vType="car" speedFactor="0.99" vaporized=""/>
    <tripinfo id="flow_route_48_duration_20250327_2120.12" depart="70.00" departLane="380351865#0_0" departPos="15.68" departSpeed="0.00" departDelay="27.65" arrival="131.00" arrivalLane="133126031#0_0" arrivalPos="136.96" arrivalSpeed="16.16" duration="61.00" routeLength="288.46" waitingTime="19.00" waitingCount="1" stopTime="0.00" timeLoss="40.38" rerouteNo="0" devices="tripinfo_flow_route_48_duration_20250327_2120.12" vType="car" speedFactor="1.04" vaporized=""/>
    <tripinfo id="flow_route_47_duration_20250327_2120.6" depart="73.00" departLane="380351865#0_0" departPos="9.96" departSpeed="0.00" departDelay="28.00" arrival="131.00" arrivalLane="1318793173#0_1" arrivalPos="91.18" arrivalSpeed="14.75" duration="58.00" routeLength="242.65" waitingTime="17.00" waitingCount="1" stopTime="0.00" timeLoss="37.33" rerouteNo="0" devices="tripinfo_flow_route_47_duration_20250327_2120.6" vType="car" speedFactor="0.90" vaporized=""/>
    <tripinfo id="flow_route_48_duration_20250327_2120.10" depart="59.00" departLane="380351865#0_0" departPos="6.73" departSpeed="0.00" departDelay="23.71" arrival="132.00" arrivalLane="133126031#0_1" arrivalPos="197.10" arrivalSpeed="16.13" duration="73.00" routeLength="357.53" waitingTime="27.00" waitingCount="1" stopTime="0.00" timeLoss="49.11" rerouteNo="0" devices="tripinfo_flow_route_48_duration_20250327_2120.10" vType="car" speedFactor="1.18" vaporized=""/>
    <tripinfo id="flow_route_48_duration_20250327_2120.11" depart="68.00" departLane="380351865#0_0" departPos="0.23" departSpeed="0.00" departDelay="29.18" arrival="134.00" arrivalLane="133126031#0_1" arrivalPos="160.52" arrivalSpeed="16.31" duration="66.00" routeLength="327.46" waitingTime="20.00" waitingCount="1" stopTime="0.00" timeLoss="40.85" rerouteNo="0" devices="tripinfo_flow_route_48_duration_20250327_2120.11" vType="car" speedFactor="0.96" vaporized=""/>
    <tripinfo id="flow_route_1_duration_20250327_2120.3" depart="69.00" departLane="1318793176#1_0" departPos="0.34" departSpeed="0.00" departDelay="24.00" arrival="139.00" arrivalLane="1318793173#0_1" arrivalPos="50.02" arrivalSpeed="10.28" duration="70.00" routeLength="173.59" waitingTime="38.00" waitingCount="1" stopTime="0.00" timeLoss="59.42" rerouteNo="0" devices="tripinfo_flow_route_1_duration_20250327_2120.3" vType="car" speedFactor="1.00" vaporized=""/>
    <tripinfo id="flow_route_48_duration_20250327_2120.15" depart="85.00" departLane="380351865#0_0" departPos="13.62" departSpeed="0.00" departDelay="32.07" arrival="145.00" arrivalLane="133126031#0_0" arrivalPos="305.29" arrivalSpeed="16.18" duration="60.00" routeLength="458.83" waitingTime="9.00" waitingCount="2" stopTime="0.00" timeLoss="28.41" rerouteNo="0" devices="tripinfo_flow_route_48_duration_20250327_2120.15" vType="car" speedFactor="1.00" vaporized=""/>
    <tripinfo id="flow_route_47_duration_20250327_2120.7" depart="78.00" departLane="380351865#0_0" departPos="16.98" departSpeed="0.00" departDelay="25.50" arrival="179.00" arrivalLane="1318793173#0_1" arrivalPos="23.84" arrivalSpeed="9.03" duration="101.00" routeLength="168.31" waitingTime="58.00" waitingCount="2" stopTime="0.00" timeLoss="87.81" rerouteNo="0" devices="tripinfo_flow_route_47_duration_20250327_2120.7" vType="car" speedFactor="1.10" vaporized=""/>
    <tripinfo id="flow_route_48_duration_20250327_2120.16" depart="85.00" departLane="380351865#0_0" departPos="0.45" departSpeed="0.00" departDelay="28.54" arrival="188.00" arrivalLane="133126031#0_0" arrivalPos="143.09" arrivalSpeed="16.13" duration="103.00" routeLength="309.80" waitingTime="49.00" waitingCount="2" stopTime="0.00" timeLoss="81.29" rerouteNo="0" devices="tripinfo_flow_route_48_duration_20250327_2120.16" vType="car" speedFactor="1.14" vaporized=""/>
    <tripinfo id="flow_route_48_duration_20250327_2120.13" depart="77.00" departLane="380351865#0_0" departPos="3.69" departSpeed="0.00" departDelay="31.12" arrival="190.00" arrivalLane="133126031#0_0" arrivalPos="148.49" arrivalSpeed="16.31" duration="113.00" routeLength="311.98" waitingTime="55.00" waitingCount="3" stopTime="0.00" timeLoss="88.19" rerouteNo="0" devices="tripinfo_flow_route_48_duration_20250327_2120.13" vType="car" speedFactor="0.88" vaporized=""/>
</tripinfos>
