<?xml version="1.0" encoding="UTF-8"?>

<!-- generated on 2025-05-06 21:08:11 by Eclipse SUMO sumo Version 1.20.0
<configuration xmlns:xsi="http://www.w3.org/2001/XMLSchema-instance" xsi:noNamespaceSchemaLocation="http://sumo.dlr.de/xsd/sumoConfiguration.xsd">

    <input>
        <net-file value="osm.net.xml"/>
        <route-files value="xml/route_rl_cluster_3839031475_3839031476_4110471700_4234582615_3.rou.xml"/>
    </input>

    <output>
        <tripinfo-output value="xml/tripinfo_rl_cluster_3839031475_3839031476_4110471700_4234582615_3.xml"/>
    </output>

    <traci_server>
        <remote-port value="50453"/>
    </traci_server>

</configuration>
-->

<tripinfos xmlns:xsi="http://www.w3.org/2001/XMLSchema-instance" xsi:noNamespaceSchemaLocation="http://sumo.dlr.de/xsd/tripinfo_file.xsd">
    <tripinfo id="flow_route_85_duration_20250327_2030.0" depart="0.00" departLane="1091883842_0" departPos="162.60" departSpeed="0.00" departDelay="0.00" arrival="16.00" arrivalLane="133000063_0" arrivalPos="42.63" arrivalSpeed="9.42" duration="16.00" routeLength="74.77" waitingTime="0.00" waitingCount="0" stopTime="0.00" timeLoss="9.22" rerouteNo="0" devices="tripinfo_flow_route_85_duration_20250327_2030.0" vType="car" speedFactor="0.89" vaporized=""/>
    <tripinfo id="flow_route_84_duration_20250327_2030.2" depart="6.00" departLane="1091883842_0" departPos="141.98" departSpeed="0.00" departDelay="0.78" arrival="25.00" arrivalLane="136617981_0" arrivalPos="67.09" arrivalSpeed="14.70" duration="19.00" routeLength="143.40" waitingTime="0.00" waitingCount="0" stopTime="0.00" timeLoss="9.99" rerouteNo="0" devices="tripinfo_flow_route_84_duration_20250327_2030.2" vType="car" speedFactor="0.99" vaporized=""/>
    <tripinfo id="flow_route_79_duration_20250327_2030.0" depart="0.00" departLane="380344611#0_0" departPos="128.21" departSpeed="0.00" departDelay="0.00" arrival="28.00" arrivalLane="423956929_1" arrivalPos="91.18" arrivalSpeed="16.56" duration="28.00" routeLength="278.79" waitingTime="0.00" waitingCount="0" stopTime="0.00" timeLoss="10.75" rerouteNo="0" devices="tripinfo_flow_route_79_duration_20250327_2030.0" vType="car" speedFactor="1.08" vaporized=""/>
    <tripinfo id="flow_route_80_duration_20250327_2030.0" depart="0.00" departLane="380344611#0_0" departPos="160.58" departSpeed="0.00" departDelay="0.00" arrival="31.00" arrivalLane="380593307#0_0" arrivalPos="102.42" arrivalSpeed="13.82" duration="31.00" routeLength="234.46" waitingTime="0.00" waitingCount="0" stopTime="0.00" timeLoss="16.11" rerouteNo="0" devices="tripinfo_flow_route_80_duration_20250327_2030.0" vType="car" speedFactor="1.03" vaporized=""/>
    <tripinfo id="flow_route_84_duration_20250327_2030.0" depart="0.00" departLane="1091883842_0" departPos="11.19" departSpeed="0.00" departDelay="0.00" arrival="37.00" arrivalLane="136617981_1" arrivalPos="210.65" arrivalSpeed="16.53" duration="37.00" routeLength="417.75" waitingTime="0.00" waitingCount="0" stopTime="0.00" timeLoss="11.28" rerouteNo="0" devices="tripinfo_flow_route_84_duration_20250327_2030.0" vType="car" speedFactor="1.05" vaporized=""/>
    <tripinfo id="flow_route_84_duration_20250327_2030.1" depart="5.00" departLane="1091883842_0" departPos="73.65" departSpeed="0.00" departDelay="2.39" arrival="37.00" arrivalLane="136617981_1" arrivalPos="145.38" arrivalSpeed="16.19" duration="32.00" routeLength="290.03" waitingTime="0.00" waitingCount="0" stopTime="0.00" timeLoss="14.43" rerouteNo="0" devices="tripinfo_flow_route_84_duration_20250327_2030.1" vType="car" speedFactor="1.03" vaporized=""/>
    <tripinfo id="flow_route_79_duration_20250327_2030.1" depart="9.00" departLane="380344611#0_0" departPos="63.27" departSpeed="0.00" departDelay="0.43" arrival="40.00" arrivalLane="423956929_0" arrivalPos="76.32" arrivalSpeed="16.54" duration="31.00" routeLength="328.86" waitingTime="0.00" waitingCount="0" stopTime="0.00" timeLoss="10.74" rerouteNo="0" devices="tripinfo_flow_route_79_duration_20250327_2030.1" vType="car" speedFactor="1.16" vaporized=""/>
    <tripinfo id="flow_route_84_duration_20250327_2030.4" depart="11.00" departLane="1091883842_0" departPos="124.08" departSpeed="0.00" departDelay="0.57" arrival="42.00" arrivalLane="136617981_0" arrivalPos="230.05" arrivalSpeed="15.80" duration="31.00" routeLength="324.26" waitingTime="0.00" waitingCount="0" stopTime="0.00" timeLoss="10.65" rerouteNo="0" devices="tripinfo_flow_route_84_duration_20250327_2030.4" vType="car" speedFactor="0.97" vaporized=""/>
    <tripinfo id="flow_route_84_duration_20250327_2030.3" depart="8.00" departLane="1091883842_0" departPos="24.03" departSpeed="0.00" departDelay="0.18" arrival="44.00" arrivalLane="136617981_1" arrivalPos="194.16" arrivalSpeed="15.29" duration="36.00" routeLength="388.43" waitingTime="0.00" waitingCount="0" stopTime="0.00" timeLoss="10.49" rerouteNo="0" devices="tripinfo_flow_route_84_duration_20250327_2030.3" vType="car" speedFactor="0.94" vaporized=""/>
    <tripinfo id="flow_route_79_duration_20250327_2030.2" depart="18.00" departLane="380344611#0_0" departPos="82.25" departSpeed="0.00" departDelay="0.86" arrival="44.00" arrivalLane="423956929_1" arrivalPos="8.69" arrivalSpeed="16.26" duration="26.00" routeLength="242.27" waitingTime="0.00" waitingCount="0" stopTime="0.00" timeLoss="10.94" rerouteNo="0" devices="tripinfo_flow_route_79_duration_20250327_2030.2" vType="car" speedFactor="1.01" vaporized=""/>
    <tripinfo id="flow_route_81_duration_20250327_2030.5" depart="15.00" departLane="380344611#0_0" departPos="281.38" departSpeed="0.00" departDelay="0.00" arrival="45.00" arrivalLane="133000063_2" arrivalPos="26.15" arrivalSpeed="9.04" duration="30.00" routeLength="60.64" waitingTime="10.00" waitingCount="2" stopTime="0.00" timeLoss="25.93" rerouteNo="0" devices="tripinfo_flow_route_81_duration_20250327_2030.5" vType="car" speedFactor="1.13" vaporized=""/>
    <tripinfo id="flow_route_81_duration_20250327_2030.1" depart="3.00" departLane="380344611#0_0" departPos="179.63" departSpeed="0.00" departDelay="0.00" arrival="46.00" arrivalLane="133000063_2" arrivalPos="7.96" arrivalSpeed="8.15" duration="43.00" routeLength="144.19" waitingTime="7.00" waitingCount="1" stopTime="0.00" timeLoss="33.49" rerouteNo="0" devices="tripinfo_flow_route_81_duration_20250327_2030.1" vType="car" speedFactor="1.09" vaporized=""/>
    <tripinfo id="flow_route_81_duration_20250327_2030.0" depart="0.00" departLane="380344611#0_0" departPos="75.01" departSpeed="0.00" departDelay="0.00" arrival="48.00" arrivalLane="133000063_2" arrivalPos="7.51" arrivalSpeed="8.99" duration="48.00" routeLength="248.37" waitingTime="6.00" waitingCount="1" stopTime="0.00" timeLoss="28.78" rerouteNo="0" devices="tripinfo_flow_route_81_duration_20250327_2030.0" vType="car" speedFactor="0.83" vaporized=""/>
    <tripinfo id="flow_route_81_duration_20250327_2030.4" depart="13.00" departLane="380344611#0_0" departPos="272.21" departSpeed="0.00" departDelay="1.00" arrival="52.00" arrivalLane="133000063_2" arrivalPos="123.25" arrivalSpeed="14.72" duration="39.00" routeLength="166.91" waitingTime="10.00" waitingCount="1" stopTime="0.00" timeLoss="26.15" rerouteNo="0" devices="tripinfo_flow_route_81_duration_20250327_2030.4" vType="car" speedFactor="0.89" vaporized=""/>
    <tripinfo id="flow_route_79_duration_20250327_2030.3" depart="29.00" departLane="380344611#0_0" departPos="188.09" departSpeed="0.00" departDelay="3.29" arrival="54.00" arrivalLane="423956929_0" arrivalPos="122.79" arrivalSpeed="16.27" duration="25.00" routeLength="250.51" waitingTime="0.00" waitingCount="0" stopTime="0.00" timeLoss="9.42" rerouteNo="0" devices="tripinfo_flow_route_79_duration_20250327_2030.3" vType="car" speedFactor="1.00" vaporized=""/>
    <tripinfo id="flow_route_81_duration_20250327_2030.6" depart="18.00" departLane="380344611#0_0" departPos="60.22" departSpeed="0.00" departDelay="0.00" arrival="57.00" arrivalLane="133000063_2" arrivalPos="13.78" arrivalSpeed="7.94" duration="39.00" routeLength="269.43" waitingTime="0.00" waitingCount="0" stopTime="0.00" timeLoss="22.48" rerouteNo="0" devices="tripinfo_flow_route_81_duration_20250327_2030.6" vType="car" speedFactor="1.17" vaporized=""/>
    <tripinfo id="flow_route_81_duration_20250327_2030.2" depart="6.00" departLane="380344611#0_0" departPos="85.57" departSpeed="0.00" departDelay="0.00" arrival="59.00" arrivalLane="133000063_2" arrivalPos="93.75" arrivalSpeed="15.14" duration="53.00" routeLength="324.05" waitingTime="5.00" waitingCount="1" stopTime="0.00" timeLoss="32.57" rerouteNo="0" devices="tripinfo_flow_route_81_duration_20250327_2030.2" vType="car" speedFactor="1.12" vaporized=""/>
    <tripinfo id="flow_route_80_duration_20250327_2030.1" depart="20.00" departLane="380344611#0_0" departPos="103.55" departSpeed="0.00" departDelay="0.00" arrival="61.00" arrivalLane="380593307#0_0" arrivalPos="143.32" arrivalSpeed="16.41" duration="41.00" routeLength="332.39" waitingTime="0.00" waitingCount="0" stopTime="0.00" timeLoss="19.69" rerouteNo="0" devices="tripinfo_flow_route_80_duration_20250327_2030.1" vType="car" speedFactor="1.10" vaporized=""/>
    <tripinfo id="flow_route_81_duration_20250327_2030.3" depart="9.00" departLane="380344611#0_0" departPos="47.63" departSpeed="0.00" departDelay="0.00" arrival="65.00" arrivalLane="133000063_2" arrivalPos="166.13" arrivalSpeed="16.33" duration="56.00" routeLength="434.38" waitingTime="3.00" waitingCount="1" stopTime="0.00" timeLoss="28.66" rerouteNo="0" devices="tripinfo_flow_route_81_duration_20250327_2030.3" vType="car" speedFactor="1.02" vaporized=""/>
    <tripinfo id="flow_route_79_duration_20250327_2030.5" depart="43.00" departLane="380344611#0_0" departPos="212.56" departSpeed="0.00" departDelay="0.15" arrival="65.00" arrivalLane="423956929_0" arrivalPos="74.83" arrivalSpeed="16.16" duration="22.00" routeLength="178.09" waitingTime="0.00" waitingCount="0" stopTime="0.00" timeLoss="10.61" rerouteNo="0" devices="tripinfo_flow_route_79_duration_20250327_2030.5" vType="car" speedFactor="0.98" vaporized=""/>
    <tripinfo id="flow_route_81_duration_20250327_2030.11" depart="34.00" departLane="380344611#0_0" departPos="137.93" departSpeed="0.00" departDelay="1.00" arrival="66.00" arrivalLane="133000063_2" arrivalPos="59.57" arrivalSpeed="11.98" duration="32.00" routeLength="237.50" waitingTime="0.00" waitingCount="0" stopTime="0.00" timeLoss="17.32" rerouteNo="0" devices="tripinfo_flow_route_81_duration_20250327_2030.11" vType="car" speedFactor="1.14" vaporized=""/>
    <tripinfo id="flow_route_81_duration_20250327_2030.9" depart="29.00" departLane="380344611#0_0" departPos="122.18" departSpeed="0.00" departDelay="2.00" arrival="69.00" arrivalLane="133000063_2" arrivalPos="122.85" arrivalSpeed="14.22" duration="40.00" routeLength="316.55" waitingTime="0.00" waitingCount="0" stopTime="0.00" timeLoss="16.80" rerouteNo="0" devices="tripinfo_flow_route_81_duration_20250327_2030.9" vType="car" speedFactor="0.88" vaporized=""/>
    <tripinfo id="flow_route_79_duration_20250327_2030.4" depart="35.00" departLane="380344611#0_0" departPos="111.58" departSpeed="0.00" departDelay="0.72" arrival="69.00" arrivalLane="423956929_1" arrivalPos="157.94" arrivalSpeed="16.59" duration="34.00" routeLength="362.18" waitingTime="0.00" waitingCount="0" stopTime="0.00" timeLoss="11.43" rerouteNo="0" devices="tripinfo_flow_route_79_duration_20250327_2030.4" vType="car" speedFactor="1.12" vaporized=""/>
    <tripinfo id="flow_route_81_duration_20250327_2030.14" depart="42.00" departLane="380344611#0_0" departPos="161.24" departSpeed="0.00" departDelay="0.00" arrival="73.00" arrivalLane="133000063_2" arrivalPos="41.07" arrivalSpeed="10.72" duration="31.00" routeLength="195.70" waitingTime="0.00" waitingCount="0" stopTime="0.00" timeLoss="17.40" rerouteNo="0" devices="tripinfo_flow_route_81_duration_20250327_2030.14" vType="car" speedFactor="0.94" vaporized=""/>
    <tripinfo id="flow_route_81_duration_20250327_2030.17" depart="51.00" departLane="380344611#0_0" departPos="265.84" departSpeed="0.00" departDelay="0.00" arrival="74.00" arrivalLane="133000063_2" arrivalPos="131.08" arrivalSpeed="16.12" duration="23.00" routeLength="181.10" waitingTime="0.00" waitingCount="0" stopTime="0.00" timeLoss="11.21" rerouteNo="0" devices="tripinfo_flow_route_81_duration_20250327_2030.17" vType="car" speedFactor="1.00" vaporized=""/>
    <tripinfo id="flow_route_80_duration_20250327_2030.2" depart="40.00" departLane="380344611#0_0" departPos="55.39" departSpeed="0.00" departDelay="0.00" arrival="76.00" arrivalLane="380593307#0_0" arrivalPos="22.48" arrivalSpeed="8.48" duration="36.00" routeLength="259.71" waitingTime="0.00" waitingCount="0" stopTime="0.00" timeLoss="19.69" rerouteNo="0" devices="tripinfo_flow_route_80_duration_20250327_2030.2" vType="car" speedFactor="1.02" vaporized=""/>
    <tripinfo id="flow_route_79_duration_20250327_2030.6" depart="52.00" departLane="380344611#0_0" departPos="163.20" departSpeed="0.00" departDelay="0.57" arrival="76.00" arrivalLane="423956929_0" arrivalPos="67.82" arrivalSpeed="16.40" duration="24.00" routeLength="220.44" waitingTime="0.00" waitingCount="0" stopTime="0.00" timeLoss="9.87" rerouteNo="0" devices="tripinfo_flow_route_79_duration_20250327_2030.6" vType="car" speedFactor="1.01" vaporized=""/>
    <tripinfo id="flow_route_81_duration_20250327_2030.18" depart="55.00" departLane="380344611#0_0" departPos="225.86" departSpeed="0.00" departDelay="1.00" arrival="77.00" arrivalLane="133000063_2" arrivalPos="59.06" arrivalSpeed="12.75" duration="22.00" routeLength="149.07" waitingTime="0.00" waitingCount="0" stopTime="0.00" timeLoss="9.87" rerouteNo="0" devices="tripinfo_flow_route_81_duration_20250327_2030.18" vType="car" speedFactor="0.83" vaporized=""/>
    <tripinfo id="flow_route_81_duration_20250327_2030.7" depart="21.00" departLane="380344611#0_0" departPos="29.70" departSpeed="0.00" departDelay="0.00" arrival="78.00" arrivalLane="133000063_2" arrivalPos="168.25" arrivalSpeed="15.01" duration="57.00" routeLength="454.42" waitingTime="0.00" waitingCount="0" stopTime="0.00" timeLoss="26.13" rerouteNo="0" devices="tripinfo_flow_route_81_duration_20250327_2030.7" vType="car" speedFactor="0.90" vaporized=""/>
    <tripinfo id="flow_route_89_duration_20250327_2030.2" depart="6.00" departLane="380585338#0_0" departPos="27.63" departSpeed="0.00" departDelay="0.00" arrival="83.00" arrivalLane="380593307#0_2" arrivalPos="5.63" arrivalSpeed="7.59" duration="77.00" routeLength="188.27" waitingTime="46.00" waitingCount="1" stopTime="0.00" timeLoss="64.64" rerouteNo="0" devices="tripinfo_flow_route_89_duration_20250327_2030.2" vType="car" speedFactor="0.93" vaporized=""/>
    <tripinfo id="flow_route_81_duration_20250327_2030.8" depart="25.00" departLane="380344611#0_0" departPos="28.79" departSpeed="0.00" departDelay="1.00" arrival="85.00" arrivalLane="133000063_2" arrivalPos="150.51" arrivalSpeed="16.11" duration="60.00" routeLength="437.59" waitingTime="0.00" waitingCount="0" stopTime="0.00" timeLoss="32.23" rerouteNo="0" devices="tripinfo_flow_route_81_duration_20250327_2030.8" vType="car" speedFactor="1.04" vaporized=""/>
    <tripinfo id="flow_route_89_duration_20250327_2030.1" depart="3.00" departLane="380585338#0_0" departPos="143.14" departSpeed="0.00" departDelay="0.00" arrival="87.00" arrivalLane="380593307#0_0" arrivalPos="53.31" arrivalSpeed="11.65" duration="84.00" routeLength="120.44" waitingTime="59.00" waitingCount="1" stopTime="0.00" timeLoss="76.74" rerouteNo="0" devices="tripinfo_flow_route_89_duration_20250327_2030.1" vType="car" speedFactor="1.05" vaporized=""/>
    <tripinfo id="flow_route_89_duration_20250327_2030.5" depart="16.00" departLane="380585338#0_0" departPos="14.94" departSpeed="0.00" departDelay="1.00" arrival="88.00" arrivalLane="380593307#0_2" arrivalPos="4.83" arrivalSpeed="9.06" duration="72.00" routeLength="200.17" waitingTime="36.00" waitingCount="1" stopTime="0.00" timeLoss="58.57" rerouteNo="0" devices="tripinfo_flow_route_89_duration_20250327_2030.5" vType="car" speedFactor="0.93" vaporized=""/>
    <tripinfo id="flow_route_89_duration_20250327_2030.3" depart="11.00" departLane="380585338#0_0" departPos="15.46" departSpeed="0.00" departDelay="2.00" arrival="89.00" arrivalLane="380593307#0_2" arrivalPos="45.85" arrivalSpeed="11.68" duration="78.00" routeLength="240.66" waitingTime="39.00" waitingCount="1" stopTime="0.00" timeLoss="63.27" rerouteNo="0" devices="tripinfo_flow_route_89_duration_20250327_2030.3" vType="car" speedFactor="1.01" vaporized=""/>
    <tripinfo id="flow_route_77_duration_20250327_2030.1" depart="20.00" departLane="133342692#0_0" departPos="100.30" departSpeed="0.00" departDelay="0.00" arrival="89.00" arrivalLane="423956929_0" arrivalPos="72.31" arrivalSpeed="11.63" duration="69.00" routeLength="154.54" waitingTime="39.00" waitingCount="1" stopTime="0.00" timeLoss="58.31" rerouteNo="0" devices="tripinfo_flow_route_77_duration_20250327_2030.1" vType="car" speedFactor="0.97" vaporized=""/>
    <tripinfo id="flow_route_89_duration_20250327_2030.0" depart="0.00" departLane="380585338#0_0" departPos="55.91" departSpeed="0.00" departDelay="0.00" arrival="90.00" arrivalLane="380593307#0_1" arrivalPos="94.67" arrivalSpeed="14.02" duration="90.00" routeLength="249.03" waitingTime="52.00" waitingCount="1" stopTime="0.00" timeLoss="74.06" rerouteNo="0" devices="tripinfo_flow_route_89_duration_20250327_2030.0" vType="car" speedFactor="0.94" vaporized=""/>
    <tripinfo id="flow_route_77_duration_20250327_2030.2" depart="40.00" departLane="133342692#0_0" departPos="38.74" departSpeed="0.00" departDelay="0.00" arrival="90.00" arrivalLane="423956929_0" arrivalPos="29.24" arrivalSpeed="8.88" duration="50.00" routeLength="173.03" waitingTime="17.00" waitingCount="1" stopTime="0.00" timeLoss="38.72" rerouteNo="0" devices="tripinfo_flow_route_77_duration_20250327_2030.2" vType="car" speedFactor="1.04" vaporized=""/>
    <tripinfo id="flow_route_77_duration_20250327_2030.0" depart="0.00" departLane="133342692#0_0" departPos="115.39" departSpeed="0.00" departDelay="0.00" arrival="91.00" arrivalLane="423956929_0" arrivalPos="132.19" arrivalSpeed="14.64" duration="91.00" routeLength="199.33" waitingTime="59.00" waitingCount="1" stopTime="0.00" timeLoss="77.25" rerouteNo="0" devices="tripinfo_flow_route_77_duration_20250327_2030.0" vType="car" speedFactor="0.94" vaporized=""/>
    <tripinfo id="flow_route_89_duration_20250327_2030.7" depart="22.00" departLane="380585338#0_0" departPos="85.55" departSpeed="0.00" departDelay="1.00" arrival="92.00" arrivalLane="380593307#0_1" arrivalPos="52.56" arrivalSpeed="12.62" duration="70.00" routeLength="177.27" waitingTime="38.00" waitingCount="1" stopTime="0.00" timeLoss="58.57" rerouteNo="0" devices="tripinfo_flow_route_89_duration_20250327_2030.7" vType="car" speedFactor="0.96" vaporized=""/>
    <tripinfo id="flow_route_89_duration_20250327_2030.4" depart="15.00" departLane="380585338#0_0" departPos="94.95" departSpeed="0.00" departDelay="3.00" arrival="93.00" arrivalLane="380593307#0_1" arrivalPos="103.51" arrivalSpeed="13.55" duration="78.00" routeLength="218.83" waitingTime="44.00" waitingCount="1" stopTime="0.00" timeLoss="61.61" rerouteNo="0" devices="tripinfo_flow_route_89_duration_20250327_2030.4" vType="car" speedFactor="0.83" vaporized=""/>
    <tripinfo id="flow_route_76_duration_20250327_2030.2" depart="30.00" departLane="133342692#0_0" departPos="109.92" departSpeed="0.00" departDelay="0.00" arrival="93.00" arrivalLane="133000063_0" arrivalPos="65.36" arrivalSpeed="12.56" duration="63.00" routeLength="162.36" waitingTime="32.00" waitingCount="1" stopTime="0.00" timeLoss="53.11" rerouteNo="0" devices="tripinfo_flow_route_76_duration_20250327_2030.2" vType="car" speedFactor="1.02" vaporized=""/>
    <tripinfo id="flow_route_76_duration_20250327_2030.1" depart="15.00" departLane="133342692#0_0" departPos="30.69" departSpeed="0.00" departDelay="0.00" arrival="94.00" arrivalLane="133000063_1" arrivalPos="110.52" arrivalSpeed="14.60" duration="79.00" routeLength="286.75" waitingTime="38.00" waitingCount="1" stopTime="0.00" timeLoss="60.18" rerouteNo="0" devices="tripinfo_flow_route_76_duration_20250327_2030.1" vType="car" speedFactor="0.95" vaporized=""/>
    <tripinfo id="flow_route_76_duration_20250327_2030.0" depart="0.00" departLane="133342692#0_0" departPos="1.03" departSpeed="0.00" departDelay="0.00" arrival="95.00" arrivalLane="133000063_1" arrivalPos="153.47" arrivalSpeed="16.17" duration="95.00" routeLength="359.35" waitingTime="49.00" waitingCount="1" stopTime="0.00" timeLoss="72.80" rerouteNo="0" devices="tripinfo_flow_route_76_duration_20250327_2030.0" vType="car" speedFactor="1.06" vaporized=""/>
    <tripinfo id="flow_route_90_duration_20250327_2030.1" depart="8.00" departLane="380585338#0_0" departPos="21.77" departSpeed="0.00" departDelay="0.50" arrival="95.00" arrivalLane="136617981_0" arrivalPos="93.90" arrivalSpeed="13.81" duration="87.00" routeLength="259.20" waitingTime="44.00" waitingCount="1" stopTime="0.00" timeLoss="68.93" rerouteNo="0" devices="tripinfo_flow_route_90_duration_20250327_2030.1" vType="car" speedFactor="0.94" vaporized=""/>
    <tripinfo id="flow_route_76_duration_20250327_2030.3" depart="45.00" departLane="133342692#0_0" departPos="14.58" departSpeed="0.00" departDelay="0.00" arrival="96.00" arrivalLane="133000063_1" arrivalPos="114.73" arrivalSpeed="15.74" duration="51.00" routeLength="307.07" waitingTime="8.00" waitingCount="1" stopTime="0.00" timeLoss="31.68" rerouteNo="0" devices="tripinfo_flow_route_76_duration_20250327_2030.3" vType="car" speedFactor="1.03" vaporized=""/>
    <tripinfo id="flow_route_89_duration_20250327_2030.15" depart="48.00" departLane="380585338#0_0" departPos="40.00" departSpeed="0.00" departDelay="3.00" arrival="97.00" arrivalLane="380593307#0_1" arrivalPos="1.27" arrivalSpeed="10.97" duration="49.00" routeLength="171.54" waitingTime="9.00" waitingCount="1" stopTime="0.00" timeLoss="38.39" rerouteNo="0" devices="tripinfo_flow_route_89_duration_20250327_2030.15" vType="car" speedFactor="1.09" vaporized=""/>
    <tripinfo id="flow_route_89_duration_20250327_2030.6" depart="18.00" departLane="380585338#0_0" departPos="117.85" departSpeed="0.00" departDelay="0.00" arrival="98.00" arrivalLane="380593307#0_0" arrivalPos="125.32" arrivalSpeed="16.51" duration="80.00" routeLength="217.74" waitingTime="44.00" waitingCount="1" stopTime="0.00" timeLoss="66.00" rerouteNo="0" devices="tripinfo_flow_route_89_duration_20250327_2030.6" vType="car" speedFactor="0.99" vaporized=""/>
    <tripinfo id="flow_route_89_duration_20250327_2030.10" depart="32.00" departLane="380585338#0_0" departPos="83.82" departSpeed="0.00" departDelay="2.00" arrival="98.00" arrivalLane="380593307#0_1" arrivalPos="102.90" arrivalSpeed="16.03" duration="66.00" routeLength="229.35" waitingTime="30.00" waitingCount="1" stopTime="0.00" timeLoss="51.23" rerouteNo="0" devices="tripinfo_flow_route_89_duration_20250327_2030.10" vType="car" speedFactor="1.00" vaporized=""/>
    <tripinfo id="flow_route_90_duration_20250327_2030.2" depart="18.00" departLane="380585338#0_0" departPos="61.10" departSpeed="0.00" departDelay="3.00" arrival="99.00" arrivalLane="136617981_0" arrivalPos="79.03" arrivalSpeed="13.12" duration="81.00" routeLength="205.00" waitingTime="39.00" waitingCount="1" stopTime="0.00" timeLoss="67.83" rerouteNo="0" devices="tripinfo_flow_route_90_duration_20250327_2030.2" vType="car" speedFactor="1.18" vaporized=""/>
    <tripinfo id="flow_route_90_duration_20250327_2030.3" depart="28.00" departLane="380585338#0_0" departPos="117.27" departSpeed="0.00" departDelay="5.50" arrival="99.00" arrivalLane="136617981_0" arrivalPos="120.48" arrivalSpeed="16.31" duration="71.00" routeLength="190.28" waitingTime="39.00" waitingCount="1" stopTime="0.00" timeLoss="58.19" rerouteNo="0" devices="tripinfo_flow_route_90_duration_20250327_2030.3" vType="car" speedFactor="1.09" vaporized=""/>
    <tripinfo id="flow_route_89_duration_20250327_2030.14" depart="43.00" departLane="380585338#0_0" departPos="6.01" departSpeed="0.00" departDelay="1.00" arrival="99.00" arrivalLane="380593307#0_1" arrivalPos="38.30" arrivalSpeed="12.80" duration="56.00" routeLength="242.56" waitingTime="13.00" waitingCount="1" stopTime="0.00" timeLoss="40.01" rerouteNo="0" devices="tripinfo_flow_route_89_duration_20250327_2030.14" vType="car" speedFactor="0.96" vaporized=""/>
    <tripinfo id="flow_route_90_duration_20250327_2030.0" depart="0.00" departLane="380585338#0_0" departPos="118.71" departSpeed="0.00" departDelay="0.00" arrival="100.00" arrivalLane="136617981_0" arrivalPos="211.18" arrivalSpeed="13.91" duration="100.00" routeLength="279.54" waitingTime="59.00" waitingCount="1" stopTime="0.00" timeLoss="79.43" rerouteNo="0" devices="tripinfo_flow_route_90_duration_20250327_2030.0" vType="car" speedFactor="0.86" vaporized=""/>
    <tripinfo id="flow_route_89_duration_20250327_2030.12" depart="41.00" departLane="380585338#0_0" departPos="55.71" departSpeed="0.00" departDelay="5.00" arrival="100.00" arrivalLane="380593307#0_1" arrivalPos="84.63" arrivalSpeed="14.01" duration="59.00" routeLength="239.18" waitingTime="20.00" waitingCount="1" stopTime="0.00" timeLoss="44.35" rerouteNo="0" devices="tripinfo_flow_route_89_duration_20250327_2030.12" vType="car" speedFactor="0.99" vaporized=""/>
    <tripinfo id="flow_route_89_duration_20250327_2030.13" depart="43.00" departLane="380585338#0_0" departPos="14.69" departSpeed="0.00" departDelay="4.00" arrival="100.00" arrivalLane="380593307#0_2" arrivalPos="77.19" arrivalSpeed="14.80" duration="57.00" routeLength="272.77" waitingTime="15.00" waitingCount="1" stopTime="0.00" timeLoss="38.38" rerouteNo="0" devices="tripinfo_flow_route_89_duration_20250327_2030.13" vType="car" speedFactor="0.91" vaporized=""/>
    <tripinfo id="flow_route_89_duration_20250327_2030.19" depart="61.00" departLane="380585338#0_0" departPos="62.00" departSpeed="0.00" departDelay="4.00" arrival="101.00" arrivalLane="380593307#0_1" arrivalPos="26.66" arrivalSpeed="13.00" duration="40.00" routeLength="174.93" waitingTime="7.00" waitingCount="1" stopTime="0.00" timeLoss="29.16" rerouteNo="0" devices="tripinfo_flow_route_89_duration_20250327_2030.19" vType="car" speedFactor="1.01" vaporized=""/>
    <tripinfo id="flow_route_89_duration_20250327_2030.8" depart="29.00" departLane="380585338#0_0" departPos="59.83" departSpeed="0.00" departDelay="5.00" arrival="102.00" arrivalLane="380593307#0_2" arrivalPos="168.66" arrivalSpeed="16.42" duration="73.00" routeLength="319.10" waitingTime="27.00" waitingCount="1" stopTime="0.00" timeLoss="52.88" rerouteNo="0" devices="tripinfo_flow_route_89_duration_20250327_2030.8" vType="car" speedFactor="1.09" vaporized=""/>
    <tripinfo id="flow_route_89_duration_20250327_2030.11" depart="38.00" departLane="380585338#0_0" departPos="77.54" departSpeed="0.00" departDelay="5.00" arrival="102.00" arrivalLane="380593307#0_2" arrivalPos="138.53" arrivalSpeed="16.60" duration="64.00" routeLength="271.26" waitingTime="22.00" waitingCount="1" stopTime="0.00" timeLoss="46.96" rerouteNo="0" devices="tripinfo_flow_route_89_duration_20250327_2030.11" vType="car" speedFactor="1.02" vaporized=""/>
    <tripinfo id="flow_route_90_duration_20250327_2030.5" depart="41.00" departLane="380585338#0_0" departPos="43.50" departSpeed="0.00" departDelay="3.50" arrival="102.00" arrivalLane="136617981_0" arrivalPos="43.46" arrivalSpeed="10.20" duration="61.00" routeLength="187.03" waitingTime="19.00" waitingCount="1" stopTime="0.00" timeLoss="47.17" rerouteNo="0" devices="tripinfo_flow_route_90_duration_20250327_2030.5" vType="car" speedFactor="0.88" vaporized=""/>
    <tripinfo id="flow_route_90_duration_20250327_2030.7" depart="56.00" departLane="380585338#0_0" departPos="59.28" departSpeed="0.00" departDelay="3.50" arrival="103.00" arrivalLane="136617981_0" arrivalPos="8.94" arrivalSpeed="7.73" duration="47.00" routeLength="136.73" waitingTime="14.00" waitingCount="1" stopTime="0.00" timeLoss="37.89" rerouteNo="0" devices="tripinfo_flow_route_90_duration_20250327_2030.7" vType="car" speedFactor="1.02" vaporized=""/>
    <tripinfo id="flow_route_89_duration_20250327_2030.18" depart="59.00" departLane="380585338#0_0" departPos="8.42" departSpeed="0.00" departDelay="5.00" arrival="103.00" arrivalLane="380593307#0_2" arrivalPos="49.44" arrivalSpeed="13.44" duration="44.00" routeLength="251.28" waitingTime="3.00" waitingCount="1" stopTime="0.00" timeLoss="27.47" rerouteNo="0" devices="tripinfo_flow_route_89_duration_20250327_2030.18" vType="car" speedFactor="0.92" vaporized=""/>
    <tripinfo id="flow_route_89_duration_20250327_2030.9" depart="30.00" departLane="380585338#0_0" departPos="17.86" departSpeed="0.00" departDelay="3.00" arrival="104.00" arrivalLane="380593307#0_1" arrivalPos="153.12" arrivalSpeed="13.82" duration="74.00" routeLength="345.53" waitingTime="23.00" waitingCount="1" stopTime="0.00" timeLoss="48.92" rerouteNo="0" devices="tripinfo_flow_route_89_duration_20250327_2030.9" vType="car" speedFactor="0.85" vaporized=""/>
    <tripinfo id="flow_route_89_duration_20250327_2030.16" depart="52.00" departLane="380585338#0_0" departPos="2.31" departSpeed="0.00" departDelay="4.00" arrival="105.00" arrivalLane="380593307#0_2" arrivalPos="100.55" arrivalSpeed="16.12" duration="53.00" routeLength="308.51" waitingTime="7.00" waitingCount="1" stopTime="0.00" timeLoss="33.86" rerouteNo="0" devices="tripinfo_flow_route_89_duration_20250327_2030.16" vType="car" speedFactor="1.15" vaporized=""/>