<?xml version="1.0" encoding="UTF-8"?>

<!-- generated on 2025-05-06 21:09:18 by Eclipse SUMO sumo Version 1.20.0
<configuration xmlns:xsi="http://www.w3.org/2001/XMLSchema-instance" xsi:noNamespaceSchemaLocation="http://sumo.dlr.de/xsd/sumoConfiguration.xsd">

    <input>
        <net-file value="osm.net.xml"/>
        <route-files value="xml/route_static_cluster3828547534_cluster_1507433914_2954854770_2954854771_2954854772_#9more_9.rou.xml"/>
    </input>

    <output>
        <tripinfo-output value="xml/tripinfo_static_cluster3828547534_cluster_1507433914_2954854770_2954854771_2954854772_#9more_9.xml"/>
    </output>

    <traci_server>
        <remote-port value="59655"/>
    </traci_server>

</configuration>
-->

<tripinfos xmlns:xsi="http://www.w3.org/2001/XMLSchema-instance" xsi:noNamespaceSchemaLocation="http://sumo.dlr.de/xsd/tripinfo_file.xsd">
    <tripinfo id="flow_route_6_duration_20250327_1940.0" depart="0.00" departLane="1252820505#0_0" departPos="39.30" departSpeed="0.00" departDelay="0.00" arrival="18.00" arrivalLane="379698350#0_0" arrivalPos="9.38" arrivalSpeed="14.24" duration="18.00" routeLength="129.45" waitingTime="0.00" waitingCount="0" stopTime="0.00" timeLoss="9.94" rerouteNo="0" devices="tripinfo_flow_route_6_duration_20250327_1940.0" vType="car" speedFactor="1.01" vaporized=""/>
    <tripinfo id="flow_route_22_duration_20250327_1940.0" depart="0.00" departLane="137415945#0_0" departPos="8.70" departSpeed="0.00" departDelay="0.00" arrival="24.00" arrivalLane="1342054204_0" arrivalPos="47.56" arrivalSpeed="15.23" duration="24.00" routeLength="232.19" waitingTime="0.00" waitingCount="0" stopTime="0.00" timeLoss="8.92" rerouteNo="0" devices="tripinfo_flow_route_22_duration_20250327_1940.0" vType="car" speedFactor="0.94" vaporized=""/>
    <tripinfo id="flow_route_24_duration_20250327_1940.0" depart="5.00" departLane="137415945#0_0" departPos="6.93" departSpeed="0.00" departDelay="5.00" arrival="26.00" arrivalLane="137406408#0_0" arrivalPos="0.56" arrivalSpeed="15.09" duration="21.00" routeLength="162.63" waitingTime="0.00" waitingCount="0" stopTime="0.00" timeLoss="10.79" rerouteNo="0" devices="tripinfo_flow_route_24_duration_20250327_1940.0" vType="car" speedFactor="1.09" vaporized=""/>
    <tripinfo id="flow_route_10_duration_20250327_1940.0" depart="0.00" departLane="1252820505#0_0" departPos="5.24" departSpeed="0.00" departDelay="0.00" arrival="28.00" arrivalLane="1235147073.116_0" arrivalPos="0.67" arrivalSpeed="13.80" duration="28.00" routeLength="263.17" waitingTime="0.00" waitingCount="0" stopTime="0.00" timeLoss="8.07" rerouteNo="0" devices="tripinfo_flow_route_10_duration_20250327_1940.0" vType="car" speedFactor="0.83" vaporized=""/>
    <tripinfo id="flow_route_22_duration_20250327_1940.1" depart="7.00" departLane="137415945#0_0" departPos="0.38" departSpeed="0.00" departDelay="4.60" arrival="35.00" arrivalLane="1342054204_0" arrivalPos="81.91" arrivalSpeed="16.25" duration="28.00" routeLength="274.86" waitingTime="0.00" waitingCount="0" stopTime="0.00" timeLoss="11.43" rerouteNo="0" devices="tripinfo_flow_route_22_duration_20250327_1940.1" vType="car" speedFactor="1.03" vaporized=""/>
    <tripinfo id="flow_route_10_duration_20250327_1940.1" depart="8.00" departLane="1252820505#0_0" departPos="22.95" departSpeed="0.00" departDelay="1.33" arrival="35.00" arrivalLane="1235147073.116_1" arrivalPos="2.44" arrivalSpeed="16.26" duration="27.00" routeLength="247.22" waitingTime="0.00" waitingCount="0" stopTime="0.00" timeLoss="11.17" rerouteNo="0" devices="tripinfo_flow_route_10_duration_20250327_1940.1" vType="car" speedFactor="0.99" vaporized=""/>
    <tripinfo id="flow_route_10_duration_20250327_1940.2" depart="14.00" departLane="1252820505#0_0" departPos="80.67" departSpeed="0.00" departDelay="0.67" arrival="37.00" arrivalLane="1235147073.116_0" arrivalPos="0.43" arrivalSpeed="14.29" duration="23.00" routeLength="187.50" waitingTime="0.00" waitingCount="0" stopTime="0.00" timeLoss="9.30" rerouteNo="0" devices="tripinfo_flow_route_10_duration_20250327_1940.2" vType="car" speedFactor="0.87" vaporized=""/>
    <tripinfo id="flow_route_6_duration_20250327_1940.1" depart="12.00" departLane="1252820505#0_0" departPos="15.94" departSpeed="0.00" departDelay="3.43" arrival="39.00" arrivalLane="379698350#0_0" arrivalPos="34.64" arrivalSpeed="12.73" duration="27.00" routeLength="178.07" waitingTime="0.00" waitingCount="0" stopTime="0.00" timeLoss="16.21" rerouteNo="0" devices="tripinfo_flow_route_6_duration_20250327_1940.1" vType="car" speedFactor="1.16" vaporized=""/>
    <tripinfo id="flow_route_6_duration_20250327_1940.2" depart="20.00" departLane="1252820505#0_0" departPos="84.91" departSpeed="0.00" departDelay="2.86" arrival="40.00" arrivalLane="379698350#0_0" arrivalPos="59.82" arrivalSpeed="14.08" duration="20.00" routeLength="134.28" waitingTime="0.00" waitingCount="0" stopTime="0.00" timeLoss="11.12" rerouteNo="0" devices="tripinfo_flow_route_6_duration_20250327_1940.2" vType="car" speedFactor="1.17" vaporized=""/>
    <tripinfo id="flow_route_8_duration_20250327_1940.0" depart="0.00" departLane="133000078#0_0" departPos="54.62" departSpeed="0.00" departDelay="0.00" arrival="44.00" arrivalLane="1235147073.116_0" arrivalPos="9.03" arrivalSpeed="16.03" duration="44.00" routeLength="314.60" waitingTime="3.00" waitingCount="1" stopTime="0.00" timeLoss="24.05" rerouteNo="0" devices="tripinfo_flow_route_8_duration_20250327_1940.0" vType="car" speedFactor="1.03" vaporized=""/>
    <tripinfo id="flow_route_8_duration_20250327_1940.2" depart="15.00" departLane="133000078#0_0" departPos="117.10" departSpeed="0.00" departDelay="0.00" arrival="45.00" arrivalLane="1235147073.116_0" arrivalPos="2.74" arrivalSpeed="15.80" duration="30.00" routeLength="245.82" waitingTime="0.00" waitingCount="0" stopTime="0.00" timeLoss="14.52" rerouteNo="0" devices="tripinfo_flow_route_8_duration_20250327_1940.2" vType="car" speedFactor="1.13" vaporized=""/>
    <tripinfo id="flow_route_11_duration_20250327_1940.0" depart="0.00" departLane="1252820505#0_0" departPos="76.11" departSpeed="0.00" departDelay="0.00" arrival="46.00" arrivalLane="137406408#0_2" arrivalPos="68.60" arrivalSpeed="12.35" duration="46.00" routeLength="154.08" waitingTime="17.00" waitingCount="1" stopTime="0.00" timeLoss="36.70" rerouteNo="0" devices="tripinfo_flow_route_11_duration_20250327_1940.0" vType="car" speedFactor="1.05" vaporized=""/>
    <tripinfo id="flow_route_11_duration_20250327_1940.1" depart="12.00" departLane="1252820505#0_0" departPos="55.77" departSpeed="0.00" departDelay="0.00" arrival="47.00" arrivalLane="137406408#0_2" arrivalPos="45.46" arrivalSpeed="11.59" duration="35.00" routeLength="151.27" waitingTime="4.00" waitingCount="1" stopTime="0.00" timeLoss="23.80" rerouteNo="0" devices="tripinfo_flow_route_11_duration_20250327_1940.1" vType="car" speedFactor="0.89" vaporized=""/>
    <tripinfo id="flow_route_10_duration_20250327_1940.3" depart="20.00" departLane="1252820505#0_0" departPos="26.31" departSpeed="0.00" departDelay="0.00" arrival="47.00" arrivalLane="1235147073.116_1" arrivalPos="12.64" arrivalSpeed="16.25" duration="27.00" routeLength="254.06" waitingTime="0.00" waitingCount="0" stopTime="0.00" timeLoss="10.94" rerouteNo="0" devices="tripinfo_flow_route_10_duration_20250327_1940.3" vType="car" speedFactor="1.02" vaporized=""/>
    <tripinfo id="flow_route_8_duration_20250327_1940.1" depart="8.00" departLane="133000078#0_0" departPos="46.07" departSpeed="0.00" departDelay="0.50" arrival="48.00" arrivalLane="1235147073.116_0" arrivalPos="1.98" arrivalSpeed="14.62" duration="40.00" routeLength="316.09" waitingTime="0.00" waitingCount="0" stopTime="0.00" timeLoss="17.50" rerouteNo="0" devices="tripinfo_flow_route_8_duration_20250327_1940.1" vType="car" speedFactor="0.88" vaporized=""/>
    <tripinfo id="flow_route_6_duration_20250327_1940.3" depart="26.00" departLane="1252820505#0_0" departPos="67.88" departSpeed="0.00" departDelay="0.29" arrival="48.00" arrivalLane="379698350#0_0" arrivalPos="96.17" arrivalSpeed="16.56" duration="22.00" routeLength="187.66" waitingTime="0.00" waitingCount="0" stopTime="0.00" timeLoss="10.47" rerouteNo="0" devices="tripinfo_flow_route_6_duration_20250327_1940.3" vType="car" speedFactor="1.04" vaporized=""/>
    <tripinfo id="flow_route_11_duration_20250327_1940.2" depart="24.00" departLane="1252820505#0_0" departPos="60.80" departSpeed="0.00" departDelay="0.00" arrival="52.00" arrivalLane="137406408#0_2" arrivalPos="89.67" arrivalSpeed="14.17" duration="28.00" routeLength="190.45" waitingTime="0.00" waitingCount="0" stopTime="0.00" timeLoss="15.90" rerouteNo="0" devices="tripinfo_flow_route_11_duration_20250327_1940.2" vType="car" speedFactor="1.09" vaporized=""/>
    <tripinfo id="flow_route_5_duration_20250327_1940.0" depart="0.00" departLane="291974733#0_0" departPos="43.68" departSpeed="0.00" departDelay="0.00" arrival="57.00" arrivalLane="1342054204_0" arrivalPos="62.15" arrivalSpeed="13.83" duration="57.00" routeLength="156.72" waitingTime="27.00" waitingCount="1" stopTime="0.00" timeLoss="45.37" rerouteNo="0" devices="tripinfo_flow_route_5_duration_20250327_1940.0" vType="car" speedFactor="0.94" vaporized=""/>
    <tripinfo id="flow_route_23_duration_20250327_1940.1" depart="28.00" departLane="137415945#0_0" departPos="4.73" departSpeed="0.00" departDelay="20.50" arrival="60.00" arrivalLane="379698350#0_2" arrivalPos="84.84" arrivalSpeed="13.83" duration="32.00" routeLength="272.46" waitingTime="0.00" waitingCount="0" stopTime="0.00" timeLoss="14.15" rerouteNo="0" devices="tripinfo_flow_route_23_duration_20250327_1940.1" vType="car" speedFactor="0.94" vaporized=""/>
    <tripinfo id="flow_route_5_duration_20250327_1940.1" depart="10.00" departLane="291974733#0_0" departPos="55.87" departSpeed="0.00" departDelay="0.00" arrival="60.00" arrivalLane="1342054204_0" arrivalPos="70.80" arrivalSpeed="14.58" duration="50.00" routeLength="153.19" waitingTime="21.00" waitingCount="1" stopTime="0.00" timeLoss="39.22" rerouteNo="0" devices="tripinfo_flow_route_5_duration_20250327_1940.1" vType="car" speedFactor="1.02" vaporized=""/>
    <tripinfo id="flow_route_8_duration_20250327_1940.5" depart="38.00" departLane="133000078#0_0" departPos="187.72" departSpeed="0.00" departDelay="0.50" arrival="60.00" arrivalLane="1235147073.116_0" arrivalPos="10.08" arrivalSpeed="16.19" duration="22.00" routeLength="182.54" waitingTime="0.00" waitingCount="0" stopTime="0.00" timeLoss="9.95" rerouteNo="0" devices="tripinfo_flow_route_8_duration_20250327_1940.5" vType="car" speedFactor="1.02" vaporized=""/>
    <tripinfo id="flow_route_5_duration_20250327_1940.3" depart="30.00" departLane="291974733#0_0" departPos="62.15" departSpeed="0.00" departDelay="0.00" arrival="62.00" arrivalLane="1342054204_0" arrivalPos="85.33" arrivalSpeed="14.20" duration="32.00" routeLength="161.43" waitingTime="7.00" waitingCount="1" stopTime="0.00" timeLoss="19.59" rerouteNo="0" devices="tripinfo_flow_route_5_duration_20250327_1940.3" vType="car" speedFactor="0.85" vaporized=""/>
    <tripinfo id="flow_route_8_duration_20250327_1940.4" depart="31.00" departLane="133000078#0_0" departPos="140.58" departSpeed="0.00" departDelay="1.00" arrival="62.00" arrivalLane="1235147073.116_0" arrivalPos="2.35" arrivalSpeed="15.72" duration="31.00" routeLength="221.95" waitingTime="0.00" waitingCount="0" stopTime="0.00" timeLoss="16.69" rerouteNo="0" devices="tripinfo_flow_route_8_duration_20250327_1940.4" vType="car" speedFactor="1.02" vaporized=""/>
    <tripinfo id="flow_route_5_duration_20250327_1940.2" depart="20.00" departLane="291974733#0_0" departPos="2.23" departSpeed="0.00" departDelay="0.00" arrival="63.00" arrivalLane="1342054204_0" arrivalPos="44.73" arrivalSpeed="12.26" duration="43.00" routeLength="180.75" waitingTime="5.00" waitingCount="1" stopTime="0.00" timeLoss="30.87" rerouteNo="0" devices="tripinfo_flow_route_5_duration_20250327_1940.2" vType="car" speedFactor="0.99" vaporized=""/>
    <tripinfo id="flow_route_23_duration_20250327_1940.0" depart="0.00" departLane="137415945#0_0" departPos="0.59" departSpeed="0.00" departDelay="0.00" arrival="64.00" arrivalLane="379698350#0_2" arrivalPos="153.67" arrivalSpeed="14.01" duration="64.00" routeLength="345.44" waitingTime="19.00" waitingCount="1" stopTime="0.00" timeLoss="38.79" rerouteNo="0" devices="tripinfo_flow_route_23_duration_20250327_1940.0" vType="car" speedFactor="0.86" vaporized=""/>
    <tripinfo id="flow_route_5_duration_20250327_1940.4" depart="40.00" departLane="291974733#0_0" departPos="43.37" departSpeed="0.00" departDelay="0.00" arrival="64.00" arrivalLane="1342054204_0" arrivalPos="34.32" arrivalSpeed="12.42" duration="24.00" routeLength="129.20" waitingTime="0.00" waitingCount="0" stopTime="0.00" timeLoss="13.94" rerouteNo="0" devices="tripinfo_flow_route_5_duration_20250327_1940.4" vType="car" speedFactor="0.91" vaporized=""/>
    <tripinfo id="flow_route_8_duration_20250327_1940.3" depart="24.00" departLane="133000078#0_0" departPos="70.80" departSpeed="0.00" departDelay="1.50" arrival="65.00" arrivalLane="1235147073.116_0" arrivalPos="10.88" arrivalSpeed="16.30" duration="41.00" routeLength="300.27" waitingTime="0.00" waitingCount="0" stopTime="0.00" timeLoss="21.28" rerouteNo="0" devices="tripinfo_flow_route_8_duration_20250327_1940.3" vType="car" speedFactor="1.03" vaporized=""/>
    <tripinfo id="flow_route_4_duration_20250327_1940.0" depart="0.00" departLane="291974733#0_0" departPos="63.06" departSpeed="0.00" departDelay="0.00" arrival="66.00" arrivalLane="379698350#0_0" arrivalPos="183.76" arrivalSpeed="16.34" duration="66.00" routeLength="311.60" waitingTime="27.00" waitingCount="1" stopTime="0.00" timeLoss="46.84" rerouteNo="0" devices="tripinfo_flow_route_4_duration_20250327_1940.0" vType="car" speedFactor="1.06" vaporized=""/>
    <tripinfo id="flow_route_8_duration_20250327_1940.6" depart="46.00" departLane="133000078#0_0" departPos="175.67" departSpeed="0.00" departDelay="1.00" arrival="70.00" arrivalLane="1235147073.116_0" arrivalPos="1.50" arrivalSpeed="15.52" duration="24.00" routeLength="186.01" waitingTime="0.00" waitingCount="0" stopTime="0.00" timeLoss="11.19" rerouteNo="0" devices="tripinfo_flow_route_8_duration_20250327_1940.6" vType="car" speedFactor="0.96" vaporized=""/>
    <tripinfo id="flow_route_5_duration_20250327_1940.5" depart="50.00" departLane="291974733#0_0" departPos="11.19" departSpeed="0.00" departDelay="0.00" arrival="77.00" arrivalLane="1342054204_0" arrivalPos="65.38" arrivalSpeed="13.84" duration="27.00" routeLength="192.44" waitingTime="0.00" waitingCount="0" stopTime="0.00" timeLoss="14.49" rerouteNo="0" devices="tripinfo_flow_route_5_duration_20250327_1940.5" vType="car" speedFactor="1.00" vaporized=""/>
    <tripinfo id="flow_route_23_duration_20250327_1940.2" depart="49.00" departLane="137415945#0_0" departPos="5.13" departSpeed="0.00" departDelay="34.00" arrival="82.00" arrivalLane="379698350#0_2" arrivalPos="64.73" arrivalSpeed="12.99" duration="33.00" routeLength="251.95" waitingTime="0.00" waitingCount="0" stopTime="0.00" timeLoss="17.56" rerouteNo="0" devices="tripinfo_flow_route_23_duration_20250327_1940.2" vType="car" speedFactor="1.18" vaporized=""/>
    <tripinfo id="flow_route_8_duration_20250327_1940.7" depart="53.00" departLane="133000078#0_0" departPos="109.09" departSpeed="0.00" departDelay="0.50" arrival="84.00" arrivalLane="1235147073.116_0" arrivalPos="9.26" arrivalSpeed="16.14" duration="31.00" routeLength="260.35" waitingTime="0.00" waitingCount="0" stopTime="0.00" timeLoss="13.29" rerouteNo="0" devices="tripinfo_flow_route_8_duration_20250327_1940.7" vType="car" speedFactor="0.98" vaporized=""/>
    <tripinfo id="flow_route_12_duration_20250327_1940.1" depart="6.00" departLane="133000078#0_0" departPos="157.85" departSpeed="0.00" departDelay="0.55" arrival="89.00" arrivalLane="1342054204_3" arrivalPos="2.83" arrivalSpeed="11.54" duration="83.00" routeLength="142.77" waitingTime="55.00" waitingCount="1" stopTime="0.00" timeLoss="74.31" rerouteNo="0" devices="tripinfo_flow_route_12_duration_20250327_1940.1" vType="car" speedFactor="1.12" vaporized=""/>
    <tripinfo id="flow_route_12_duration_20250327_1940.0" depart="0.00" departLane="133000078#0_0" departPos="66.48" departSpeed="0.00" departDelay="0.00" arrival="93.00" arrivalLane="1342054204_3" arrivalPos="21.59" arrivalSpeed="13.31" duration="93.00" routeLength="252.91" waitingTime="53.00" waitingCount="1" stopTime="0.00" timeLoss="75.68" rerouteNo="0" devices="tripinfo_flow_route_12_duration_20250327_1940.0" vType="car" speedFactor="0.89" vaporized=""/>
    <tripinfo id="flow_route_7_duration_20250327_1940.1" depart="15.00" departLane="133000078#0_0" departPos="17.76" departSpeed="0.00" departDelay="0.00" arrival="93.00" arrivalLane="137406408#0_1" arrivalPos="6.18" arrivalSpeed="11.98" duration="78.00" routeLength="293.22" waitingTime="35.00" waitingCount="1" stopTime="0.00" timeLoss="59.34" rerouteNo="0" devices="tripinfo_flow_route_7_duration_20250327_1940.1" vType="car" speedFactor="0.95" vaporized=""/>
    <tripinfo id="flow_route_7_duration_20250327_1940.0" depart="0.00" departLane="133000078#0_0" departPos="116.92" departSpeed="0.00" departDelay="0.00" arrival="94.00" arrivalLane="137406408#0_1" arrivalPos="45.36" arrivalSpeed="15.09" duration="94.00" routeLength="233.24" waitingTime="57.00" waitingCount="1" stopTime="0.00" timeLoss="79.38" rerouteNo="0" devices="tripinfo_flow_route_7_duration_20250327_1940.0" vType="car" speedFactor="1.08" vaporized=""/>
    <tripinfo id="flow_route_12_duration_20250327_1940.3" depart="18.00" departLane="133000078#0_0" departPos="140.13" departSpeed="0.00" departDelay="1.64" arrival="95.00" arrivalLane="1342054204_3" arrivalPos="15.76" arrivalSpeed="13.72" duration="77.00" routeLength="173.43" waitingTime="46.00" waitingCount="1" stopTime="0.00" timeLoss="65.86" rerouteNo="0" devices="tripinfo_flow_route_12_duration_20250327_1940.3" vType="car" speedFactor="1.15" vaporized=""/>
    <tripinfo id="flow_route_12_duration_20250327_1940.2" depart="11.00" departLane="133000078#0_0" departPos="63.55" departSpeed="0.00" departDelay="0.09" arrival="100.00" arrivalLane="1342054204_3" arrivalPos="60.33" arrivalSpeed="15.86" duration="89.00" routeLength="294.58" waitingTime="46.00" waitingCount="1" stopTime="0.00" timeLoss="69.91" rerouteNo="0" devices="tripinfo_flow_route_12_duration_20250327_1940.2" vType="car" speedFactor="0.97" vaporized=""/>
    <tripinfo id="flow_route_7_duration_20250327_1940.2" depart="31.00" departLane="133000078#0_0" departPos="78.35" departSpeed="0.00" departDelay="1.00" arrival="100.00" arrivalLane="137406408#0_1" arrivalPos="78.04" arrivalSpeed="16.28" duration="69.00" routeLength="304.49" waitingTime="23.00" waitingCount="1" stopTime="0.00" timeLoss="50.01" rerouteNo="0" devices="tripinfo_flow_route_7_duration_20250327_1940.2" vType="car" speedFactor="1.17" vaporized=""/>
    <tripinfo id="flow_route_12_duration_20250327_1940.8" depart="44.00" departLane="133000078#0_0" departPos="163.02" departSpeed="0.00" departDelay="0.37" arrival="101.00" arrivalLane="1342054204_3" arrivalPos="31.97" arrivalSpeed="14.74" duration="57.00" routeLength="166.75" waitingTime="26.00" waitingCount="2" stopTime="0.00" timeLoss="46.36" rerouteNo="0" devices="tripinfo_flow_route_12_duration_20250327_1940.8" vType="car" speedFactor="0.97" vaporized=""/>
    <tripinfo id="flow_route_7_duration_20250327_1940.3" depart="45.00" departLane="133000078#0_0" departPos="40.33" departSpeed="0.00" departDelay="0.00" arrival="102.00" arrivalLane="137406408#0_1" arrivalPos="10.58" arrivalSpeed="14.19" duration="57.00" routeLength="275.05" waitingTime="16.00" waitingCount="1" stopTime="0.00" timeLoss="39.81" rerouteNo="0" devices="tripinfo_flow_route_7_duration_20250327_1940.3" vType="car" speedFactor="1.06" vaporized=""/>
    <tripinfo id="flow_route_12_duration_20250327_1940.6" depart="33.00" departLane="133000078#0_0" departPos="132.38" departSpeed="0.00" departDelay="0.28" arrival="106.00" arrivalLane="1342054204_3" arrivalPos="8.97" arrivalSpeed="13.33" duration="73.00" routeLength="174.39" waitingTime="37.00" waitingCount="2" stopTime="0.00" timeLoss="62.19" rerouteNo="0" devices="tripinfo_flow_route_12_duration_20250327_1940.6" vType="car" speedFactor="1.00" vaporized=""/>
    <tripinfo id="flow_route_12_duration_20250327_1940.4" depart="22.00" departLane="133000078#0_0" departPos="87.78" departSpeed="0.00" departDelay="0.18" arrival="107.00" arrivalLane="1342054204_3" arrivalPos="54.54" arrivalSpeed="15.72" duration="85.00" routeLength="264.56" waitingTime="43.00" waitingCount="2" stopTime="0.00" timeLoss="68.83" rerouteNo="0" devices="tripinfo_flow_route_12_duration_20250327_1940.4" vType="car" speedFactor="1.10" vaporized=""/>
    <tripinfo id="flow_route_12_duration_20250327_1940.5" depart="28.00" departLane="133000078#0_0" departPos="8.79" departSpeed="0.00" departDelay="0.73" arrival="113.00" arrivalLane="1342054204_3" arrivalPos="76.94" arrivalSpeed="14.44" duration="85.00" routeLength="365.94" waitingTime="29.00" waitingCount="1" stopTime="0.00" timeLoss="59.86" rerouteNo="0" devices="tripinfo_flow_route_12_duration_20250327_1940.5" vType="car" speedFactor="0.88" vaporized=""/>
    <tripinfo id="flow_route_12_duration_20250327_1940.9" depart="50.00" departLane="133000078#0_0" departPos="94.09" departSpeed="0.00" departDelay="0.91" arrival="114.00" arrivalLane="1342054204_3" arrivalPos="64.64" arrivalSpeed="15.23" duration="64.00" routeLength="268.35" waitingTime="18.00" waitingCount="1" stopTime="0.00" timeLoss="47.44" rerouteNo="0" devices="tripinfo_flow_route_12_duration_20250327_1940.9" vType="car" speedFactor="1.02" vaporized=""/>
    <tripinfo id="flow_route_12_duration_20250327_1940.7" depart="41.00" departLane="133000078#0_0" departPos="31.66" departSpeed="0.00" departDelay="2.82" arrival="116.00" arrivalLane="1342054204_3" arrivalPos="35.93" arrivalSpeed="14.61" duration="75.00" routeLength="302.06" waitingTime="18.00" waitingCount="1" stopTime="0.00" timeLoss="55.38" rerouteNo="0" devices="tripinfo_flow_route_12_duration_20250327_1940.7" vType="car" speedFactor="0.94" vaporized=""/>
    <tripinfo id="flow_route_12_duration_20250327_1940.10" depart="55.00" departLane="133000078#0_0" departPos="45.82" departSpeed="0.00" departDelay="0.46" arrival="121.00" arrivalLane="1342054204_3" arrivalPos="82.18" arrivalSpeed="16.53" duration="66.00" routeLength="334.15" waitingTime="12.00" waitingCount="1" stopTime="0.00" timeLoss="45.30" rerouteNo="0" devices="tripinfo_flow_route_12_duration_20250327_1940.10" vType="car" speedFactor="1.02" vaporized=""/>
    <tripinfo id="flow_route_22_duration_20250327_1940.3" depart="21.00" departLane="137415945#0_0" departPos="1.33" departSpeed="0.00" departDelay="13.80" arrival="139.00" arrivalLane="1342054204_1" arrivalPos="10.94" arrivalSpeed="10.72" duration="118.00" routeLength="202.93" waitingTime="81.00" waitingCount="1" stopTime="0.00" timeLoss="104.56" rerouteNo="0" devices="tripinfo_flow_route_22_duration_20250327_1940.3" vType="car" speedFactor="0.94" vaporized=""/>
    <tripinfo id="flow_route_22_duration_20250327_1940.4" depart="31.00" departLane="137415945#0_0" departPos="7.50" departSpeed="0.00" departDelay="21.40" arrival="140.00" arrivalLane="1342054204_1" arrivalPos="7.77" arrivalSpeed="10.39" duration="109.00" routeLength="193.60" waitingTime="74.00" waitingCount="1" stopTime="0.00" timeLoss="97.25" rerouteNo="0" devices="tripinfo_flow_route_22_duration_20250327_1940.4" vType="car" speedFactor="1.01" vaporized=""/>
    <tripinfo id="flow_route_22_duration_20250327_1940.2" depart="12.00" departLane="137415945#0_0" departPos="2.14" departSpeed="0.00" departDelay="7.20" arrival="141.00" arrivalLane="1342054204_0" arrivalPos="34.59" arrivalSpeed="13.01" duration="129.00" routeLength="225.78" waitingTime="93.00" waitingCount="1" stopTime="0.00" timeLoss="114.63" rerouteNo="0" devices="tripinfo_flow_route_22_duration_20250327_1940.2" vType="car" speedFactor="1.05" vaporized=""/>
    <tripinfo id="flow_route_24_duration_20250327_1940.2" depart="38.00" departLane="137415945#0_0" departPos="0.15" departSpeed="0.00" departDelay="24.67" arrival="144.00" arrivalLane="137406408#0_0" arrivalPos="25.74" arrivalSpeed="11.48" duration="106.00" routeLength="194.59" waitingTime="71.00" waitingCount="1" stopTime="0.00" timeLoss="92.61" rerouteNo="0" devices="tripinfo_flow_route_24_duration_20250327_1940.2" vType="car" speedFactor="0.92" vaporized=""/>
    <tripinfo id="flow_route_22_duration_20250327_1940.7" depart="52.00" departLane="137415945#0_0" departPos="5.48" departSpeed="0.00" departDelay="35.20" arrival="144.00" arrivalLane="1342054204_1" arrivalPos="4.09" arrivalSpeed="11.82" duration="92.00" routeLength="191.94" waitingTime="58.00" waitingCount="1" stopTime="0.00" timeLoss="80.02" rerouteNo="0" devices="tripinfo_flow_route_22_duration_20250327_1940.7" vType="car" speedFactor="1.01" vaporized=""/>
    <tripinfo id="flow_route_24_duration_20250327_1940.1" depart="17.00" departLane="137415945#0_0" departPos="1.02" departSpeed="0.00" departDelay="10.33" arrival="145.00" arrivalLane="137406408#0_0" arrivalPos="88.29" arrivalSpeed="14.68" duration="128.00" routeLength="256.27" waitingTime="88.00" waitingCount="1" stopTime="0.00" timeLoss="110.26" rerouteNo="0" devices="tripinfo_flow_route_24_duration_20250327_1940.1" vType="car" speedFactor="0.93" vaporized=""/>
    <tripinfo id="flow_route_22_duration_20250327_1940.5" depart="34.00" departLane="137415945#0_0" departPos="0.19" departSpeed="0.00" departDelay="22.00" arrival="146.00" arrivalLane="1342054204_0" arrivalPos="50.60" arrivalSpeed="13.64" duration="112.00" routeLength="243.74" waitingTime="74.00" waitingCount="1" stopTime="0.00" timeLoss="93.90" rerouteNo="0" devices="tripinfo_flow_route_22_duration_20250327_1940.5" vType="car" speedFactor="0.83" vaporized=""/>
    <tripinfo id="flow_route_10_duration_20250327_1940.4" depart="27.00" departLane="1252820505#0_0" departPos="12.27" departSpeed="0.00" departDelay="0.34" arrival="146.00" arrivalLane="1235147073.116_1" arrivalPos="4.31" arrivalSpeed="16.40" duration="119.00" routeLength="259.78" waitingTime="82.00" waitingCount="1" stopTime="0.00" timeLoss="102.69" rerouteNo="0" devices="tripinfo_flow_route_10_duration_20250327_1940.4" vType="car" speedFactor="1.09" vaporized=""/>
    <tripinfo id="flow_route_10_duration_20250327_1940.5" depart="34.00" departLane="1252820505#0_0" departPos="77.12" departSpeed="0.00" departDelay="0.67" arrival="147.00" arrivalLane="1235147073.116_0" arrivalPos="12.57" arrivalSpeed="14.88" duration="113.00" routeLength="203.19" waitingTime="84.00" waitingCount="1" stopTime="0.00" timeLoss="98.91" rerouteNo="0" devices="tripinfo_flow_route_10_duration_20250327_1940.5" vType="car" speedFactor="0.90" vaporized=""/>
    <tripinfo id="flow_route_10_duration_20250327_1940.7" depart="49.00" departLane="1252820505#0_0" departPos="49.51" departSpeed="0.00" departDelay="2.34" arrival="147.00" arrivalLane="1235147073.116_2" arrivalPos="7.13" arrivalSpeed="16.20" duration="98.00" routeLength="225.36" waitingTime="64.00" waitingCount="1" stopTime="0.00" timeLoss="83.45" rerouteNo="0" devices="tripinfo_flow_route_10_duration_20250327_1940.7" vType="car" speedFactor="0.98" vaporized=""/>
    <tripinfo id="flow_route_6_duration_20250327_1940.6" depart="53.00" departLane="1252820505#0_0" departPos="9.53" departSpeed="0.00" departDelay="1.57" arrival="147.00" arrivalLane="379698350#0_0" arrivalPos="17.54" arrivalSpeed="12.70" duration="94.00" routeLength="167.38" waitingTime="63.00" waitingCount="1" stopTime="0.00" timeLoss="83.80" rerouteNo="0" devices="tripinfo_flow_route_6_duration_20250327_1940.6" vType="car" speedFactor="1.15" vaporized=""/>
    <tripinfo id="flow_route_10_duration_20250327_1940.8" depart="54.00" departLane="1252820505#0_0" departPos="47.43" departSpeed="0.00" departDelay="0.67" arrival="147.00" arrivalLane="1235147073.116_1" arrivalPos="0.18" arrivalSpeed="16.33" duration="93.00" routeLength="220.49" waitingTime="61.00" waitingCount="1" stopTime="0.00" timeLoss="79.43" rerouteNo="0" devices="tripinfo_flow_route_10_duration_20250327_1940.8" vType="car" speedFactor="1.01" vaporized=""/>
    <tripinfo id="flow_route_22_duration_20250327_1940.6" depart="44.00" departLane="137415945#0_0" departPos="2.01" departSpeed="0.00" departDelay="29.60" arrival="148.00" arrivalLane="1342054204_1" arrivalPos="86.56" arrivalSpeed="15.48" duration="104.00" routeLength="277.88" waitingTime="64.00" waitingCount="1" stopTime="0.00" timeLoss="85.92" rerouteNo="0" devices="tripinfo_flow_route_22_duration_20250327_1940.6" vType="car" speedFactor="0.93" vaporized=""/>
    <tripinfo id="flow_route_24_duration_20250327_1940.3" depart="62.00" departLane="137415945#0_0" departPos="3.94" departSpeed="0.00" departDelay="42.00" arrival="149.00" arrivalLane="137406408#0_0" arrivalPos="38.51" arrivalSpeed="13.66" duration="87.00" routeLength="203.56" waitingTime="51.00" waitingCount="1" stopTime="0.00" timeLoss="74.23" rerouteNo="0" devices="tripinfo_flow_route_24_duration_20250327_1940.3" vType="car" speedFactor="1.18" vaporized=""/>
    <tripinfo id="flow_route_6_duration_20250327_1940.4" depart="35.00" departLane="1252820505#0_0" departPos="14.56" departSpeed="0.00" departDelay="0.72" arrival="149.00" arrivalLane="379698350#0_0" arrivalPos="99.55" arrivalSpeed="16.09" duration="114.00" routeLength="244.36" waitingTime="76.00" waitingCount="1" stopTime="0.00" timeLoss="98.84" rerouteNo="0" devices="tripinfo_flow_route_6_duration_20250327_1940.4" vType="car" speedFactor="0.97" vaporized=""/>