<?xml version="1.0" encoding="UTF-8"?>

<!-- generated on 2025-05-06 16:34:00 by Eclipse SUMO sumo Version 1.20.0
<configuration xmlns:xsi="http://www.w3.org/2001/XMLSchema-instance" xsi:noNamespaceSchemaLocation="http://sumo.dlr.de/xsd/sumoConfiguration.xsd">

    <input>
        <net-file value="osm.net.xml"/>
        <route-files value="xml/routes_ddpg_cluster7571105647_7571105653_cluster_1141265322_11869698130_256036890_4227138136_#4more.rou.xml"/>
    </input>

    <output>
        <tripinfo-output value="xml/tripinfo_42369.xml"/>
    </output>

    <traci_server>
        <remote-port value="52371"/>
    </traci_server>

</configuration>
-->

<tripinfos xmlns:xsi="http://www.w3.org/2001/XMLSchema-instance" xsi:noNamespaceSchemaLocation="http://sumo.dlr.de/xsd/tripinfo_file.xsd">
    <tripinfo id="flow_route_143_duration_20250327_2020.0" depart="0.00" departLane="1253222187#0_0" departPos="157.10" departSpeed="0.00" departDelay="0.00" arrival="28.00" arrivalLane="1310781056_0" arrivalPos="55.73" arrivalSpeed="16.37" duration="28.00" routeLength="267.13" waitingTime="0.00" waitingCount="0" stopTime="0.00" timeLoss="11.65" rerouteNo="0" devices="tripinfo_flow_route_143_duration_20250327_2020.0" vType="car" speedFactor="1.08" vaporized=""/>
    <tripinfo id="flow_route_140_duration_20250327_2020.2" depart="10.00" departLane="809719540#0_0" departPos="184.01" departSpeed="0.00" departDelay="0.77" arrival="31.00" arrivalLane="-809772643#1_0" arrivalPos="32.90" arrivalSpeed="10.98" duration="21.00" routeLength="156.34" waitingTime="0.00" waitingCount="0" stopTime="0.00" timeLoss="11.27" rerouteNo="0" devices="tripinfo_flow_route_140_duration_20250327_2020.2" vType="car" speedFactor="1.05" vaporized=""/>
    <tripinfo id="flow_route_140_duration_20250327_2020.0" depart="0.00" departLane="809719540#0_0" departPos="199.64" departSpeed="0.00" departDelay="0.00" arrival="40.00" arrivalLane="-809772643#1_0" arrivalPos="184.22" arrivalSpeed="16.27" duration="40.00" routeLength="292.04" waitingTime="1.00" waitingCount="1" stopTime="0.00" timeLoss="21.77" rerouteNo="0" devices="tripinfo_flow_route_140_duration_20250327_2020.0" vType="car" speedFactor="1.06" vaporized=""/>
    <tripinfo id="flow_route_142_duration_20250327_2020.1" depart="4.00" departLane="1253222187#0_0" departPos="184.61" departSpeed="0.00" departDelay="0.84" arrival="53.00" arrivalLane="683079388#0_0" arrivalPos="6.83" arrivalSpeed="16.14" duration="49.00" routeLength="620.53" waitingTime="0.00" waitingCount="0" stopTime="0.00" timeLoss="10.73" rerouteNo="0" devices="tripinfo_flow_route_142_duration_20250327_2020.1" vType="car" speedFactor="1.05" vaporized=""/>
    <tripinfo id="flow_route_143_duration_20250327_2020.2" depart="14.00" departLane="1253222187#0_0" departPos="140.87" departSpeed="0.00" departDelay="0.67" arrival="54.00" arrivalLane="1310781056_0" arrivalPos="64.82" arrivalSpeed="16.47" duration="40.00" routeLength="292.45" waitingTime="2.00" waitingCount="1" stopTime="0.00" timeLoss="21.34" rerouteNo="0" devices="tripinfo_flow_route_143_duration_20250327_2020.2" vType="car" speedFactor="0.94" vaporized=""/>
    <tripinfo id="flow_route_146_duration_20250327_2020.0" depart="0.00" departLane="683079387#1_0" departPos="0.06" departSpeed="0.00" departDelay="0.00" arrival="55.00" arrivalLane="-809772643#1_0" arrivalPos="121.98" arrivalSpeed="16.16" duration="55.00" routeLength="734.89" waitingTime="0.00" waitingCount="0" stopTime="0.00" timeLoss="9.96" rerouteNo="0" devices="tripinfo_flow_route_146_duration_20250327_2020.0" vType="car" speedFactor="1.03" vaporized=""/>
    <tripinfo id="flow_route_140_duration_20250327_2020.7" depart="33.00" departLane="809719540#0_0" departPos="209.78" departSpeed="0.00" departDelay="0.70" arrival="60.00" arrivalLane="-809772643#1_0" arrivalPos="20.99" arrivalSpeed="10.05" duration="27.00" routeLength="118.66" waitingTime="1.00" waitingCount="1" stopTime="0.00" timeLoss="19.79" rerouteNo="0" devices="tripinfo_flow_route_140_duration_20250327_2020.7" vType="car" speedFactor="1.02" vaporized=""/>
    <tripinfo id="flow_route_140_duration_20250327_2020.6" depart="28.00" departLane="809719540#0_0" departPos="167.94" departSpeed="0.00" departDelay="0.31" arrival="61.00" arrivalLane="-809772643#1_0" arrivalPos="4.93" arrivalSpeed="9.40" duration="33.00" routeLength="144.44" waitingTime="0.00" waitingCount="0" stopTime="0.00" timeLoss="23.99" rerouteNo="0" devices="tripinfo_flow_route_140_duration_20250327_2020.6" vType="car" speedFactor="1.15" vaporized=""/>
    <tripinfo id="flow_route_140_duration_20250327_2020.1" depart="5.00" departLane="809719540#0_0" departPos="12.41" departSpeed="0.00" departDelay="0.39" arrival="63.00" arrivalLane="-809772643#1_0" arrivalPos="66.57" arrivalSpeed="12.49" duration="58.00" routeLength="361.61" waitingTime="12.00" waitingCount="1" stopTime="0.00" timeLoss="32.86" rerouteNo="0" devices="tripinfo_flow_route_140_duration_20250327_2020.1" vType="car" speedFactor="0.89" vaporized=""/>
    <tripinfo id="flow_route_141_duration_20250327_2020.1" depart="9.00" departLane="809719540#0_0" departPos="205.35" departSpeed="0.00" departDelay="0.43" arrival="64.00" arrivalLane="683079387#1_1" arrivalPos="0.33" arrivalSpeed="6.17" duration="55.00" routeLength="697.57" waitingTime="0.00" waitingCount="0" stopTime="0.00" timeLoss="11.14" rerouteNo="0" devices="tripinfo_flow_route_141_duration_20250327_2020.1" vType="car" speedFactor="1.03" vaporized=""/>
    <tripinfo id="flow_route_140_duration_20250327_2020.3" depart="14.00" departLane="809719540#0_0" departPos="23.91" departSpeed="0.00" departDelay="0.16" arrival="66.00" arrivalLane="-809772643#1_1" arrivalPos="34.73" arrivalSpeed="11.00" duration="52.00" routeLength="321.09" waitingTime="0.00" waitingCount="0" stopTime="0.00" timeLoss="29.75" rerouteNo="0" devices="tripinfo_flow_route_140_duration_20250327_2020.3" vType="car" speedFactor="0.88" vaporized=""/>
    <tripinfo id="flow_route_140_duration_20250327_2020.5" depart="25.00" departLane="809719540#0_0" departPos="57.04" departSpeed="0.00" departDelay="1.93" arrival="66.00" arrivalLane="-809772643#1_1" arrivalPos="16.54" arrivalSpeed="9.43" duration="41.00" routeLength="269.78" waitingTime="0.00" waitingCount="0" stopTime="0.00" timeLoss="23.30" rerouteNo="0" devices="tripinfo_flow_route_140_duration_20250327_2020.5" vType="car" speedFactor="0.92" vaporized=""/>
    <tripinfo id="flow_route_141_duration_20250327_2020.0" depart="0.00" departLane="809719540#0_0" departPos="66.48" departSpeed="0.00" departDelay="0.00" arrival="70.00" arrivalLane="683079387#1_1" arrivalPos="7.27" arrivalSpeed="7.42" duration="70.00" routeLength="836.36" waitingTime="0.00" waitingCount="0" stopTime="0.00" timeLoss="13.17" rerouteNo="0" devices="tripinfo_flow_route_141_duration_20250327_2020.0" vType="car" speedFactor="0.94" vaporized=""/>
    <tripinfo id="flow_route_143_duration_20250327_2020.1" depart="8.00" departLane="1253222187#0_0" departPos="49.91" departSpeed="0.00" departDelay="1.33" arrival="73.00" arrivalLane="1310781056_0" arrivalPos="106.49" arrivalSpeed="16.37" duration="65.00" routeLength="425.08" waitingTime="11.00" waitingCount="2" stopTime="0.00" timeLoss="38.71" rerouteNo="0" devices="tripinfo_flow_route_143_duration_20250327_2020.1" vType="car" speedFactor="1.09" vaporized=""/>
    <tripinfo id="flow_route_146_duration_20250327_2020.2" depart="15.00" departLane="683079387#1_0" departPos="7.31" departSpeed="0.00" departDelay="5.77" arrival="75.00" arrivalLane="-809772643#1_0" arrivalPos="6.17" arrivalSpeed="10.17" duration="60.00" routeLength="611.83" waitingTime="1.00" waitingCount="1" stopTime="0.00" timeLoss="22.95" rerouteNo="0" devices="tripinfo_flow_route_146_duration_20250327_2020.2" vType="car" speedFactor="0.99" vaporized=""/>
    <tripinfo id="flow_route_146_duration_20250327_2020.4" depart="23.00" departLane="683079387#1_0" departPos="1.84" departSpeed="0.00" departDelay="4.54" arrival="77.00" arrivalLane="-809772643#1_0" arrivalPos="5.76" arrivalSpeed="10.88" duration="54.00" routeLength="616.88" waitingTime="0.00" waitingCount="0" stopTime="0.00" timeLoss="12.21" rerouteNo="0" devices="tripinfo_flow_route_146_duration_20250327_2020.4" vType="car" speedFactor="0.89" vaporized=""/>
    <tripinfo id="flow_route_142_duration_20250327_2020.0" depart="0.00" departLane="1253222187#0_0" departPos="114.97" departSpeed="0.00" departDelay="0.00" arrival="78.00" arrivalLane="683079388#0_0" arrivalPos="1.17" arrivalSpeed="16.33" duration="78.00" routeLength="684.52" waitingTime="13.00" waitingCount="1" stopTime="0.00" timeLoss="35.99" rerouteNo="0" devices="tripinfo_flow_route_142_duration_20250327_2020.0" vType="car" speedFactor="1.01" vaporized=""/>
    <tripinfo id="flow_route_142_duration_20250327_2020.5" depart="18.00" departLane="1253222187#0_0" departPos="201.33" departSpeed="0.00" departDelay="2.22" arrival="78.00" arrivalLane="683079388#0_1" arrivalPos="17.86" arrivalSpeed="16.12" duration="60.00" routeLength="614.84" waitingTime="6.00" waitingCount="1" stopTime="0.00" timeLoss="22.64" rerouteNo="0" devices="tripinfo_flow_route_142_duration_20250327_2020.5" vType="car" speedFactor="1.16" vaporized=""/>
    <tripinfo id="flow_route_147_duration_20250327_2020.0" depart="4.00" departLane="683079387#1_0" departPos="0.62" departSpeed="0.00" departDelay="4.00" arrival="79.00" arrivalLane="1310781056_0" arrivalPos="4.95" arrivalSpeed="13.01" duration="75.00" routeLength="684.16" waitingTime="6.00" waitingCount="1" stopTime="0.00" timeLoss="25.53" rerouteNo="0" devices="tripinfo_flow_route_147_duration_20250327_2020.0" vType="car" speedFactor="0.83" vaporized=""/>
    <tripinfo id="flow_route_146_duration_20250327_2020.3" depart="18.00" departLane="683079387#1_0" departPos="1.72" departSpeed="0.00" departDelay="4.16" arrival="80.00" arrivalLane="-809772643#1_1" arrivalPos="49.91" arrivalSpeed="12.45" duration="62.00" routeLength="661.16" waitingTime="0.00" waitingCount="0" stopTime="0.00" timeLoss="19.24" rerouteNo="0" devices="tripinfo_flow_route_146_duration_20250327_2020.3" vType="car" speedFactor="0.94" vaporized=""/>
    <tripinfo id="flow_route_142_duration_20250327_2020.3" depart="10.00" departLane="1253222187#0_0" departPos="69.85" departSpeed="0.00" departDelay="0.53" arrival="81.00" arrivalLane="683079388#0_0" arrivalPos="24.70" arrivalSpeed="16.23" duration="71.00" routeLength="753.16" waitingTime="1.00" waitingCount="1" stopTime="0.00" timeLoss="24.87" rerouteNo="0" devices="tripinfo_flow_route_142_duration_20250327_2020.3" vType="car" speedFactor="1.12" vaporized=""/>
    <tripinfo id="flow_route_146_duration_20250327_2020.1" depart="9.00" departLane="683079387#1_0" departPos="3.08" departSpeed="0.00" departDelay="4.39" arrival="84.00" arrivalLane="-809772643#1_1" arrivalPos="141.34" arrivalSpeed="15.43" duration="75.00" routeLength="751.23" waitingTime="2.00" waitingCount="1" stopTime="0.00" timeLoss="26.54" rerouteNo="0" devices="tripinfo_flow_route_146_duration_20250327_2020.1" vType="car" speedFactor="0.94" vaporized=""/>
    <tripinfo id="flow_route_142_duration_20250327_2020.2" depart="8.00" departLane="1253222187#0_0" departPos="114.76" departSpeed="0.00" departDelay="1.69" arrival="84.00" arrivalLane="683079388#0_0" arrivalPos="16.36" arrivalSpeed="14.11" duration="76.00" routeLength="699.90" waitingTime="1.00" waitingCount="1" stopTime="0.00" timeLoss="26.71" rerouteNo="0" devices="tripinfo_flow_route_142_duration_20250327_2020.2" vType="car" speedFactor="0.86" vaporized=""/>
    <tripinfo id="flow_route_142_duration_20250327_2020.4" depart="13.00" departLane="1253222187#0_0" departPos="47.05" departSpeed="0.00" departDelay="0.37" arrival="85.00" arrivalLane="683079388#0_2" arrivalPos="24.90" arrivalSpeed="15.00" duration="72.00" routeLength="776.17" waitingTime="0.00" waitingCount="0" stopTime="0.00" timeLoss="20.92" rerouteNo="0" devices="tripinfo_flow_route_142_duration_20250327_2020.4" vType="car" speedFactor="0.93" vaporized=""/>
    <tripinfo id="flow_route_142_duration_20250327_2020.6" depart="20.00" departLane="1253222187#0_0" departPos="37.74" departSpeed="0.00" departDelay="1.06" arrival="85.00" arrivalLane="683079388#0_2" arrivalPos="3.92" arrivalSpeed="15.58" duration="65.00" routeLength="764.49" waitingTime="0.00" waitingCount="0" stopTime="0.00" timeLoss="17.30" rerouteNo="0" devices="tripinfo_flow_route_142_duration_20250327_2020.6" vType="car" speedFactor="0.97" vaporized=""/>
    <tripinfo id="flow_route_146_duration_20250327_2020.5" depart="28.00" departLane="683079387#1_0" departPos="1.07" departSpeed="0.00" departDelay="4.93" arrival="89.00" arrivalLane="-809772643#1_0" arrivalPos="149.26" arrivalSpeed="15.56" duration="61.00" routeLength="761.16" waitingTime="0.00" waitingCount="0" stopTime="0.00" timeLoss="11.94" rerouteNo="0" devices="tripinfo_flow_route_146_duration_20250327_2020.5" vType="car" speedFactor="0.95" vaporized=""/>
    <tripinfo id="flow_route_140_duration_20250327_2020.4" depart="19.00" departLane="809719540#0_0" departPos="74.90" departSpeed="0.00" departDelay="0.54" arrival="98.00" arrivalLane="-809772643#1_1" arrivalPos="132.67" arrivalSpeed="16.55" duration="79.00" routeLength="368.05" waitingTime="15.00" waitingCount="1" stopTime="0.00" timeLoss="55.96" rerouteNo="0" devices="tripinfo_flow_route_140_duration_20250327_2020.4" vType="car" speedFactor="1.01" vaporized=""/>
    <tripinfo id="flow_route_140_duration_20250327_2020.12" depart="56.00" departLane="809719540#0_0" departPos="22.72" departSpeed="0.00" departDelay="0.62" arrival="98.00" arrivalLane="-809772643#1_0" arrivalPos="45.62" arrivalSpeed="13.11" duration="42.00" routeLength="330.35" waitingTime="0.00" waitingCount="0" stopTime="0.00" timeLoss="21.07" rerouteNo="0" devices="tripinfo_flow_route_140_duration_20250327_2020.12" vType="car" speedFactor="0.97" vaporized=""/>
    <tripinfo id="flow_route_140_duration_20250327_2020.11" depart="51.00" departLane="809719540#0_0" departPos="212.07" departSpeed="0.00" departDelay="0.24" arrival="100.00" arrivalLane="-809772643#1_0" arrivalPos="165.77" arrivalSpeed="16.27" duration="49.00" routeLength="261.15" waitingTime="12.00" waitingCount="1" stopTime="0.00" timeLoss="32.59" rerouteNo="0" devices="tripinfo_flow_route_140_duration_20250327_2020.11" vType="car" speedFactor="1.10" vaporized=""/>
    <tripinfo id="flow_route_143_duration_20250327_2020.4" depart="28.00" departLane="1253222187#0_0" departPos="184.60" departSpeed="0.00" departDelay="1.34" arrival="101.00" arrivalLane="1310781056_0" arrivalPos="66.34" arrivalSpeed="16.21" duration="73.00" routeLength="250.24" waitingTime="31.00" waitingCount="3" stopTime="0.00" timeLoss="57.25" rerouteNo="0" devices="tripinfo_flow_route_143_duration_20250327_2020.4" vType="car" speedFactor="1.18" vaporized=""/>
    <tripinfo id="flow_route_141_duration_20250327_2020.3" depart="26.00" departLane="809719540#0_0" departPos="137.74" departSpeed="0.00" departDelay="0.29" arrival="102.00" arrivalLane="683079387#1_1" arrivalPos="4.32" arrivalSpeed="6.99" duration="76.00" routeLength="769.16" waitingTime="0.00" waitingCount="0" stopTime="0.00" timeLoss="28.03" rerouteNo="0" devices="tripinfo_flow_route_141_duration_20250327_2020.3" vType="car" speedFactor="1.13" vaporized=""/>
    <tripinfo id="flow_route_140_duration_20250327_2020.8" depart="38.00" departLane="809719540#0_0" departPos="74.48" departSpeed="0.00" departDelay="1.08" arrival="102.00" arrivalLane="-809772643#1_0" arrivalPos="174.81" arrivalSpeed="16.57" duration="64.00" routeLength="407.78" waitingTime="11.00" waitingCount="1" stopTime="0.00" timeLoss="39.37" rerouteNo="0" devices="tripinfo_flow_route_140_duration_20250327_2020.8" vType="car" speedFactor="1.03" vaporized=""/>
    <tripinfo id="flow_route_141_duration_20250327_2020.2" depart="18.00" departLane="809719540#0_0" departPos="49.25" departSpeed="0.00" departDelay="0.86" arrival="105.00" arrivalLane="683079387#1_1" arrivalPos="5.92" arrivalSpeed="6.91" duration="87.00" routeLength="852.23" waitingTime="0.00" waitingCount="0" stopTime="0.00" timeLoss="32.77" rerouteNo="0" devices="tripinfo_flow_route_141_duration_20250327_2020.2" vType="car" speedFactor="1.02" vaporized=""/>
    <tripinfo id="flow_route_140_duration_20250327_2020.9" depart="49.00" departLane="809719540#0_0" departPos="55.74" departSpeed="0.00" departDelay="7.47" arrival="106.00" arrivalLane="-809772643#1_1" arrivalPos="195.34" arrivalSpeed="16.13" duration="57.00" routeLength="449.89" waitingTime="6.00" waitingCount="1" stopTime="0.00" timeLoss="29.63" rerouteNo="0" devices="tripinfo_flow_route_140_duration_20250327_2020.9" vType="car" speedFactor="1.04" vaporized=""/>
    <tripinfo id="flow_route_140_duration_20250327_2020.10" depart="50.00" departLane="809719540#0_0" departPos="119.42" departSpeed="0.00" departDelay="3.85" arrival="106.00" arrivalLane="-809772643#1_0" arrivalPos="176.01" arrivalSpeed="13.99" duration="56.00" routeLength="364.04" waitingTime="9.00" waitingCount="1" stopTime="0.00" timeLoss="29.48" rerouteNo="0" devices="tripinfo_flow_route_140_duration_20250327_2020.10" vType="car" speedFactor="0.85" vaporized=""/>
    <tripinfo id="flow_route_146_duration_20250327_2020.9" depart="49.00" departLane="683079387#1_0" departPos="1.57" departSpeed="0.00" departDelay="7.47" arrival="107.00" arrivalLane="-809772643#1_1" arrivalPos="3.02" arrivalSpeed="9.77" duration="58.00" routeLength="614.43" waitingTime="0.00" waitingCount="0" stopTime="0.00" timeLoss="20.75" rerouteNo="0" devices="tripinfo_flow_route_146_duration_20250327_2020.9" vType="car" speedFactor="1.00" vaporized=""/>
    <tripinfo id="flow_route_142_duration_20250327_2020.10" depart="32.00" departLane="1253222187#0_0" departPos="147.48" departSpeed="0.00" departDelay="0.43" arrival="108.00" arrivalLane="683079388#0_0" arrivalPos="7.65" arrivalSpeed="16.09" duration="76.00" routeLength="658.48" waitingTime="15.00" waitingCount="1" stopTime="0.00" timeLoss="36.04" rerouteNo="0" devices="tripinfo_flow_route_142_duration_20250327_2020.10" vType="car" speedFactor="0.99" vaporized=""/>
    <tripinfo id="flow_route_146_duration_20250327_2020.6" depart="34.00" departLane="683079387#1_0" departPos="7.27" departSpeed="0.00" departDelay="6.31" arrival="110.00" arrivalLane="-809772643#1_0" arrivalPos="62.59" arrivalSpeed="13.44" duration="76.00" routeLength="668.29" waitingTime="11.00" waitingCount="1" stopTime="0.00" timeLoss="35.54" rerouteNo="0" devices="tripinfo_flow_route_146_duration_20250327_2020.6" vType="car" speedFactor="1.01" vaporized=""/>
    <tripinfo id="flow_route_146_duration_20250327_2020.8" depart="43.00" departLane="683079387#1_0" departPos="1.71" departSpeed="0.00" departDelay="6.08" arrival="110.00" arrivalLane="-809772643#1_0" arrivalPos="31.75" arrivalSpeed="12.34" duration="67.00" routeLength="643.01" waitingTime="3.00" waitingCount="1" stopTime="0.00" timeLoss="26.03" rerouteNo="0" devices="tripinfo_flow_route_146_duration_20250327_2020.8" vType="car" speedFactor="0.96" vaporized=""/>
    <tripinfo id="flow_route_142_duration_20250327_2020.7" depart="23.00" departLane="1253222187#0_0" departPos="9.88" departSpeed="0.00" departDelay="0.90" arrival="112.00" arrivalLane="683079388#0_0" arrivalPos="5.35" arrivalSpeed="14.08" duration="89.00" routeLength="793.78" waitingTime="11.00" waitingCount="1" stopTime="0.00" timeLoss="34.17" rerouteNo="0" devices="tripinfo_flow_route_142_duration_20250327_2020.7" vType="car" speedFactor="0.87" vaporized=""/>
    <tripinfo id="flow_route_146_duration_20250327_2020.7" depart="38.00" departLane="683079387#1_0" departPos="6.01" departSpeed="0.00" departDelay="5.70" arrival="112.00" arrivalLane="-809772643#1_0" arrivalPos="96.42" arrivalSpeed="14.70" duration="74.00" routeLength="703.37" waitingTime="8.00" waitingCount="1" stopTime="0.00" timeLoss="30.61" rerouteNo="0" devices="tripinfo_flow_route_146_duration_20250327_2020.7" vType="car" speedFactor="0.97" vaporized=""/>
    <tripinfo id="flow_route_142_duration_20250327_2020.13" depart="43.00" departLane="1253222187#0_0" departPos="168.24" departSpeed="0.00" departDelay="1.96" arrival="112.00" arrivalLane="683079388#0_2" arrivalPos="14.18" arrivalSpeed="16.55" duration="69.00" routeLength="644.25" waitingTime="9.00" waitingCount="1" stopTime="0.00" timeLoss="29.62" rerouteNo="0" devices="tripinfo_flow_route_142_duration_20250327_2020.13" vType="car" speedFactor="1.09" vaporized=""/>
    <tripinfo id="flow_route_142_duration_20250327_2020.12" depart="38.00" departLane="1253222187#0_0" departPos="143.55" departSpeed="0.00" departDelay="0.12" arrival="114.00" arrivalLane="683079388#0_2" arrivalPos="11.12" arrivalSpeed="16.54" duration="76.00" routeLength="665.88" waitingTime="7.00" waitingCount="1" stopTime="0.00" timeLoss="34.90" rerouteNo="0" devices="tripinfo_flow_route_142_duration_20250327_2020.12" vType="car" speedFactor="1.09" vaporized=""/>
    <tripinfo id="flow_route_146_duration_20250327_2020.10" depart="55.00" departLane="683079387#1_0" departPos="1.95" departSpeed="0.00" departDelay="8.85" arrival="115.00" arrivalLane="-809772643#1_1" arrivalPos="81.35" arrivalSpeed="15.31" duration="60.00" routeLength="692.38" waitingTime="0.00" waitingCount="0" stopTime="0.00" timeLoss="17.89" rerouteNo="0" devices="tripinfo_flow_route_146_duration_20250327_2020.10" vType="car" speedFactor="1.17" vaporized=""/>
    <tripinfo id="flow_route_146_duration_20250327_2020.11" depart="60.00" departLane="683079387#1_0" departPos="0.07" departSpeed="0.00" departDelay="9.24" arrival="117.00" arrivalLane="-809772643#1_0" arrivalPos="119.83" arrivalSpeed="16.18" duration="57.00" routeLength="732.73" waitingTime="0.00" waitingCount="0" stopTime="0.00" timeLoss="12.60" rerouteNo="0" devices="tripinfo_flow_route_146_duration_20250327_2020.11" vType="car" speedFactor="1.00" vaporized=""/>
    <tripinfo id="flow_route_142_duration_20250327_2020.11" depart="37.00" departLane="1253222187#0_0" departPos="72.65" departSpeed="0.00" departDelay="2.27" arrival="118.00" arrivalLane="683079388#0_0" arrivalPos="22.77" arrivalSpeed="14.93" duration="81.00" routeLength="748.44" waitingTime="7.00" waitingCount="1" stopTime="0.00" timeLoss="31.08" rerouteNo="0" devices="tripinfo_flow_route_142_duration_20250327_2020.11" vType="car" speedFactor="0.90" vaporized=""/>
    <tripinfo id="flow_route_143_duration_20250327_2020.3" depart="21.00" departLane="1253222187#0_0" departPos="18.14" departSpeed="0.00" departDelay="1.00" arrival="128.00" arrivalLane="1310781056_0" arrivalPos="7.59" arrivalSpeed="15.75" duration="107.00" routeLength="357.96" waitingTime="49.00" waitingCount="4" stopTime="0.00" timeLoss="82.41" rerouteNo="0" devices="tripinfo_flow_route_143_duration_20250327_2020.3" vType="car" speedFactor="0.83" vaporized=""/>
    <tripinfo id="flow_route_141_duration_20250327_2020.6" depart="53.00" departLane="809719540#0_0" departPos="246.99" departSpeed="0.00" departDelay="1.57" arrival="135.00" arrivalLane="683079387#1_1" arrivalPos="1.00" arrivalSpeed="5.45" duration="82.00" routeLength="656.58" waitingTime="17.00" waitingCount="2" stopTime="0.00" timeLoss="35.14" rerouteNo="0" devices="tripinfo_flow_route_141_duration_20250327_2020.6" vType="car" speedFactor="0.90" vaporized=""/>
    <tripinfo id="flow_route_141_duration_20250327_2020.4" depart="35.00" departLane="809719540#0_0" departPos="11.44" departSpeed="0.00" departDelay="0.72" arrival="137.00" arrivalLane="683079387#1_1" arrivalPos="1.44" arrivalSpeed="6.09" duration="102.00" routeLength="885.56" waitingTime="14.00" waitingCount="1" stopTime="0.00" timeLoss="46.55" rerouteNo="0" devices="tripinfo_flow_route_141_duration_20250327_2020.4" vType="car" speedFactor="1.10" vaporized=""/>
    <tripinfo id="flow_route_142_duration_20250327_2020.17" depart="56.00" departLane="1253222187#0_0" departPos="167.20" departSpeed="0.00" departDelay="2.33" arrival="139.00" arrivalLane="683079388#0_0" arrivalPos="8.28" arrivalSpeed="16.58" duration="83.00" routeLength="639.40" waitingTime="18.00" waitingCount="2" stopTime="0.00" timeLoss="44.20" rerouteNo="0" devices="tripinfo_flow_route_142_duration_20250327_2020.17" vType="car" speedFactor="1.14" vaporized=""/>
    <tripinfo id="flow_route_141_duration_20250327_2020.5" depart="50.00" departLane="809719540#0_0" departPos="194.24" departSpeed="0.00" departDelay="7.15" arrival="142.00" arrivalLane="683079387#1_1" arrivalPos="9.22" arrivalSpeed="6.84" duration="92.00" routeLength="710.55" waitingTime="12.00" waitingCount="1" stopTime="0.00" timeLoss="41.47" rerouteNo="0" devices="tripinfo_flow_route_141_duration_20250327_2020.5" vType="car" speedFactor="0.90" vaporized=""/>
    <tripinfo id="flow_route_142_duration_20250327_2020.18" depart="58.00" departLane="1253222187#0_0" departPos="25.18" departSpeed="0.00" departDelay="1.17" arrival="143.00" arrivalLane="683079388#0_0" arrivalPos="14.71" arrivalSpeed="16.26" duration="85.00" routeLength="787.84" waitingTime="13.00" waitingCount="1" stopTime="0.00" timeLoss="36.99" rerouteNo="0" devices="tripinfo_flow_route_142_duration_20250327_2020.18" vType="car" speedFactor="1.12" vaporized=""/>
    <tripinfo id="flow_route_142_duration_20250327_2020.16" depart="51.00" departLane="1253222187#0_0" departPos="24.18" departSpeed="0.00" departDelay="0.49" arrival="144.00" arrivalLane="683079388#0_0" arrivalPos="4.07" arrivalSpeed="16.41" duration="93.00" routeLength="778.20" waitingTime="17.00" waitingCount="2" stopTime="0.00" timeLoss="45.44" rerouteNo="0" devices="tripinfo_flow_route_142_duration_20250327_2020.16" vType="car" speedFactor="1.00" vaporized=""/>
    <tripinfo id="flow_route_142_duration_20250327_2020.14" depart="46.00" departLane="1253222187#0_0" departPos="24.11" departSpeed="0.00" departDelay="1.80" arrival="145.00" arrivalLane="683079388#0_1" arrivalPos="17.01" arrivalSpeed="14.41" duration="99.00" routeLength="791.21" waitingTime="15.00" waitingCount="1" stopTime="0.00" timeLoss="44.51" rerouteNo="0" devices="tripinfo_flow_route_142_duration_20250327_2020.14" vType="car" speedFactor="0.88" vaporized=""/>
    <tripinfo id="flow_route_146_duration_20250327_2020.12" depart="66.00" departLane="683079387#1_0" departPos="1.95" departSpeed="0.00" departDelay="10.62" arrival="149.00" arrivalLane="-809772643#1_0" arrivalPos="189.81" arrivalSpeed="16.43" duration="83.00" routeLength="800.83" waitingTime="10.00" waitingCount="1" stopTime="0.00" timeLoss="34.04" rerouteNo="0" devices="tripinfo_flow_route_146_duration_20250327_2020.12" vType="car" speedFactor="1.08" vaporized=""/>
    <tripinfo id="flow_route_143_duration_20250327_2020.6" depart="41.00" departLane="1253222187#0_0" departPos="173.12" departSpeed="0.00" departDelay="1.00" arrival="157.00" arrivalLane="1310781056_0" arrivalPos="65.02" arrivalSpeed="16.53" duration="116.00" routeLength="260.40" waitingTime="63.00" waitingCount="6" stopTime="0.00" timeLoss="99.67" rerouteNo="0" devices="tripinfo_flow_route_143_duration_20250327_2020.6" vType="car" speedFactor="1.04" vaporized=""/>
    <tripinfo id="flow_route_142_duration_20250327_2020.15" depart="48.00" departLane="1253222187#0_0" departPos="70.17" departSpeed="0.00" departDelay="0.65" arrival="171.00" arrivalLane="683079388#0_0" arrivalPos="20.24" arrivalSpeed="16.57" duration="123.00" routeLength="748.38" waitingTime="44.00" waitingCount="3" stopTime="0.00" timeLoss="76.94" rerouteNo="0" devices="tripinfo_flow_route_142_duration_20250327_2020.15" vType="car" speedFactor="1.02" vaporized=""/>
    <tripinfo id="flow_route_142_duration_20250327_2020.8" depart="27.00" departLane="1253222187#0_0" departPos="76.99" departSpeed="0.00" departDelay="1.74" arrival="173.00" arrivalLane="683079388#0_0" arrivalPos="15.88" arrivalSpeed="15.50" duration="146.00" routeLength="737.20" waitingTime="61.00" waitingCount="3" stopTime="0.00" timeLoss="98.28" rerouteNo="0" devices="tripinfo_flow_route_142_duration_20250327_2020.8" vType="car" speedFactor="0.93" vaporized=""/>
    <tripinfo id="flow_route_142_duration_20250327_2020.9" depart="32.00" departLane="1253222187#0_0" departPos="72.29" departSpeed="0.00" departDelay="3.59" arrival="174.00" arrivalLane="683079388#0_2" arrivalPos="12.72" arrivalSpeed="16.34" duration="142.00" routeLength="738.74" waitingTime="60.00" waitingCount="3" stopTime="0.00" timeLoss="96.58" rerouteNo="0" devices="tripinfo_flow_route_142_duration_20250327_2020.9" vType="car" speedFactor="1.17" vaporized=""/>
    <tripinfo id="flow_route_143_duration_20250327_2020.5" depart="36.00" departLane="1253222187#0_0" departPos="142.39" departSpeed="0.00" departDelay="2.67" arrival="178.00" arrivalLane="1310781056_0" arrivalPos="31.89" arrivalSpeed="16.49" duration="142.00" routeLength="258.00" waitingTime="86.00" waitingCount="6" stopTime="0.00" timeLoss="125.96" rerouteNo="0" devices="tripinfo_flow_route_143_duration_20250327_2020.5" vType="car" speedFactor="1.18" vaporized=""/>
    <tripinfo id="flow_route_143_duration_20250327_2020.7" depart="47.00" departLane="1253222187#0_0" departPos="197.38" departSpeed="0.00" departDelay="0.34" arrival="179.00" arrivalLane="1310781056_0" arrivalPos="92.91" arrivalSpeed="16.31" duration="132.00" routeLength="264.03" waitingTime="96.00" waitingCount="4" stopTime="0.00" timeLoss="115.81" rerouteNo="0" devices="tripinfo_flow_route_143_duration_20250327_2020.7" vType="car" speedFactor="0.85" vaporized=""/>
    <tripinfo id="flow_route_143_duration_20250327_2020.8" depart="57.00" departLane="1253222187#0_0" departPos="158.04" departSpeed="0.00" departDelay="3.67" arrival="180.00" arrivalLane="1310781056_0" arrivalPos="28.41" arrivalSpeed="16.37" duration="123.00" routeLength="238.87" waitingTime="70.00" waitingCount="5" stopTime="0.00" timeLoss="108.14" rerouteNo="0" devices="tripinfo_flow_route_143_duration_20250327_2020.8" vType="car" speedFactor="1.02" vaporized=""/>
</tripinfos>
