<?xml version="1.0" encoding="UTF-8"?>

<!-- generated on 2025-05-06 21:07:55 by Eclipse SUMO sumo Version 1.20.0
<configuration xmlns:xsi="http://www.w3.org/2001/XMLSchema-instance" xsi:noNamespaceSchemaLocation="http://sumo.dlr.de/xsd/sumoConfiguration.xsd">

    <input>
        <net-file value="osm.net.xml"/>
        <route-files value="xml/route_static_J7_1.rou.xml"/>
    </input>

    <output>
        <tripinfo-output value="xml/tripinfo_static_J7_1.xml"/>
    </output>

    <traci_server>
        <remote-port value="43169"/>
    </traci_server>

</configuration>
-->

<tripinfos xmlns:xsi="http://www.w3.org/2001/XMLSchema-instance" xsi:noNamespaceSchemaLocation="http://sumo.dlr.de/xsd/tripinfo_file.xsd">
    <tripinfo id="flow_route_131_duration_20250327_2240.0" depart="0.00" departLane="714011134#0_0" departPos="6.35" departSpeed="0.00" departDelay="0.00" arrival="26.00" arrivalLane="134194079#0_0" arrivalPos="73.02" arrivalSpeed="14.38" duration="26.00" routeLength="232.63" waitingTime="0.00" waitingCount="0" stopTime="0.00" timeLoss="9.49" rerouteNo="0" devices="tripinfo_flow_route_131_duration_20250327_2240.0" vType="car" speedFactor="0.89" vaporized=""/>
    <tripinfo id="flow_route_132_duration_20250327_2240.0" depart="0.00" departLane="714011134#0_0" departPos="92.28" departSpeed="0.00" departDelay="0.00" arrival="34.00" arrivalLane="189240000#0-AddedOnRampEdge_1" arrivalPos="51.48" arrivalSpeed="15.25" duration="34.00" routeLength="375.34" waitingTime="0.00" waitingCount="0" stopTime="0.00" timeLoss="9.98" rerouteNo="0" devices="tripinfo_flow_route_132_duration_20250327_2240.0" vType="car" speedFactor="0.94" vaporized=""/>
    <tripinfo id="flow_route_127_duration_20250327_2240.1" depart="15.00" departLane="-138000461_0" departPos="187.58" departSpeed="0.00" departDelay="0.00" arrival="36.00" arrivalLane="189240000#0-AddedOnRampEdge_0" arrivalPos="88.65" arrivalSpeed="15.58" duration="21.00" routeLength="160.18" waitingTime="0.00" waitingCount="0" stopTime="0.00" timeLoss="9.94" rerouteNo="0" devices="tripinfo_flow_route_127_duration_20250327_2240.1" vType="car" speedFactor="1.05" vaporized=""/>
    <tripinfo id="flow_route_127_duration_20250327_2240.0" depart="0.00" departLane="-138000461_0" departPos="55.90" departSpeed="0.00" departDelay="0.00" arrival="37.00" arrivalLane="189240000#0-AddedOnRampEdge_0" arrivalPos="70.17" arrivalSpeed="13.79" duration="37.00" routeLength="273.38" waitingTime="0.00" waitingCount="0" stopTime="0.00" timeLoss="19.69" rerouteNo="0" devices="tripinfo_flow_route_127_duration_20250327_2240.0" vType="car" speedFactor="1.05" vaporized=""/>
    <tripinfo id="flow_route_116_duration_20250327_2240.0" depart="0.00" departLane="177211987#1_0" departPos="0.88" departSpeed="0.00" departDelay="0.00" arrival="38.00" arrivalLane="688883939#0_0" arrivalPos="93.94" arrivalSpeed="16.39" duration="38.00" routeLength="448.08" waitingTime="0.00" waitingCount="0" stopTime="0.00" timeLoss="10.63" rerouteNo="0" devices="tripinfo_flow_route_116_duration_20250327_2240.0" vType="car" speedFactor="1.06" vaporized=""/>
    <tripinfo id="flow_route_121_duration_20250327_2240.0" depart="1.00" departLane="799091563#0_0" departPos="259.58" departSpeed="0.00" departDelay="1.00" arrival="41.00" arrivalLane="134194079#0_0" arrivalPos="144.99" arrivalSpeed="15.22" duration="40.00" routeLength="274.57" waitingTime="0.00" waitingCount="0" stopTime="0.00" timeLoss="22.24" rerouteNo="0" devices="tripinfo_flow_route_121_duration_20250327_2240.0" vType="car" speedFactor="1.08" vaporized=""/>
    <tripinfo id="flow_route_121_duration_20250327_2240.2" depart="15.00" departLane="799091563#0_0" departPos="313.01" departSpeed="0.00" departDelay="0.00" arrival="47.00" arrivalLane="134194079#0_0" arrivalPos="186.89" arrivalSpeed="16.38" duration="32.00" routeLength="263.04" waitingTime="0.00" waitingCount="0" stopTime="0.00" timeLoss="14.44" rerouteNo="0" devices="tripinfo_flow_route_121_duration_20250327_2240.2" vType="car" speedFactor="1.03" vaporized=""/>
    <tripinfo id="flow_route_126_duration_20250327_2240.0" depart="0.00" departLane="-138000461_0" departPos="119.67" departSpeed="0.00" departDelay="0.00" arrival="52.00" arrivalLane="138000492#0_1" arrivalPos="18.35" arrivalSpeed="13.45" duration="52.00" routeLength="582.25" waitingTime="0.00" waitingCount="0" stopTime="0.00" timeLoss="9.11" rerouteNo="0" devices="tripinfo_flow_route_126_duration_20250327_2240.0" vType="car" speedFactor="0.83" vaporized=""/>
    <tripinfo id="flow_route_121_duration_20250327_2240.1" depart="8.00" departLane="799091563#0_0" departPos="116.60" departSpeed="0.00" departDelay="0.50" arrival="52.00" arrivalLane="134194079#0_0" arrivalPos="151.34" arrivalSpeed="16.35" duration="44.00" routeLength="423.90" waitingTime="0.00" waitingCount="0" stopTime="0.00" timeLoss="16.34" rerouteNo="0" devices="tripinfo_flow_route_121_duration_20250327_2240.1" vType="car" speedFactor="1.09" vaporized=""/>
    <tripinfo id="flow_route_132_duration_20250327_2240.1" depart="20.00" departLane="714011134#0_0" departPos="57.37" departSpeed="0.00" departDelay="0.00" arrival="55.00" arrivalLane="189240000#0-AddedOnRampEdge_1" arrivalPos="37.44" arrivalSpeed="16.15" duration="35.00" routeLength="396.22" waitingTime="0.00" waitingCount="0" stopTime="0.00" timeLoss="10.64" rerouteNo="0" devices="tripinfo_flow_route_132_duration_20250327_2240.1" vType="car" speedFactor="1.12" vaporized=""/>
    <tripinfo id="flow_route_133_duration_20250327_2240.0" depart="0.00" departLane="714011134#0_0" departPos="33.93" departSpeed="0.00" departDelay="0.00" arrival="59.00" arrivalLane="138000492#0_0" arrivalPos="313.58" arrivalSpeed="13.96" duration="59.00" routeLength="604.48" waitingTime="0.00" waitingCount="0" stopTime="0.00" timeLoss="15.68" rerouteNo="0" devices="tripinfo_flow_route_133_duration_20250327_2240.0" vType="car" speedFactor="0.86" vaporized=""/>
    <tripinfo id="flow_route_117_duration_20250327_2240.0" depart="0.00" departLane="177211987#1_0" departPos="98.51" departSpeed="0.00" departDelay="0.00" arrival="63.00" arrivalLane="138000492#0_0" arrivalPos="299.85" arrivalSpeed="15.54" duration="63.00" routeLength="701.60" waitingTime="0.00" waitingCount="0" stopTime="0.00" timeLoss="16.84" rerouteNo="0" devices="tripinfo_flow_route_117_duration_20250327_2240.0" vType="car" speedFactor="0.94" vaporized=""/>
    <tripinfo id="flow_route_127_duration_20250327_2240.2" depart="30.00" departLane="-138000461_0" departPos="27.34" departSpeed="0.00" departDelay="0.00" arrival="65.00" arrivalLane="189240000#0-AddedOnRampEdge_0" arrivalPos="90.31" arrivalSpeed="14.34" duration="35.00" routeLength="322.08" waitingTime="0.00" waitingCount="0" stopTime="0.00" timeLoss="13.49" rerouteNo="0" devices="tripinfo_flow_route_127_duration_20250327_2240.2" vType="car" speedFactor="0.94" vaporized=""/>
    <tripinfo id="flow_route_122_duration_20250327_2240.1" depart="30.00" departLane="799091563#0_0" departPos="125.80" departSpeed="0.00" departDelay="0.00" arrival="67.00" arrivalLane="688883939#0_2" arrivalPos="16.77" arrivalSpeed="11.62" duration="37.00" routeLength="329.61" waitingTime="0.00" waitingCount="0" stopTime="0.00" timeLoss="15.26" rerouteNo="0" devices="tripinfo_flow_route_122_duration_20250327_2240.1" vType="car" speedFactor="0.94" vaporized=""/>
    <tripinfo id="flow_route_122_duration_20250327_2240.0" depart="1.00" departLane="799091563#0_0" departPos="17.54" departSpeed="0.00" departDelay="1.00" arrival="69.00" arrivalLane="688883939#0_2" arrivalPos="62.20" arrivalSpeed="13.57" duration="68.00" routeLength="483.30" waitingTime="13.00" waitingCount="1" stopTime="0.00" timeLoss="38.11" rerouteNo="0" devices="tripinfo_flow_route_122_duration_20250327_2240.0" vType="car" speedFactor="1.03" vaporized=""/>
    <tripinfo id="flow_route_127_duration_20250327_2240.3" depart="45.00" departLane="-138000461_0" departPos="51.01" departSpeed="0.00" departDelay="0.00" arrival="72.00" arrivalLane="189240000#0-AddedOnRampEdge_0" arrivalPos="15.86" arrivalSpeed="10.47" duration="27.00" routeLength="223.95" waitingTime="0.00" waitingCount="0" stopTime="0.00" timeLoss="12.26" rerouteNo="0" devices="tripinfo_flow_route_127_duration_20250327_2240.3" vType="car" speedFactor="0.97" vaporized=""/>
    <tripinfo id="flow_route_121_duration_20250327_2240.5" depart="38.00" departLane="799091563#0_0" departPos="156.20" departSpeed="0.00" departDelay="0.50" arrival="76.00" arrivalLane="134194079#0_0" arrivalPos="36.99" arrivalSpeed="9.88" duration="38.00" routeLength="269.95" waitingTime="0.00" waitingCount="0" stopTime="0.00" timeLoss="20.09" rerouteNo="0" devices="tripinfo_flow_route_121_duration_20250327_2240.5" vType="car" speedFactor="1.16" vaporized=""/>
    <tripinfo id="flow_route_121_duration_20250327_2240.6" depart="45.00" departLane="799091563#0_0" departPos="217.05" departSpeed="0.00" departDelay="0.00" arrival="76.00" arrivalLane="134194079#0_0" arrivalPos="65.83" arrivalSpeed="11.18" duration="31.00" routeLength="237.94" waitingTime="0.00" waitingCount="0" stopTime="0.00" timeLoss="15.93" rerouteNo="0" devices="tripinfo_flow_route_121_duration_20250327_2240.6" vType="car" speedFactor="1.01" vaporized=""/>
    <tripinfo id="flow_route_121_duration_20250327_2240.4" depart="30.00" departLane="799091563#0_0" departPos="260.14" departSpeed="0.00" departDelay="0.00" arrival="78.00" arrivalLane="134194079#0_0" arrivalPos="225.54" arrivalSpeed="14.63" duration="48.00" routeLength="354.57" waitingTime="2.00" waitingCount="1" stopTime="0.00" timeLoss="22.28" rerouteNo="0" devices="tripinfo_flow_route_121_duration_20250327_2240.4" vType="car" speedFactor="0.88" vaporized=""/>
    <tripinfo id="flow_route_120_duration_20250327_2240.0" depart="0.00" departLane="799091563#0_0" departPos="177.01" departSpeed="0.00" departDelay="0.00" arrival="81.00" arrivalLane="138000492#0_1" arrivalPos="19.14" arrivalSpeed="9.96" duration="81.00" routeLength="440.29" waitingTime="25.00" waitingCount="1" stopTime="0.00" timeLoss="53.94" rerouteNo="0" devices="tripinfo_flow_route_120_duration_20250327_2240.0" vType="car" speedFactor="1.01" vaporized=""/>
    <tripinfo id="flow_route_121_duration_20250327_2240.3" depart="23.00" departLane="799091563#0_0" departPos="12.31" departSpeed="0.00" departDelay="0.50" arrival="82.00" arrivalLane="134194079#0_0" arrivalPos="69.84" arrivalSpeed="11.83" duration="59.00" routeLength="446.69" waitingTime="0.00" waitingCount="0" stopTime="0.00" timeLoss="30.28" rerouteNo="0" devices="tripinfo_flow_route_121_duration_20250327_2240.3" vType="car" speedFactor="0.99" vaporized=""/>
    <tripinfo id="flow_route_121_duration_20250327_2240.7" depart="53.00" departLane="799091563#0_0" departPos="33.80" departSpeed="0.00" departDelay="0.50" arrival="111.00" arrivalLane="134194079#0_0" arrivalPos="239.47" arrivalSpeed="14.65" duration="58.00" routeLength="594.82" waitingTime="0.00" waitingCount="0" stopTime="0.00" timeLoss="16.15" rerouteNo="0" devices="tripinfo_flow_route_121_duration_20250327_2240.7" vType="car" speedFactor="0.89" vaporized=""/>
    <tripinfo id="flow_route_116_duration_20250327_2240.1" depart="30.00" departLane="177211987#1_0" departPos="4.37" departSpeed="0.00" departDelay="0.00" arrival="141.00" arrivalLane="688883939#0_0" arrivalPos="31.81" arrivalSpeed="11.25" duration="111.00" routeLength="382.47" waitingTime="65.00" waitingCount="1" stopTime="0.00" timeLoss="86.14" rerouteNo="0" devices="tripinfo_flow_route_116_duration_20250327_2240.1" vType="car" speedFactor="0.93" vaporized=""/>
    <tripinfo id="flow_route_132_duration_20250327_2240.2" depart="40.00" departLane="714011134#0_0" departPos="27.83" departSpeed="0.00" departDelay="0.00" arrival="160.00" arrivalLane="189240000#0-AddedOnRampEdge_1" arrivalPos="91.06" arrivalSpeed="16.54" duration="120.00" routeLength="479.37" waitingTime="69.00" waitingCount="1" stopTime="0.00" timeLoss="90.89" rerouteNo="0" devices="tripinfo_flow_route_132_duration_20250327_2240.2" vType="car" speedFactor="1.02" vaporized=""/>
</tripinfos>
