<?xml version="1.0" encoding="UTF-8"?>

<!-- generated on 2025-05-06 21:08:16 by Eclipse SUMO sumo Version 1.20.0
<configuration xmlns:xsi="http://www.w3.org/2001/XMLSchema-instance" xsi:noNamespaceSchemaLocation="http://sumo.dlr.de/xsd/sumoConfiguration.xsd">

    <input>
        <net-file value="osm.net.xml"/>
        <route-files value="xml/route_static_cluster_11657899598_353811979_6712514804_3.rou.xml"/>
    </input>

    <output>
        <tripinfo-output value="xml/tripinfo_static_cluster_11657899598_353811979_6712514804_3.xml"/>
    </output>

    <traci_server>
        <remote-port value="49497"/>
    </traci_server>

</configuration>
-->

<tripinfos xmlns:xsi="http://www.w3.org/2001/XMLSchema-instance" xsi:noNamespaceSchemaLocation="http://sumo.dlr.de/xsd/tripinfo_file.xsd">
    <tripinfo id="flow_route_136_duration_20250327_2140.0" depart="0.00" departLane="688883939#0_0" departPos="70.95" departSpeed="0.00" departDelay="0.00" arrival="22.00" arrivalLane="186410975#0_1" arrivalPos="11.74" arrivalSpeed="11.21" duration="22.00" routeLength="133.80" waitingTime="1.00" waitingCount="1" stopTime="0.00" timeLoss="11.77" rerouteNo="0" devices="tripinfo_flow_route_136_duration_20250327_2140.0" vType="car" speedFactor="1.01" vaporized=""/>
    <tripinfo id="flow_route_137_duration_20250327_2140.0" depart="0.00" departLane="1310781056_0" departPos="52.86" departSpeed="0.00" departDelay="0.00" arrival="22.00" arrivalLane="714011134#0_0" arrivalPos="51.79" arrivalSpeed="16.29" duration="22.00" routeLength="192.73" waitingTime="0.00" waitingCount="0" stopTime="0.00" timeLoss="10.06" rerouteNo="0" devices="tripinfo_flow_route_137_duration_20250327_2140.0" vType="car" speedFactor="1.08" vaporized=""/>
    <tripinfo id="flow_route_134_duration_20250327_2140.0" depart="0.00" departLane="688883939#0_0" departPos="78.56" departSpeed="0.00" departDelay="0.00" arrival="28.00" arrivalLane="809719540#0_0" arrivalPos="239.32" arrivalSpeed="16.14" duration="28.00" routeLength="300.42" waitingTime="0.00" waitingCount="0" stopTime="0.00" timeLoss="9.69" rerouteNo="0" devices="tripinfo_flow_route_134_duration_20250327_2140.0" vType="car" speedFactor="1.06" vaporized=""/>
    <tripinfo id="flow_route_139_duration_20250327_2140.0" depart="1.00" departLane="1310781056_0" departPos="36.51" departSpeed="0.00" departDelay="1.00" arrival="28.00" arrivalLane="1254157399#1_1" arrivalPos="26.95" arrivalSpeed="9.85" duration="27.00" routeLength="180.27" waitingTime="0.00" waitingCount="0" stopTime="0.00" timeLoss="13.78" rerouteNo="0" devices="tripinfo_flow_route_139_duration_20250327_2140.0" vType="car" speedFactor="0.83" vaporized=""/>
    <tripinfo id="flow_route_138_duration_20250327_2140.0" depart="1.00" departLane="1310781056_0" departPos="99.29" departSpeed="0.00" departDelay="1.00" arrival="35.00" arrivalLane="186410975#0_0" arrivalPos="152.27" arrivalSpeed="11.40" duration="34.00" routeLength="305.80" waitingTime="0.00" waitingCount="0" stopTime="0.00" timeLoss="11.06" rerouteNo="0" devices="tripinfo_flow_route_138_duration_20250327_2140.0" vType="car" speedFactor="1.03" vaporized=""/>
    <tripinfo id="flow_route_138_duration_20250327_2140.1" depart="15.00" departLane="1310781056_0" departPos="77.69" departSpeed="0.00" departDelay="0.00" arrival="40.00" arrivalLane="186410975#0_0" arrivalPos="41.07" arrivalSpeed="9.41" duration="25.00" routeLength="216.20" waitingTime="0.00" waitingCount="0" stopTime="0.00" timeLoss="9.56" rerouteNo="0" devices="tripinfo_flow_route_138_duration_20250327_2140.1" vType="car" speedFactor="0.88" vaporized=""/>
    <tripinfo id="flow_route_135_duration_20250327_2140.0" depart="0.00" departLane="688883939#0_0" departPos="0.64" departSpeed="0.00" departDelay="0.00" arrival="45.00" arrivalLane="1254157399#1_0" arrivalPos="440.36" arrivalSpeed="16.39" duration="45.00" routeLength="573.44" waitingTime="0.00" waitingCount="0" stopTime="0.00" timeLoss="9.40" rerouteNo="0" devices="tripinfo_flow_route_135_duration_20250327_2140.0" vType="car" speedFactor="0.94" vaporized=""/>
    <tripinfo id="flow_route_153_duration_20250327_2140.1" depart="7.00" departLane="31861355#0_0" departPos="393.90" departSpeed="0.00" departDelay="1.00" arrival="45.00" arrivalLane="809719540#0_0" arrivalPos="12.41" arrivalSpeed="7.65" duration="38.00" routeLength="249.62" waitingTime="1.00" waitingCount="1" stopTime="0.00" timeLoss="21.28" rerouteNo="0" devices="tripinfo_flow_route_153_duration_20250327_2140.1" vType="car" speedFactor="1.09" vaporized=""/>
    <tripinfo id="flow_route_153_duration_20250327_2140.3" depart="18.00" departLane="31861355#0_0" departPos="599.76" departSpeed="0.00" departDelay="0.00" arrival="45.00" arrivalLane="809719540#0_0" arrivalPos="33.68" arrivalSpeed="8.03" duration="27.00" routeLength="65.03" waitingTime="8.00" waitingCount="1" stopTime="0.00" timeLoss="22.35" rerouteNo="0" devices="tripinfo_flow_route_153_duration_20250327_2140.3" vType="car" speedFactor="1.16" vaporized=""/>
    <tripinfo id="flow_route_152_duration_20250327_2140.0" depart="0.00" departLane="31861355#0_0" departPos="164.48" departSpeed="0.00" departDelay="0.00" arrival="51.00" arrivalLane="714011134#0_1" arrivalPos="26.08" arrivalSpeed="11.72" duration="51.00" routeLength="522.49" waitingTime="0.00" waitingCount="0" stopTime="0.00" timeLoss="14.85" rerouteNo="0" devices="tripinfo_flow_route_152_duration_20250327_2140.0" vType="car" speedFactor="0.89" vaporized=""/>
    <tripinfo id="flow_route_152_duration_20250327_2140.3" depart="23.00" departLane="31861355#0_0" departPos="355.43" departSpeed="0.00" departDelay="0.50" arrival="53.00" arrivalLane="714011134#0_1" arrivalPos="17.70" arrivalSpeed="16.37" duration="30.00" routeLength="323.15" waitingTime="0.00" waitingCount="0" stopTime="0.00" timeLoss="10.49" rerouteNo="0" devices="tripinfo_flow_route_152_duration_20250327_2140.3" vType="car" speedFactor="1.01" vaporized=""/>
    <tripinfo id="flow_route_152_duration_20250327_2140.1" depart="8.00" departLane="31861355#0_0" departPos="512.56" departSpeed="0.00" departDelay="0.50" arrival="54.00" arrivalLane="714011134#0_1" arrivalPos="98.97" arrivalSpeed="14.23" duration="46.00" routeLength="247.28" waitingTime="7.00" waitingCount="1" stopTime="0.00" timeLoss="30.45" rerouteNo="0" devices="tripinfo_flow_route_152_duration_20250327_2140.1" vType="car" speedFactor="1.03" vaporized=""/>
    <tripinfo id="flow_route_136_duration_20250327_2140.1" depart="15.00" departLane="688883939#0_0" departPos="3.14" departSpeed="0.00" departDelay="0.00" arrival="61.00" arrivalLane="186410975#0_0" arrivalPos="197.33" arrivalSpeed="9.99" duration="46.00" routeLength="387.20" waitingTime="0.00" waitingCount="0" stopTime="0.00" timeLoss="12.50" rerouteNo="0" devices="tripinfo_flow_route_136_duration_20250327_2140.1" vType="car" speedFactor="0.93" vaporized=""/>
    <tripinfo id="flow_route_152_duration_20250327_2140.2" depart="15.00" departLane="31861355#0_0" departPos="206.01" departSpeed="0.00" departDelay="0.00" arrival="61.00" arrivalLane="714011134#0_1" arrivalPos="100.82" arrivalSpeed="15.39" duration="46.00" routeLength="555.68" waitingTime="0.00" waitingCount="0" stopTime="0.00" timeLoss="10.32" rerouteNo="0" devices="tripinfo_flow_route_152_duration_20250327_2140.2" vType="car" speedFactor="0.94" vaporized=""/>
    <tripinfo id="flow_route_139_duration_20250327_2140.1" depart="10.00" departLane="1310781056_0" departPos="44.97" departSpeed="0.00" departDelay="0.00" arrival="66.00" arrivalLane="1254157399#1_0" arrivalPos="548.60" arrivalSpeed="16.51" duration="56.00" routeLength="693.45" waitingTime="0.00" waitingCount="0" stopTime="0.00" timeLoss="12.85" rerouteNo="0" devices="tripinfo_flow_route_139_duration_20250327_2140.1" vType="car" speedFactor="1.05" vaporized=""/>
    <tripinfo id="flow_route_153_duration_20250327_2140.2" depart="12.00" departLane="31861355#0_0" departPos="187.64" departSpeed="0.00" departDelay="0.00" arrival="66.00" arrivalLane="809719540#0_0" arrivalPos="63.58" arrivalSpeed="11.30" duration="54.00" routeLength="507.05" waitingTime="0.00" waitingCount="0" stopTime="0.00" timeLoss="22.27" rerouteNo="0" devices="tripinfo_flow_route_153_duration_20250327_2140.2" vType="car" speedFactor="0.99" vaporized=""/>
    <tripinfo id="flow_route_151_duration_20250327_2140.3" depart="18.00" departLane="31861355#0_0" departPos="255.78" departSpeed="0.00" departDelay="0.00" arrival="66.00" arrivalLane="186410975#0_1" arrivalPos="33.39" arrivalSpeed="10.14" duration="48.00" routeLength="504.82" waitingTime="0.00" waitingCount="0" stopTime="0.00" timeLoss="14.29" rerouteNo="0" devices="tripinfo_flow_route_151_duration_20250327_2140.3" vType="car" speedFactor="0.94" vaporized=""/>
    <tripinfo id="flow_route_151_duration_20250327_2140.0" depart="0.00" departLane="31861355#0_0" departPos="352.12" departSpeed="0.00" departDelay="0.00" arrival="69.00" arrivalLane="186410975#0_0" arrivalPos="191.84" arrivalSpeed="11.58" duration="69.00" routeLength="566.94" waitingTime="6.00" waitingCount="1" stopTime="0.00" timeLoss="29.66" rerouteNo="0" devices="tripinfo_flow_route_151_duration_20250327_2140.0" vType="car" speedFactor="1.05" vaporized=""/>
    <tripinfo id="flow_route_153_duration_20250327_2140.4" depart="24.00" departLane="31861355#0_0" departPos="415.45" departSpeed="0.00" departDelay="0.00" arrival="71.00" arrivalLane="809719540#0_0" arrivalPos="218.02" arrivalSpeed="14.41" duration="47.00" routeLength="433.69" waitingTime="0.00" waitingCount="0" stopTime="0.00" timeLoss="15.64" rerouteNo="0" devices="tripinfo_flow_route_153_duration_20250327_2140.4" vType="car" speedFactor="0.89" vaporized=""/>
    <tripinfo id="flow_route_153_duration_20250327_2140.0" depart="0.00" departLane="31861355#0_0" departPos="37.47" departSpeed="0.00" departDelay="0.00" arrival="75.00" arrivalLane="809719540#0_0" arrivalPos="146.46" arrivalSpeed="14.87" duration="75.00" routeLength="740.10" waitingTime="0.00" waitingCount="0" stopTime="0.00" timeLoss="26.30" rerouteNo="0" devices="tripinfo_flow_route_153_duration_20250327_2140.0" vType="car" speedFactor="0.94" vaporized=""/>
    <tripinfo id="flow_route_151_duration_20250327_2140.1" depart="6.00" departLane="31861355#0_0" departPos="318.97" departSpeed="0.00" departDelay="0.00" arrival="75.00" arrivalLane="186410975#0_0" arrivalPos="176.45" arrivalSpeed="9.34" duration="69.00" routeLength="584.69" waitingTime="0.00" waitingCount="0" stopTime="0.00" timeLoss="21.91" rerouteNo="0" devices="tripinfo_flow_route_151_duration_20250327_2140.1" vType="car" speedFactor="0.86" vaporized=""/>
    <tripinfo id="flow_route_151_duration_20250327_2140.2" depart="12.00" departLane="31861355#0_0" departPos="20.16" departSpeed="0.00" departDelay="0.00" arrival="79.00" arrivalLane="186410975#0_1" arrivalPos="140.49" arrivalSpeed="12.40" duration="67.00" routeLength="847.55" waitingTime="0.00" waitingCount="0" stopTime="0.00" timeLoss="12.15" rerouteNo="0" devices="tripinfo_flow_route_151_duration_20250327_2140.2" vType="car" speedFactor="1.12" vaporized=""/>
    <tripinfo id="flow_route_137_duration_20250327_2140.1" depart="30.00" departLane="1310781056_0" departPos="19.10" departSpeed="0.00" departDelay="0.00" arrival="79.00" arrivalLane="714011134#0_1" arrivalPos="62.84" arrivalSpeed="11.51" duration="49.00" routeLength="237.54" waitingTime="5.00" waitingCount="1" stopTime="0.00" timeLoss="33.96" rerouteNo="0" devices="tripinfo_flow_route_137_duration_20250327_2140.1" vType="car" speedFactor="0.87" vaporized=""/>
    <tripinfo id="flow_route_151_duration_20250327_2140.5" depart="30.00" departLane="31861355#0_0" departPos="398.98" departSpeed="0.00" departDelay="0.00" arrival="81.00" arrivalLane="186410975#0_1" arrivalPos="247.77" arrivalSpeed="12.09" duration="51.00" routeLength="576.00" waitingTime="0.00" waitingCount="0" stopTime="0.00" timeLoss="10.89" rerouteNo="0" devices="tripinfo_flow_route_151_duration_20250327_2140.5" vType="car" speedFactor="1.13" vaporized=""/>
    <tripinfo id="flow_route_139_duration_20250327_2140.2" depart="20.00" departLane="1310781056_0" departPos="25.30" departSpeed="0.00" departDelay="0.00" arrival="85.00" arrivalLane="1254157399#1_0" arrivalPos="163.21" arrivalSpeed="16.48" duration="65.00" routeLength="327.74" waitingTime="22.00" waitingCount="1" stopTime="0.00" timeLoss="43.84" rerouteNo="0" devices="tripinfo_flow_route_139_duration_20250327_2140.2" vType="car" speedFactor="1.02" vaporized=""/>
    <tripinfo id="flow_route_139_duration_20250327_2140.5" depart="51.00" departLane="1310781056_0" departPos="70.90" departSpeed="0.00" departDelay="1.00" arrival="86.00" arrivalLane="1254157399#1_1" arrivalPos="64.72" arrivalSpeed="13.14" duration="35.00" routeLength="183.65" waitingTime="1.00" waitingCount="1" stopTime="0.00" timeLoss="22.32" rerouteNo="0" devices="tripinfo_flow_route_139_duration_20250327_2140.5" vType="car" speedFactor="1.09" vaporized=""/>
    <tripinfo id="flow_route_139_duration_20250327_2140.4" depart="40.00" departLane="1310781056_0" departPos="20.49" departSpeed="0.00" departDelay="0.00" arrival="89.00" arrivalLane="1254157399#1_1" arrivalPos="128.04" arrivalSpeed="16.21" duration="49.00" routeLength="297.38" waitingTime="5.00" waitingCount="1" stopTime="0.00" timeLoss="28.75" rerouteNo="0" devices="tripinfo_flow_route_139_duration_20250327_2140.4" vType="car" speedFactor="0.99" vaporized=""/>
    <tripinfo id="flow_route_136_duration_20250327_2140.3" depart="45.00" departLane="688883939#0_0" departPos="54.07" departSpeed="0.00" departDelay="0.00" arrival="94.00" arrivalLane="186410975#0_1" arrivalPos="54.81" arrivalSpeed="12.85" duration="49.00" routeLength="193.77" waitingTime="10.00" waitingCount="2" stopTime="0.00" timeLoss="35.25" rerouteNo="0" devices="tripinfo_flow_route_136_duration_20250327_2140.3" vType="car" speedFactor="1.18" vaporized=""/>
    <tripinfo id="flow_route_138_duration_20250327_2140.3" depart="45.00" departLane="1310781056_0" departPos="93.62" departSpeed="0.00" departDelay="0.00" arrival="95.00" arrivalLane="186410975#0_1" arrivalPos="175.17" arrivalSpeed="11.79" duration="50.00" routeLength="334.38" waitingTime="6.00" waitingCount="1" stopTime="0.00" timeLoss="25.74" rerouteNo="0" devices="tripinfo_flow_route_138_duration_20250327_2140.3" vType="car" speedFactor="1.10" vaporized=""/>
    <tripinfo id="flow_route_138_duration_20250327_2140.2" depart="30.00" departLane="1310781056_0" departPos="108.29" departSpeed="0.00" departDelay="0.00" arrival="97.00" arrivalLane="186410975#0_0" arrivalPos="178.51" arrivalSpeed="9.95" duration="67.00" routeLength="323.04" waitingTime="20.00" waitingCount="1" stopTime="0.00" timeLoss="39.71" rerouteNo="0" devices="tripinfo_flow_route_138_duration_20250327_2140.2" vType="car" speedFactor="0.92" vaporized=""/>
    <tripinfo id="flow_route_136_duration_20250327_2140.2" depart="30.00" departLane="688883939#0_0" departPos="61.16" departSpeed="0.00" departDelay="0.00" arrival="108.00" arrivalLane="186410975#0_0" arrivalPos="184.69" arrivalSpeed="8.85" duration="78.00" routeLength="316.56" waitingTime="25.00" waitingCount="2" stopTime="0.00" timeLoss="46.75" rerouteNo="0" devices="tripinfo_flow_route_136_duration_20250327_2140.2" vType="car" speedFactor="0.83" vaporized=""/>
    <tripinfo id="flow_route_153_duration_20250327_2140.7" depart="46.00" departLane="31861355#0_0" departPos="363.77" departSpeed="0.00" departDelay="4.00" arrival="112.00" arrivalLane="809719540#0_0" arrivalPos="21.49" arrivalSpeed="7.88" duration="66.00" routeLength="288.83" waitingTime="25.00" waitingCount="1" stopTime="0.00" timeLoss="46.98" rerouteNo="0" devices="tripinfo_flow_route_153_duration_20250327_2140.7" vType="car" speedFactor="0.97" vaporized=""/>
    <tripinfo id="flow_route_139_duration_20250327_2140.3" depart="31.00" departLane="1310781056_0" departPos="31.62" departSpeed="0.00" departDelay="1.00" arrival="113.00" arrivalLane="1254157399#1_0" arrivalPos="577.91" arrivalSpeed="16.50" duration="82.00" routeLength="736.12" waitingTime="14.00" waitingCount="1" stopTime="0.00" timeLoss="36.00" rerouteNo="0" devices="tripinfo_flow_route_139_duration_20250327_2140.3" vType="car" speedFactor="0.95" vaporized=""/>
    <tripinfo id="flow_route_152_duration_20250327_2140.4" depart="30.00" departLane="31861355#0_0" departPos="94.41" departSpeed="0.00" departDelay="0.00" arrival="116.00" arrivalLane="714011134#0_1" arrivalPos="32.44" arrivalSpeed="11.34" duration="86.00" routeLength="598.91" waitingTime="23.00" waitingCount="1" stopTime="0.00" timeLoss="47.20" rerouteNo="0" devices="tripinfo_flow_route_152_duration_20250327_2140.4" vType="car" speedFactor="0.93" vaporized=""/>
    <tripinfo id="flow_route_152_duration_20250327_2140.5" depart="39.00" departLane="31861355#0_0" departPos="352.66" departSpeed="0.00" departDelay="1.50" arrival="118.00" arrivalLane="714011134#0_1" arrivalPos="104.58" arrivalSpeed="15.10" duration="79.00" routeLength="412.80" waitingTime="30.00" waitingCount="1" stopTime="0.00" timeLoss="53.55" rerouteNo="0" devices="tripinfo_flow_route_152_duration_20250327_2140.5" vType="car" speedFactor="1.17" vaporized=""/>
    <tripinfo id="flow_route_151_duration_20250327_2140.7" depart="45.00" departLane="31861355#0_0" departPos="382.48" departSpeed="0.00" departDelay="3.00" arrival="119.00" arrivalLane="186410975#0_0" arrivalPos="12.09" arrivalSpeed="10.86" duration="74.00" routeLength="356.82" waitingTime="26.00" waitingCount="1" stopTime="0.00" timeLoss="51.43" rerouteNo="0" devices="tripinfo_flow_route_151_duration_20250327_2140.7" vType="car" speedFactor="1.02" vaporized=""/>
    <tripinfo id="flow_route_151_duration_20250327_2140.4" depart="24.00" departLane="31861355#0_0" departPos="55.35" departSpeed="0.00" departDelay="0.00" arrival="123.00" arrivalLane="186410975#0_1" arrivalPos="62.30" arrivalSpeed="10.80" duration="99.00" routeLength="734.16" waitingTime="26.00" waitingCount="1" stopTime="0.00" timeLoss="51.21" rerouteNo="0" devices="tripinfo_flow_route_151_duration_20250327_2140.4" vType="car" speedFactor="0.97" vaporized=""/>
    <tripinfo id="flow_route_152_duration_20250327_2140.6" depart="46.00" departLane="31861355#0_0" departPos="259.40" departSpeed="0.00" departDelay="1.00" arrival="124.00" arrivalLane="714011134#0_1" arrivalPos="44.60" arrivalSpeed="13.11" duration="78.00" routeLength="446.08" waitingTime="16.00" waitingCount="1" stopTime="0.00" timeLoss="47.83" rerouteNo="0" devices="tripinfo_flow_route_152_duration_20250327_2140.6" vType="car" speedFactor="0.90" vaporized=""/>
    <tripinfo id="flow_route_152_duration_20250327_2140.7" depart="53.00" departLane="31861355#0_0" departPos="306.35" departSpeed="0.00" departDelay="0.50" arrival="125.00" arrivalLane="714011134#0_1" arrivalPos="97.48" arrivalSpeed="16.12" duration="72.00" routeLength="452.00" waitingTime="20.00" waitingCount="1" stopTime="0.00" timeLoss="44.26" rerouteNo="0" devices="tripinfo_flow_route_152_duration_20250327_2140.7" vType="car" speedFactor="1.04" vaporized=""/>
    <tripinfo id="flow_route_151_duration_20250327_2140.9" depart="55.00" departLane="31861355#0_0" departPos="543.36" departSpeed="0.00" departDelay="1.00" arrival="126.00" arrivalLane="186410975#0_0" arrivalPos="109.72" arrivalSpeed="11.56" duration="71.00" routeLength="293.58" waitingTime="27.00" waitingCount="1" stopTime="0.00" timeLoss="49.39" rerouteNo="0" devices="tripinfo_flow_route_151_duration_20250327_2140.9" vType="car" speedFactor="1.04" vaporized=""/>
    <tripinfo id="flow_route_153_duration_20250327_2140.9" depart="55.00" departLane="31861355#0_0" departPos="356.70" departSpeed="0.00" departDelay="1.00" arrival="130.00" arrivalLane="809719540#0_0" arrivalPos="190.91" arrivalSpeed="16.47" duration="75.00" routeLength="465.31" waitingTime="21.00" waitingCount="1" stopTime="0.00" timeLoss="46.19" rerouteNo="0" devices="tripinfo_flow_route_153_duration_20250327_2140.9" vType="car" speedFactor="1.09" vaporized=""/>
    <tripinfo id="flow_route_153_duration_20250327_2140.5" depart="30.00" departLane="31861355#0_0" departPos="17.31" departSpeed="0.00" departDelay="0.00" arrival="132.00" arrivalLane="809719540#0_0" arrivalPos="132.30" arrivalSpeed="15.06" duration="102.00" routeLength="746.10" waitingTime="17.00" waitingCount="1" stopTime="0.00" timeLoss="56.06" rerouteNo="0" devices="tripinfo_flow_route_153_duration_20250327_2140.5" vType="car" speedFactor="1.18" vaporized=""/>
    <tripinfo id="flow_route_151_duration_20250327_2140.6" depart="38.00" departLane="31861355#0_0" departPos="195.16" departSpeed="0.00" departDelay="2.00" arrival="132.00" arrivalLane="186410975#0_1" arrivalPos="141.13" arrivalSpeed="12.78" duration="94.00" routeLength="673.17" waitingTime="21.00" waitingCount="1" stopTime="0.00" timeLoss="50.42" rerouteNo="0" devices="tripinfo_flow_route_151_duration_20250327_2140.6" vType="car" speedFactor="1.15" vaporized=""/>
    <tripinfo id="flow_route_153_duration_20250327_2140.6" depart="38.00" departLane="31861355#0_0" departPos="210.80" departSpeed="0.00" departDelay="2.00" arrival="132.00" arrivalLane="809719540#0_0" arrivalPos="249.29" arrivalSpeed="16.23" duration="94.00" routeLength="669.60" waitingTime="25.00" waitingCount="1" stopTime="0.00" timeLoss="52.15" rerouteNo="0" devices="tripinfo_flow_route_153_duration_20250327_2140.6" vType="car" speedFactor="1.01" vaporized=""/>
    <tripinfo id="flow_route_151_duration_20250327_2140.8" depart="48.00" departLane="31861355#0_0" departPos="14.83" departSpeed="0.00" departDelay="0.00" arrival="136.00" arrivalLane="186410975#0_1" arrivalPos="94.26" arrivalSpeed="10.98" duration="88.00" routeLength="806.64" waitingTime="7.00" waitingCount="1" stopTime="0.00" timeLoss="36.32" rerouteNo="0" devices="tripinfo_flow_route_151_duration_20250327_2140.8" vType="car" speedFactor="1.03" vaporized=""/>
    <tripinfo id="flow_route_153_duration_20250327_2140.8" depart="48.00" departLane="31861355#0_0" departPos="188.25" departSpeed="0.00" departDelay="0.00" arrival="139.00" arrivalLane="809719540#0_0" arrivalPos="262.37" arrivalSpeed="15.78" duration="91.00" routeLength="705.24" waitingTime="17.00" waitingCount="1" stopTime="0.00" timeLoss="44.69" rerouteNo="0" devices="tripinfo_flow_route_153_duration_20250327_2140.8" vType="car" speedFactor="0.96" vaporized=""/>
</tripinfos>
