<?xml version="1.0" encoding="UTF-8"?>

<!-- generated on 2025-05-06 21:08:37 by Eclipse SUMO sumo Version 1.20.0
<configuration xmlns:xsi="http://www.w3.org/2001/XMLSchema-instance" xsi:noNamespaceSchemaLocation="http://sumo.dlr.de/xsd/sumoConfiguration.xsd">

    <input>
        <net-file value="osm.net.xml"/>
        <route-files value="xml/route_static_cluster_2271368471_4779869278_5.rou.xml"/>
    </input>

    <output>
        <tripinfo-output value="xml/tripinfo_static_cluster_2271368471_4779869278_5.xml"/>
    </output>

    <traci_server>
        <remote-port value="34501"/>
    </traci_server>

</configuration>
-->

<tripinfos xmlns:xsi="http://www.w3.org/2001/XMLSchema-instance" xsi:noNamespaceSchemaLocation="http://sumo.dlr.de/xsd/tripinfo_file.xsd">
    <tripinfo id="flow_route_36_duration_20250327_2200.0" depart="0.00" departLane="485211947#0_0" departPos="162.24" departSpeed="0.00" departDelay="0.00" arrival="23.00" arrivalLane="137415945#0_0" arrivalPos="6.94" arrivalSpeed="15.19" duration="23.00" routeLength="189.23" waitingTime="0.00" waitingCount="0" stopTime="0.00" timeLoss="10.24" rerouteNo="0" devices="tripinfo_flow_route_36_duration_20250327_2200.0" vType="car" speedFactor="0.94" vaporized=""/>
    <tripinfo id="flow_route_35_duration_20250327_2200.0" depart="0.00" departLane="485211947#0_0" departPos="11.17" departSpeed="0.00" departDelay="0.00" arrival="33.00" arrivalLane="1369578054_0" arrivalPos="74.16" arrivalSpeed="12.83" duration="33.00" routeLength="260.46" waitingTime="0.00" waitingCount="0" stopTime="0.00" timeLoss="13.80" rerouteNo="0" devices="tripinfo_flow_route_35_duration_20250327_2200.0" vType="car" speedFactor="0.89" vaporized=""/>
    <tripinfo id="flow_route_37_duration_20250327_2200.0" depart="0.00" departLane="485211947#0_0" departPos="59.66" departSpeed="0.00" departDelay="0.00" arrival="33.00" arrivalLane="-430406005#1_1" arrivalPos="133.07" arrivalSpeed="16.05" duration="33.00" routeLength="286.39" waitingTime="0.00" waitingCount="0" stopTime="0.00" timeLoss="12.84" rerouteNo="0" devices="tripinfo_flow_route_37_duration_20250327_2200.0" vType="car" speedFactor="0.86" vaporized=""/>
    <tripinfo id="flow_route_35_duration_20250327_2200.1" depart="12.00" departLane="485211947#0_0" departPos="43.86" departSpeed="0.00" departDelay="0.00" arrival="46.00" arrivalLane="1369578054_0" arrivalPos="163.10" arrivalSpeed="16.26" duration="34.00" routeLength="316.70" waitingTime="0.00" waitingCount="0" stopTime="0.00" timeLoss="13.80" rerouteNo="0" devices="tripinfo_flow_route_35_duration_20250327_2200.1" vType="car" speedFactor="1.09" vaporized=""/>
    <tripinfo id="flow_route_36_duration_20250327_2200.1" depart="20.00" departLane="485211947#0_0" departPos="5.53" departSpeed="0.00" departDelay="0.00" arrival="53.00" arrivalLane="137415945#0_1" arrivalPos="9.73" arrivalSpeed="16.48" duration="33.00" routeLength="348.74" waitingTime="0.00" waitingCount="0" stopTime="0.00" timeLoss="11.78" rerouteNo="0" devices="tripinfo_flow_route_36_duration_20250327_2200.1" vType="car" speedFactor="1.12" vaporized=""/>
    <tripinfo id="flow_route_30_duration_20250327_2200.0" depart="0.00" departLane="1235147073.116_0" departPos="7.14" departSpeed="0.00" departDelay="0.00" arrival="56.00" arrivalLane="133126030#0_0" arrivalPos="8.43" arrivalSpeed="7.38" duration="56.00" routeLength="175.81" waitingTime="26.00" waitingCount="1" stopTime="0.00" timeLoss="45.04" rerouteNo="0" devices="tripinfo_flow_route_30_duration_20250327_2200.0" vType="car" speedFactor="1.01" vaporized=""/>
    <tripinfo id="flow_route_31_duration_20250327_2200.0" depart="2.00" departLane="1235147073.116_0" departPos="0.71" departSpeed="0.00" departDelay="2.00" arrival="64.00" arrivalLane="-430406005#1_0" arrivalPos="87.77" arrivalSpeed="12.56" duration="62.00" routeLength="250.02" waitingTime="25.00" waitingCount="1" stopTime="0.00" timeLoss="46.23" rerouteNo="0" devices="tripinfo_flow_route_31_duration_20250327_2200.0" vType="car" speedFactor="1.08" vaporized=""/>
    <tripinfo id="flow_route_32_duration_20250327_2200.1" depart="20.00" departLane="1235147073.116_0" departPos="14.65" departSpeed="0.00" departDelay="0.00" arrival="67.00" arrivalLane="1369578054_1" arrivalPos="90.42" arrivalSpeed="13.24" duration="47.00" routeLength="255.50" waitingTime="7.00" waitingCount="1" stopTime="0.00" timeLoss="30.27" rerouteNo="0" devices="tripinfo_flow_route_32_duration_20250327_2200.1" vType="car" speedFactor="1.05" vaporized=""/>
    <tripinfo id="flow_route_32_duration_20250327_2200.0" depart="8.00" departLane="1235147073.116_0" departPos="6.07" departSpeed="0.00" departDelay="8.00" arrival="69.00" arrivalLane="1369578054_1" arrivalPos="176.77" arrivalSpeed="16.43" duration="61.00" routeLength="350.43" waitingTime="18.00" waitingCount="1" stopTime="0.00" timeLoss="39.05" rerouteNo="0" devices="tripinfo_flow_route_32_duration_20250327_2200.0" vType="car" speedFactor="1.03" vaporized=""/>
    <tripinfo id="flow_route_32_duration_20250327_2200.2" depart="40.00" departLane="1235147073.116_0" departPos="10.59" departSpeed="0.00" departDelay="0.00" arrival="76.00" arrivalLane="1369578054_1" arrivalPos="200.20" arrivalSpeed="16.56" duration="36.00" routeLength="369.34" waitingTime="0.00" waitingCount="0" stopTime="0.00" timeLoss="12.91" rerouteNo="0" devices="tripinfo_flow_route_32_duration_20250327_2200.2" vType="car" speedFactor="1.01" vaporized=""/>
    <tripinfo id="flow_route_33_duration_20250327_2200.0" depart="0.00" departLane="133126008#0_0" departPos="101.07" departSpeed="0.00" departDelay="0.00" arrival="103.00" arrivalLane="1369578054_0" arrivalPos="13.07" arrivalSpeed="8.72" duration="103.00" routeLength="125.36" waitingTime="76.00" waitingCount="1" stopTime="0.00" timeLoss="95.07" rerouteNo="0" devices="tripinfo_flow_route_33_duration_20250327_2200.0" vType="car" speedFactor="0.83" vaporized=""/>
    <tripinfo id="flow_route_33_duration_20250327_2200.1" depart="30.00" departLane="133126008#0_0" departPos="39.82" departSpeed="0.00" departDelay="0.00" arrival="106.00" arrivalLane="1369578054_0" arrivalPos="37.57" arrivalSpeed="10.92" duration="76.00" routeLength="211.11" waitingTime="42.00" waitingCount="1" stopTime="0.00" timeLoss="62.43" rerouteNo="0" devices="tripinfo_flow_route_33_duration_20250327_2200.1" vType="car" speedFactor="0.88" vaporized=""/>
    <tripinfo id="flow_route_28_duration_20250327_2200.1" depart="30.00" departLane="-422986370#2_0" departPos="79.10" departSpeed="0.00" departDelay="0.00" arrival="107.00" arrivalLane="-430406005#1_1" arrivalPos="23.11" arrivalSpeed="9.89" duration="77.00" routeLength="278.43" waitingTime="37.00" waitingCount="1" stopTime="0.00" timeLoss="58.83" rerouteNo="0" devices="tripinfo_flow_route_28_duration_20250327_2200.1" vType="car" speedFactor="0.93" vaporized=""/>
    <tripinfo id="flow_route_34_duration_20250327_2200.1" depart="30.00" departLane="133126008#0_0" departPos="29.98" departSpeed="0.00" departDelay="0.00" arrival="112.00" arrivalLane="133126030#0_0" arrivalPos="76.22" arrivalSpeed="11.83" duration="82.00" routeLength="233.76" waitingTime="42.00" waitingCount="1" stopTime="0.00" timeLoss="65.81" rerouteNo="0" devices="tripinfo_flow_route_34_duration_20250327_2200.1" vType="car" speedFactor="0.94" vaporized=""/>
    <tripinfo id="flow_route_29_duration_20250327_2200.0" depart="0.00" departLane="-422986370#2_0" departPos="201.60" departSpeed="0.00" departDelay="0.00" arrival="113.00" arrivalLane="137415945#0_0" arrivalPos="9.07" arrivalSpeed="15.50" duration="113.00" routeLength="253.29" waitingTime="74.00" waitingCount="1" stopTime="0.00" timeLoss="95.21" rerouteNo="0" devices="tripinfo_flow_route_29_duration_20250327_2200.0" vType="car" speedFactor="0.94" vaporized=""/>
    <tripinfo id="flow_route_34_duration_20250327_2200.0" depart="0.00" departLane="133126008#0_0" departPos="47.21" departSpeed="0.00" departDelay="0.00" arrival="113.00" arrivalLane="133126030#0_0" arrivalPos="137.72" arrivalSpeed="14.99" duration="113.00" routeLength="278.03" waitingTime="73.00" waitingCount="1" stopTime="0.00" timeLoss="95.13" rerouteNo="0" devices="tripinfo_flow_route_34_duration_20250327_2200.0" vType="car" speedFactor="1.05" vaporized=""/>
    <tripinfo id="flow_route_28_duration_20250327_2200.0" depart="0.00" departLane="-422986370#2_0" departPos="1.81" departSpeed="0.00" departDelay="0.00" arrival="114.00" arrivalLane="-430406005#1_0" arrivalPos="159.13" arrivalSpeed="16.31" duration="114.00" routeLength="491.75" waitingTime="61.00" waitingCount="1" stopTime="0.00" timeLoss="84.24" rerouteNo="0" devices="tripinfo_flow_route_28_duration_20250327_2200.0" vType="car" speedFactor="1.06" vaporized=""/>
    <tripinfo id="flow_route_29_duration_20250327_2200.1" depart="20.00" departLane="-422986370#2_0" departPos="47.66" departSpeed="0.00" departDelay="0.00" arrival="114.00" arrivalLane="137415945#0_0" arrivalPos="0.41" arrivalSpeed="15.28" duration="94.00" routeLength="398.57" waitingTime="46.00" waitingCount="1" stopTime="0.00" timeLoss="68.89" rerouteNo="0" devices="tripinfo_flow_route_29_duration_20250327_2200.1" vType="car" speedFactor="1.03" vaporized=""/>
    <tripinfo id="flow_route_29_duration_20250327_2200.2" depart="40.00" departLane="-422986370#2_0" departPos="178.60" departSpeed="0.00" departDelay="0.00" arrival="117.00" arrivalLane="137415945#0_0" arrivalPos="1.13" arrivalSpeed="14.75" duration="77.00" routeLength="268.35" waitingTime="36.00" waitingCount="1" stopTime="0.00" timeLoss="59.65" rerouteNo="0" devices="tripinfo_flow_route_29_duration_20250327_2200.2" vType="car" speedFactor="1.02" vaporized=""/>
    <tripinfo id="flow_route_35_duration_20250327_2200.3" depart="36.00" departLane="485211947#0_0" departPos="150.40" departSpeed="0.00" departDelay="0.00" arrival="146.00" arrivalLane="1369578054_0" arrivalPos="72.33" arrivalSpeed="11.78" duration="110.00" routeLength="119.39" waitingTime="80.00" waitingCount="1" stopTime="0.00" timeLoss="101.63" rerouteNo="0" devices="tripinfo_flow_route_35_duration_20250327_2200.3" vType="car" speedFactor="1.16" vaporized=""/>
    <tripinfo id="flow_route_36_duration_20250327_2200.2" depart="40.00" departLane="485211947#0_0" departPos="173.26" departSpeed="0.00" departDelay="0.00" arrival="149.00" arrivalLane="137415945#0_0" arrivalPos="9.11" arrivalSpeed="16.09" duration="109.00" routeLength="180.38" waitingTime="81.00" waitingCount="1" stopTime="0.00" timeLoss="96.99" rerouteNo="0" devices="tripinfo_flow_route_36_duration_20250327_2200.2" vType="car" speedFactor="0.97" vaporized=""/>
    <tripinfo id="flow_route_37_duration_20250327_2200.1" depart="30.00" departLane="485211947#0_0" departPos="105.91" departSpeed="0.00" departDelay="0.00" arrival="151.00" arrivalLane="-430406005#1_1" arrivalPos="172.26" arrivalSpeed="16.38" duration="121.00" routeLength="279.32" waitingTime="83.00" waitingCount="1" stopTime="0.00" timeLoss="102.80" rerouteNo="0" devices="tripinfo_flow_route_37_duration_20250327_2200.1" vType="car" speedFactor="0.94" vaporized=""/>
    <tripinfo id="flow_route_35_duration_20250327_2200.2" depart="24.00" departLane="485211947#0_0" departPos="61.39" departSpeed="0.00" departDelay="0.00" arrival="156.00" arrivalLane="1369578054_0" arrivalPos="205.27" arrivalSpeed="16.45" duration="132.00" routeLength="341.35" waitingTime="79.00" waitingCount="1" stopTime="0.00" timeLoss="110.35" rerouteNo="0" devices="tripinfo_flow_route_35_duration_20250327_2200.2" vType="car" speedFactor="0.99" vaporized=""/>
    <tripinfo id="flow_route_35_duration_20250327_2200.4" depart="48.00" departLane="485211947#0_0" departPos="57.03" departSpeed="0.00" departDelay="0.00" arrival="165.00" arrivalLane="1369578054_0" arrivalPos="287.64" arrivalSpeed="14.79" duration="117.00" routeLength="428.07" waitingTime="64.00" waitingCount="1" stopTime="0.00" timeLoss="86.25" rerouteNo="0" devices="tripinfo_flow_route_35_duration_20250327_2200.4" vType="car" speedFactor="0.89" vaporized=""/>
</tripinfos>
