<?xml version="1.0" encoding="UTF-8"?>

<!-- generated on 2025-05-06 21:07:55 by Eclipse SUMO sumo Version 1.20.0
<configuration xmlns:xsi="http://www.w3.org/2001/XMLSchema-instance" xsi:noNamespaceSchemaLocation="http://sumo.dlr.de/xsd/sumoConfiguration.xsd">

    <input>
        <net-file value="osm.net.xml"/>
        <route-files value="xml/route_static_cluster_2271368471_4779869278_1.rou.xml"/>
    </input>

    <output>
        <tripinfo-output value="xml/tripinfo_static_cluster_2271368471_4779869278_1.xml"/>
    </output>

    <traci_server>
        <remote-port value="51217"/>
    </traci_server>

</configuration>
-->

<tripinfos xmlns:xsi="http://www.w3.org/2001/XMLSchema-instance" xsi:noNamespaceSchemaLocation="http://sumo.dlr.de/xsd/tripinfo_file.xsd">
    <tripinfo id="flow_route_36_duration_20250327_2010.0" depart="0.00" departLane="485211947#0_0" departPos="162.24" departSpeed="0.00" departDelay="0.00" arrival="23.00" arrivalLane="137415945#0_0" arrivalPos="6.94" arrivalSpeed="15.19" duration="23.00" routeLength="189.23" waitingTime="0.00" waitingCount="0" stopTime="0.00" timeLoss="10.13" rerouteNo="0" devices="tripinfo_flow_route_36_duration_20250327_2010.0" vType="car" speedFactor="0.94" vaporized=""/>
    <tripinfo id="flow_route_35_duration_20250327_2010.1" depart="8.00" departLane="485211947#0_0" departPos="150.40" departSpeed="0.00" departDelay="3.39" arrival="28.00" arrivalLane="1369578054_0" arrivalPos="90.42" arrivalSpeed="13.75" duration="20.00" routeLength="137.48" waitingTime="0.00" waitingCount="0" stopTime="0.00" timeLoss="9.60" rerouteNo="0" devices="tripinfo_flow_route_35_duration_20250327_2010.1" vType="car" speedFactor="0.93" vaporized=""/>
    <tripinfo id="flow_route_37_duration_20250327_2010.0" depart="0.00" departLane="485211947#0_0" departPos="59.66" departSpeed="0.00" departDelay="0.00" arrival="33.00" arrivalLane="-430406005#1_1" arrivalPos="133.07" arrivalSpeed="16.05" duration="33.00" routeLength="286.39" waitingTime="0.00" waitingCount="0" stopTime="0.00" timeLoss="12.84" rerouteNo="0" devices="tripinfo_flow_route_37_duration_20250327_2010.0" vType="car" speedFactor="0.86" vaporized=""/>
    <tripinfo id="flow_route_36_duration_20250327_2010.1" depart="4.00" departLane="485211947#0_0" departPos="100.86" departSpeed="0.00" departDelay="1.39" arrival="33.00" arrivalLane="137415945#0_1" arrivalPos="11.95" arrivalSpeed="16.38" duration="29.00" routeLength="255.63" waitingTime="0.00" waitingCount="0" stopTime="0.00" timeLoss="13.07" rerouteNo="0" devices="tripinfo_flow_route_36_duration_20250327_2010.1" vType="car" speedFactor="1.05" vaporized=""/>
    <tripinfo id="flow_route_36_duration_20250327_2010.3" depart="8.00" departLane="485211947#0_0" departPos="132.59" departSpeed="0.00" departDelay="0.18" arrival="33.00" arrivalLane="137415945#0_0" arrivalPos="7.28" arrivalSpeed="16.60" duration="25.00" routeLength="219.22" waitingTime="0.00" waitingCount="0" stopTime="0.00" timeLoss="11.09" rerouteNo="0" devices="tripinfo_flow_route_36_duration_20250327_2010.3" vType="car" speedFactor="1.01" vaporized=""/>
    <tripinfo id="flow_route_35_duration_20250327_2010.3" depart="14.00" departLane="485211947#0_0" departPos="133.76" departSpeed="0.00" departDelay="0.16" arrival="33.00" arrivalLane="1369578054_0" arrivalPos="62.08" arrivalSpeed="12.50" duration="19.00" routeLength="125.78" waitingTime="0.00" waitingCount="0" stopTime="0.00" timeLoss="10.55" rerouteNo="0" devices="tripinfo_flow_route_35_duration_20250327_2010.3" vType="car" speedFactor="1.15" vaporized=""/>
    <tripinfo id="flow_route_35_duration_20250327_2010.0" depart="0.00" departLane="485211947#0_0" departPos="11.17" departSpeed="0.00" departDelay="0.00" arrival="38.00" arrivalLane="1369578054_0" arrivalPos="74.16" arrivalSpeed="13.12" duration="38.00" routeLength="260.46" waitingTime="0.00" waitingCount="0" stopTime="0.00" timeLoss="18.56" rerouteNo="0" devices="tripinfo_flow_route_35_duration_20250327_2010.0" vType="car" speedFactor="0.89" vaporized=""/>
    <tripinfo id="flow_route_36_duration_20250327_2010.2" depart="8.00" departLane="485211947#0_0" departPos="16.50" departSpeed="0.00" departDelay="2.78" arrival="40.00" arrivalLane="137415945#0_1" arrivalPos="8.72" arrivalSpeed="15.40" duration="32.00" routeLength="336.76" waitingTime="0.00" waitingCount="0" stopTime="0.00" timeLoss="9.79" rerouteNo="0" devices="tripinfo_flow_route_36_duration_20250327_2010.2" vType="car" speedFactor="0.94" vaporized=""/>
    <tripinfo id="flow_route_36_duration_20250327_2010.4" depart="11.00" departLane="485211947#0_0" departPos="33.16" departSpeed="0.00" departDelay="0.57" arrival="43.00" arrivalLane="137415945#0_1" arrivalPos="0.35" arrivalSpeed="16.53" duration="32.00" routeLength="311.72" waitingTime="0.00" waitingCount="0" stopTime="0.00" timeLoss="13.14" rerouteNo="0" devices="tripinfo_flow_route_36_duration_20250327_2010.4" vType="car" speedFactor="1.13" vaporized=""/>
    <tripinfo id="flow_route_37_duration_20250327_2010.1" depart="18.00" departLane="485211947#0_0" departPos="91.29" departSpeed="0.00" departDelay="3.00" arrival="45.00" arrivalLane="-430406005#1_1" arrivalPos="75.58" arrivalSpeed="14.35" duration="27.00" routeLength="197.27" waitingTime="0.00" waitingCount="0" stopTime="0.00" timeLoss="13.30" rerouteNo="0" devices="tripinfo_flow_route_37_duration_20250327_2010.1" vType="car" speedFactor="0.97" vaporized=""/>
    <tripinfo id="flow_route_36_duration_20250327_2010.5" depart="14.00" departLane="485211947#0_0" departPos="65.19" departSpeed="0.00" departDelay="0.96" arrival="46.00" arrivalLane="137415945#0_1" arrivalPos="2.30" arrivalSpeed="16.55" duration="32.00" routeLength="281.64" waitingTime="0.00" waitingCount="0" stopTime="0.00" timeLoss="14.89" rerouteNo="0" devices="tripinfo_flow_route_36_duration_20250327_2010.5" vType="car" speedFactor="1.01" vaporized=""/>
    <tripinfo id="flow_route_35_duration_20250327_2010.2" depart="11.00" departLane="485211947#0_0" departPos="12.41" departSpeed="0.00" departDelay="1.77" arrival="47.00" arrivalLane="1369578054_0" arrivalPos="50.46" arrivalSpeed="10.81" duration="36.00" routeLength="235.51" waitingTime="0.00" waitingCount="0" stopTime="0.00" timeLoss="18.92" rerouteNo="0" devices="tripinfo_flow_route_35_duration_20250327_2010.2" vType="car" speedFactor="0.92" vaporized=""/>
    <tripinfo id="flow_route_36_duration_20250327_2010.9" depart="28.00" departLane="485211947#0_0" departPos="170.21" departSpeed="0.00" departDelay="4.53" arrival="50.00" arrivalLane="137415945#0_0" arrivalPos="5.48" arrivalSpeed="15.91" duration="22.00" routeLength="179.80" waitingTime="0.00" waitingCount="0" stopTime="0.00" timeLoss="10.93" rerouteNo="0" devices="tripinfo_flow_route_36_duration_20250327_2010.9" vType="car" speedFactor="1.10" vaporized=""/>
    <tripinfo id="flow_route_36_duration_20250327_2010.6" depart="20.00" departLane="485211947#0_0" departPos="122.63" departSpeed="0.00" departDelay="4.35" arrival="52.00" arrivalLane="137415945#0_1" arrivalPos="5.31" arrivalSpeed="16.50" duration="32.00" routeLength="227.21" waitingTime="0.00" waitingCount="0" stopTime="0.00" timeLoss="17.37" rerouteNo="0" devices="tripinfo_flow_route_36_duration_20250327_2010.6" vType="car" speedFactor="1.10" vaporized=""/>
    <tripinfo id="flow_route_36_duration_20250327_2010.8" depart="24.00" departLane="485211947#0_0" departPos="51.38" departSpeed="0.00" departDelay="3.14" arrival="54.00" arrivalLane="137415945#0_0" arrivalPos="1.58" arrivalSpeed="14.23" duration="30.00" routeLength="294.73" waitingTime="0.00" waitingCount="0" stopTime="0.00" timeLoss="9.34" rerouteNo="0" devices="tripinfo_flow_route_36_duration_20250327_2010.8" vType="car" speedFactor="0.88" vaporized=""/>
    <tripinfo id="flow_route_30_duration_20250327_2010.0" depart="0.00" departLane="1235147073.116_0" departPos="7.14" departSpeed="0.00" departDelay="0.00" arrival="56.00" arrivalLane="133126030#0_0" arrivalPos="8.43" arrivalSpeed="6.97" duration="56.00" routeLength="175.81" waitingTime="25.00" waitingCount="1" stopTime="0.00" timeLoss="45.20" rerouteNo="0" devices="tripinfo_flow_route_30_duration_20250327_2010.0" vType="car" speedFactor="1.01" vaporized=""/>
    <tripinfo id="flow_route_35_duration_20250327_2010.4" depart="21.00" departLane="485211947#0_0" departPos="26.15" departSpeed="0.00" departDelay="2.54" arrival="59.00" arrivalLane="1369578054_0" arrivalPos="171.89" arrivalSpeed="16.39" duration="38.00" routeLength="343.19" waitingTime="0.00" waitingCount="0" stopTime="0.00" timeLoss="16.61" rerouteNo="0" devices="tripinfo_flow_route_35_duration_20250327_2010.4" vType="car" speedFactor="1.04" vaporized=""/>
    <tripinfo id="flow_route_32_duration_20250327_2010.2" depart="22.00" departLane="1235147073.116_0" departPos="5.69" departSpeed="0.00" departDelay="16.78" arrival="60.00" arrivalLane="1369578054_1" arrivalPos="8.94" arrivalSpeed="8.87" duration="38.00" routeLength="182.98" waitingTime="8.00" waitingCount="1" stopTime="0.00" timeLoss="24.68" rerouteNo="0" devices="tripinfo_flow_route_32_duration_20250327_2010.2" vType="car" speedFactor="0.88" vaporized=""/>
    <tripinfo id="flow_route_31_duration_20250327_2010.2" depart="14.00" departLane="1235147073.116_0" departPos="0.72" departSpeed="0.00" departDelay="9.00" arrival="61.00" arrivalLane="-430406005#1_0" arrivalPos="5.79" arrivalSpeed="7.23" duration="47.00" routeLength="168.03" waitingTime="14.00" waitingCount="2" stopTime="0.00" timeLoss="35.39" rerouteNo="0" devices="tripinfo_flow_route_31_duration_20250327_2010.2" vType="car" speedFactor="0.99" vaporized=""/>
    <tripinfo id="flow_route_31_duration_20250327_2010.0" depart="2.00" departLane="1235147073.116_0" departPos="0.71" departSpeed="0.00" departDelay="2.00" arrival="64.00" arrivalLane="-430406005#1_0" arrivalPos="87.77" arrivalSpeed="12.81" duration="62.00" routeLength="250.02" waitingTime="23.00" waitingCount="1" stopTime="0.00" timeLoss="46.12" rerouteNo="0" devices="tripinfo_flow_route_31_duration_20250327_2010.0" vType="car" speedFactor="1.08" vaporized=""/>
    <tripinfo id="flow_route_31_duration_20250327_2010.1" depart="11.00" departLane="1235147073.116_0" departPos="4.27" departSpeed="0.00" departDelay="8.50" arrival="64.00" arrivalLane="-430406005#1_0" arrivalPos="54.84" arrivalSpeed="10.78" duration="53.00" routeLength="213.53" waitingTime="14.00" waitingCount="1" stopTime="0.00" timeLoss="39.24" rerouteNo="0" devices="tripinfo_flow_route_31_duration_20250327_2010.1" vType="car" speedFactor="1.09" vaporized=""/>
    <tripinfo id="flow_route_31_duration_20250327_2010.3" depart="25.00" departLane="1235147073.116_0" departPos="8.78" departSpeed="0.00" departDelay="17.50" arrival="66.00" arrivalLane="-430406005#1_0" arrivalPos="39.85" arrivalSpeed="10.39" duration="41.00" routeLength="194.03" waitingTime="5.00" waitingCount="1" stopTime="0.00" timeLoss="28.58" rerouteNo="0" devices="tripinfo_flow_route_31_duration_20250327_2010.3" vType="car" speedFactor="1.16" vaporized=""/>
    <tripinfo id="flow_route_32_duration_20250327_2010.3" depart="31.00" departLane="1235147073.116_0" departPos="6.84" departSpeed="0.00" departDelay="23.18" arrival="68.00" arrivalLane="1369578054_1" arrivalPos="50.33" arrivalSpeed="12.07" duration="37.00" routeLength="223.22" waitingTime="0.00" waitingCount="0" stopTime="0.00" timeLoss="22.20" rerouteNo="0" devices="tripinfo_flow_route_32_duration_20250327_2010.3" vType="car" speedFactor="1.02" vaporized=""/>
    <tripinfo id="flow_route_32_duration_20250327_2010.0" depart="7.00" departLane="1235147073.116_0" departPos="1.92" departSpeed="0.00" departDelay="7.00" arrival="69.00" arrivalLane="1369578054_1" arrivalPos="176.77" arrivalSpeed="16.12" duration="62.00" routeLength="354.58" waitingTime="18.00" waitingCount="1" stopTime="0.00" timeLoss="39.67" rerouteNo="0" devices="tripinfo_flow_route_32_duration_20250327_2010.0" vType="car" speedFactor="1.03" vaporized=""/>
    <tripinfo id="flow_route_32_duration_20250327_2010.4" depart="38.00" departLane="1235147073.116_0" departPos="0.11" departSpeed="0.00" departDelay="27.57" arrival="69.00" arrivalLane="1369578054_1" arrivalPos="45.50" arrivalSpeed="12.08" duration="31.00" routeLength="225.11" waitingTime="0.00" waitingCount="0" stopTime="0.00" timeLoss="15.72" rerouteNo="0" devices="tripinfo_flow_route_32_duration_20250327_2010.4" vType="car" speedFactor="0.95" vaporized=""/>
    <tripinfo id="flow_route_32_duration_20250327_2010.1" depart="12.00" departLane="1235147073.116_0" departPos="15.19" departSpeed="0.00" departDelay="9.39" arrival="72.00" arrivalLane="1369578054_1" arrivalPos="189.81" arrivalSpeed="16.25" duration="60.00" routeLength="354.35" waitingTime="13.00" waitingCount="1" stopTime="0.00" timeLoss="37.61" rerouteNo="0" devices="tripinfo_flow_route_32_duration_20250327_2010.1" vType="car" speedFactor="1.03" vaporized=""/>
    <tripinfo id="flow_route_31_duration_20250327_2010.5" depart="41.00" departLane="1235147073.116_0" departPos="13.85" departSpeed="0.00" departDelay="28.50" arrival="73.00" arrivalLane="-430406005#1_0" arrivalPos="60.54" arrivalSpeed="11.45" duration="32.00" routeLength="209.65" waitingTime="0.00" waitingCount="0" stopTime="0.00" timeLoss="17.37" rerouteNo="0" devices="tripinfo_flow_route_31_duration_20250327_2010.5" vType="car" speedFactor="0.93" vaporized=""/>
    <tripinfo id="flow_route_31_duration_20250327_2010.4" depart="34.00" departLane="1235147073.116_0" departPos="3.49" departSpeed="0.00" departDelay="24.00" arrival="75.00" arrivalLane="-430406005#1_0" arrivalPos="103.59" arrivalSpeed="14.20" duration="41.00" routeLength="263.07" waitingTime="0.00" waitingCount="0" stopTime="0.00" timeLoss="22.11" rerouteNo="0" devices="tripinfo_flow_route_31_duration_20250327_2010.4" vType="car" speedFactor="0.87" vaporized=""/>
    <tripinfo id="flow_route_31_duration_20250327_2010.6" depart="44.00" departLane="1235147073.116_0" departPos="0.75" departSpeed="0.00" departDelay="29.00" arrival="79.00" arrivalLane="-430406005#1_0" arrivalPos="121.21" arrivalSpeed="15.56" duration="35.00" routeLength="283.42" waitingTime="0.00" waitingCount="0" stopTime="0.00" timeLoss="16.85" rerouteNo="0" devices="tripinfo_flow_route_31_duration_20250327_2010.6" vType="car" speedFactor="1.02" vaporized=""/>
    <tripinfo id="flow_route_32_duration_20250327_2010.5" depart="42.00" departLane="1235147073.116_0" departPos="6.84" departSpeed="0.00" departDelay="28.96" arrival="81.00" arrivalLane="1369578054_1" arrivalPos="169.94" arrivalSpeed="16.36" duration="39.00" routeLength="342.83" waitingTime="0.00" waitingCount="0" stopTime="0.00" timeLoss="17.69" rerouteNo="0" devices="tripinfo_flow_route_32_duration_20250327_2010.5" vType="car" speedFactor="1.18" vaporized=""/>
    <tripinfo id="flow_route_31_duration_20250327_2010.7" depart="55.00" departLane="1235147073.116_0" departPos="0.97" departSpeed="0.00" departDelay="37.50" arrival="82.00" arrivalLane="-430406005#1_0" arrivalPos="18.70" arrivalSpeed="9.13" duration="27.00" routeLength="180.70" waitingTime="0.00" waitingCount="0" stopTime="0.00" timeLoss="14.18" rerouteNo="0" devices="tripinfo_flow_route_31_duration_20250327_2010.7" vType="car" speedFactor="0.90" vaporized=""/>
    <tripinfo id="flow_route_31_duration_20250327_2010.8" depart="62.00" departLane="1235147073.116_0" departPos="5.49" departSpeed="0.00" departDelay="42.00" arrival="87.00" arrivalLane="-430406005#1_0" arrivalPos="18.13" arrivalSpeed="8.72" duration="25.00" routeLength="175.60" waitingTime="0.00" waitingCount="0" stopTime="0.00" timeLoss="13.31" rerouteNo="0" devices="tripinfo_flow_route_31_duration_20250327_2010.8" vType="car" speedFactor="1.00" vaporized=""/>
    <tripinfo id="flow_route_32_duration_20250327_2010.6" depart="52.00" departLane="1235147073.116_0" departPos="6.23" departSpeed="0.00" departDelay="36.35" arrival="89.00" arrivalLane="1369578054_1" arrivalPos="175.29" arrivalSpeed="16.19" duration="37.00" routeLength="348.80" waitingTime="0.00" waitingCount="0" stopTime="0.00" timeLoss="15.31" rerouteNo="0" devices="tripinfo_flow_route_32_duration_20250327_2010.6" vType="car" speedFactor="1.18" vaporized=""/>
    <tripinfo id="flow_route_32_duration_20250327_2010.7" depart="56.00" departLane="1235147073.116_0" departPos="10.79" departSpeed="0.00" departDelay="37.74" arrival="97.00" arrivalLane="1369578054_1" arrivalPos="261.83" arrivalSpeed="16.39" duration="41.00" routeLength="430.78" waitingTime="0.00" waitingCount="0" stopTime="0.00" timeLoss="14.41" rerouteNo="0" devices="tripinfo_flow_route_32_duration_20250327_2010.7" vType="car" speedFactor="1.09" vaporized=""/>
    <tripinfo id="flow_route_33_duration_20250327_2010.0" depart="0.00" departLane="133126008#0_0" departPos="101.07" departSpeed="0.00" departDelay="0.00" arrival="103.00" arrivalLane="1369578054_1" arrivalPos="13.07" arrivalSpeed="8.69" duration="103.00" routeLength="125.36" waitingTime="77.00" waitingCount="1" stopTime="0.00" timeLoss="95.08" rerouteNo="0" devices="tripinfo_flow_route_33_duration_20250327_2010.0" vType="car" speedFactor="0.83" vaporized=""/>
    <tripinfo id="flow_route_31_duration_20250327_2010.9" depart="68.00" departLane="1235147073.116_0" departPos="8.27" departSpeed="0.00" departDelay="45.50" arrival="105.00" arrivalLane="-430406005#1_0" arrivalPos="174.70" arrivalSpeed="16.43" duration="37.00" routeLength="329.39" waitingTime="0.00" waitingCount="0" stopTime="0.00" timeLoss="13.50" rerouteNo="0" devices="tripinfo_flow_route_31_duration_20250327_2010.9" vType="car" speedFactor="0.85" vaporized=""/>
    <tripinfo id="flow_route_28_duration_20250327_2010.2" depart="11.00" departLane="-422986370#2_0" departPos="278.01" departSpeed="0.00" departDelay="1.00" arrival="110.00" arrivalLane="-430406005#1_0" arrivalPos="87.97" arrivalSpeed="12.98" duration="99.00" routeLength="144.38" waitingTime="73.00" waitingCount="1" stopTime="0.00" timeLoss="89.93" rerouteNo="0" devices="tripinfo_flow_route_28_duration_20250327_2010.2" vType="car" speedFactor="0.83" vaporized=""/>
    <tripinfo id="flow_route_28_duration_20250327_2010.1" depart="5.00" departLane="-422986370#2_0" departPos="47.66" departSpeed="0.00" departDelay="0.00" arrival="111.00" arrivalLane="-430406005#1_1" arrivalPos="42.28" arrivalSpeed="11.27" duration="106.00" routeLength="329.04" waitingTime="57.00" waitingCount="1" stopTime="0.00" timeLoss="85.86" rerouteNo="0" devices="tripinfo_flow_route_28_duration_20250327_2010.1" vType="car" speedFactor="1.12" vaporized=""/>
    <tripinfo id="flow_route_34_duration_20250327_2010.0" depart="0.00" departLane="133126008#0_0" departPos="47.21" departSpeed="0.00" departDelay="0.00" arrival="113.00" arrivalLane="133126030#0_0" arrivalPos="137.72" arrivalSpeed="15.41" duration="113.00" routeLength="278.03" waitingTime="74.00" waitingCount="1" stopTime="0.00" timeLoss="95.13" rerouteNo="0" devices="tripinfo_flow_route_34_duration_20250327_2010.0" vType="car" speedFactor="1.05" vaporized=""/>
    <tripinfo id="flow_route_29_duration_20250327_2010.0" depart="0.00" departLane="-422986370#2_0" departPos="201.60" departSpeed="0.00" departDelay="0.00" arrival="114.00" arrivalLane="137415945#0_0" arrivalPos="9.07" arrivalSpeed="15.33" duration="114.00" routeLength="253.29" waitingTime="71.00" waitingCount="1" stopTime="0.00" timeLoss="96.77" rerouteNo="0" devices="tripinfo_flow_route_29_duration_20250327_2010.0" vType="car" speedFactor="0.94" vaporized=""/>
    <tripinfo id="flow_route_28_duration_20250327_2010.3" depart="15.00" departLane="-422986370#2_0" departPos="116.75" departSpeed="0.00" departDelay="0.00" arrival="114.00" arrivalLane="-430406005#1_1" arrivalPos="51.80" arrivalSpeed="12.78" duration="99.00" routeLength="269.48" waitingTime="57.00" waitingCount="1" stopTime="0.00" timeLoss="82.04" rerouteNo="0" devices="tripinfo_flow_route_28_duration_20250327_2010.3" vType="car" speedFactor="1.17" vaporized=""/>
    <tripinfo id="flow_route_28_duration_20250327_2010.0" depart="0.00" departLane="-422986370#2_0" departPos="1.81" departSpeed="0.00" departDelay="0.00" arrival="115.00" arrivalLane="-430406005#1_0" arrivalPos="159.13" arrivalSpeed="16.41" duration="115.00" routeLength="491.75" waitingTime="61.00" waitingCount="1" stopTime="0.00" timeLoss="84.88" rerouteNo="0" devices="tripinfo_flow_route_28_duration_20250327_2010.0" vType="car" speedFactor="1.06" vaporized=""/>
    <tripinfo id="flow_route_34_duration_20250327_2010.1" depart="9.00" departLane="133126008#0_0" departPos="54.93" departSpeed="0.00" departDelay="0.43" arrival="115.00" arrivalLane="133126030#0_0" arrivalPos="128.15" arrivalSpeed="14.54" duration="106.00" routeLength="260.73" waitingTime="66.00" waitingCount="1" stopTime="0.00" timeLoss="88.12" rerouteNo="0" devices="tripinfo_flow_route_34_duration_20250327_2010.1" vType="car" speedFactor="0.89" vaporized=""/>
    <tripinfo id="flow_route_28_duration_20250327_2010.5" depart="26.00" departLane="-422986370#2_0" departPos="265.76" departSpeed="0.00" departDelay="1.00" arrival="115.00" arrivalLane="-430406005#1_1" arrivalPos="121.59" arrivalSpeed="14.81" duration="89.00" routeLength="190.26" waitingTime="58.00" waitingCount="1" stopTime="0.00" timeLoss="77.37" rerouteNo="0" devices="tripinfo_flow_route_28_duration_20250327_2010.5" vType="car" speedFactor="1.00" vaporized=""/>
    <tripinfo id="flow_route_29_duration_20250327_2010.1" depart="8.00" departLane="-422986370#2_0" departPos="200.14" departSpeed="0.00" departDelay="0.50" arrival="116.00" arrivalLane="137415945#0_0" arrivalPos="3.36" arrivalSpeed="15.36" duration="108.00" routeLength="249.04" waitingTime="69.00" waitingCount="1" stopTime="0.00" timeLoss="90.39" rerouteNo="0" devices="tripinfo_flow_route_29_duration_20250327_2010.1" vType="car" speedFactor="0.94" vaporized=""/>
    <tripinfo id="flow_route_33_duration_20250327_2010.1" depart="9.00" departLane="133126008#0_0" departPos="171.33" departSpeed="0.00" departDelay="0.43" arrival="116.00" arrivalLane="1369578054_0" arrivalPos="178.65" arrivalSpeed="16.01" duration="107.00" routeLength="220.68" waitingTime="78.00" waitingCount="1" stopTime="0.00" timeLoss="92.93" rerouteNo="0" devices="tripinfo_flow_route_33_duration_20250327_2010.1" vType="car" speedFactor="0.97" vaporized=""/>
    <tripinfo id="flow_route_28_duration_20250327_2010.7" depart="36.00" departLane="-422986370#2_0" departPos="237.55" departSpeed="0.00" departDelay="1.00" arrival="116.00" arrivalLane="-430406005#1_1" arrivalPos="57.30" arrivalSpeed="13.49" duration="80.00" routeLength="154.18" waitingTime="49.00" waitingCount="1" stopTime="0.00" timeLoss="70.19" rerouteNo="0" devices="tripinfo_flow_route_28_duration_20250327_2010.7" vType="car" speedFactor="0.98" vaporized=""/>
    <tripinfo id="flow_route_28_duration_20250327_2010.8" depart="41.00" departLane="-422986370#2_0" departPos="69.19" departSpeed="0.00" departDelay="1.00" arrival="116.00" arrivalLane="-430406005#1_1" arrivalPos="19.59" arrivalSpeed="11.63" duration="75.00" routeLength="284.82" waitingTime="34.00" waitingCount="1" stopTime="0.00" timeLoss="57.69" rerouteNo="0" devices="tripinfo_flow_route_28_duration_20250327_2010.8" vType="car" speedFactor="1.15" vaporized=""/>
    <tripinfo id="flow_route_28_duration_20250327_2010.9" depart="45.00" departLane="-422986370#2_0" departPos="46.01" departSpeed="0.00" departDelay="0.00" arrival="117.00" arrivalLane="-430406005#1_1" arrivalPos="7.06" arrivalSpeed="11.52" duration="72.00" routeLength="295.49" waitingTime="27.00" waitingCount="1" stopTime="0.00" timeLoss="53.91" rerouteNo="0" devices="tripinfo_flow_route_28_duration_20250327_2010.9" vType="car" speedFactor="1.09" vaporized=""/>
    <tripinfo id="flow_route_34_duration_20250327_2010.2" depart="19.00" departLane="133126008#0_0" departPos="61.20" departSpeed="0.00" departDelay="1.86" arrival="118.00" arrivalLane="133126030#0_0" arrivalPos="115.85" arrivalSpeed="13.95" duration="99.00" routeLength="242.17" waitingTime="59.00" waitingCount="1" stopTime="0.00" timeLoss="83.35" rerouteNo="0" devices="tripinfo_flow_route_34_duration_20250327_2010.2" vType="car" speedFactor="0.96" vaporized=""/>
    <tripinfo id="flow_route_29_duration_20250327_2010.3" depart="23.00" departLane="-422986370#2_0" departPos="270.92" departSpeed="0.00" departDelay="0.50" arrival="120.00" arrivalLane="137415945#0_0" arrivalPos="8.60" arrivalSpeed="14.01" duration="97.00" routeLength="183.50" waitingTime="68.00" waitingCount="1" stopTime="0.00" timeLoss="82.07" rerouteNo="0" devices="tripinfo_flow_route_29_duration_20250327_2010.3" vType="car" speedFactor="0.85" vaporized=""/>
    <tripinfo id="flow_route_34_duration_20250327_2010.3" depart="29.00" departLane="133126008#0_0" departPos="146.24" departSpeed="0.00" departDelay="3.29" arrival="120.00" arrivalLane="133126030#0_0" arrivalPos="175.06" arrivalSpeed="16.33" duration="91.00" routeLength="216.34" waitingTime="60.00" waitingCount="1" stopTime="0.00" timeLoss="77.51" rerouteNo="0" devices="tripinfo_flow_route_34_duration_20250327_2010.3" vType="car" speedFactor="1.14" vaporized=""/>
    <tripinfo id="flow_route_29_duration_20250327_2010.2" depart="15.00" departLane="-422986370#2_0" departPos="153.62" departSpeed="0.00" departDelay="0.00" arrival="121.00" arrivalLane="137415945#0_0" arrivalPos="2.70" arrivalSpeed="14.67" duration="106.00" routeLength="294.91" waitingTime="61.00" waitingCount="1" stopTime="0.00" timeLoss="87.02" rerouteNo="0" devices="tripinfo_flow_route_29_duration_20250327_2010.2" vType="car" speedFactor="0.99" vaporized=""/>
    <tripinfo id="flow_route_34_duration_20250327_2010.4" depart="36.00" departLane="133126008#0_0" departPos="15.10" departSpeed="0.00" departDelay="1.72" arrival="121.00" arrivalLane="133126030#0_0" arrivalPos="86.31" arrivalSpeed="13.03" duration="85.00" routeLength="258.74" waitingTime="38.00" waitingCount="1" stopTime="0.00" timeLoss="68.43" rerouteNo="0" devices="tripinfo_flow_route_34_duration_20250327_2010.4" vType="car" speedFactor="1.01" vaporized=""/>
    <tripinfo id="flow_route_33_duration_20250327_2010.2" depart="18.00" departLane="133126008#0_0" departPos="126.85" departSpeed="0.00" departDelay="0.86" arrival="123.00" arrivalLane="1369578054_1" arrivalPos="262.35" arrivalSpeed="16.21" duration="105.00" routeLength="348.85" waitingTime="63.00" waitingCount="1" stopTime="0.00" timeLoss="83.59" rerouteNo="0" devices="tripinfo_flow_route_33_duration_20250327_2010.2" vType="car" speedFactor="1.03" vaporized=""/>
    <tripinfo id="flow_route_28_duration_20250327_2010.4" depart="20.00" departLane="-422986370#2_0" departPos="84.24" departSpeed="0.00" departDelay="0.00" arrival="123.00" arrivalLane="-430406005#1_0" arrivalPos="124.92" arrivalSpeed="16.38" duration="103.00" routeLength="375.12" waitingTime="54.00" waitingCount="1" stopTime="0.00" timeLoss="79.45" rerouteNo="0" devices="tripinfo_flow_route_28_duration_20250327_2010.4" vType="car" speedFactor="1.09" vaporized=""/>
    <tripinfo id="flow_route_34_duration_20250327_2010.5" depart="46.00" departLane="133126008#0_0" departPos="43.10" departSpeed="0.00" departDelay="3.15" arrival="123.00" arrivalLane="133126030#0_0" arrivalPos="67.73" arrivalSpeed="11.00" duration="77.00" routeLength="212.15" waitingTime="37.00" waitingCount="1" stopTime="0.00" timeLoss="62.16" rerouteNo="0" devices="tripinfo_flow_route_34_duration_20250327_2010.5" vType="car" speedFactor="0.92" vaporized=""/>
    <tripinfo id="flow_route_33_duration_20250327_2010.3" depart="28.00" departLane="133126008#0_0" departPos="2.08" departSpeed="0.00" departDelay="2.29" arrival="125.00" arrivalLane="1369578054_1" arrivalPos="246.03" arrivalSpeed="14.94" duration="97.00" routeLength="457.31" waitingTime="44.00" waitingCount="1" stopTime="0.00" timeLoss="67.47" rerouteNo="0" devices="tripinfo_flow_route_33_duration_20250327_2010.3" vType="car" speedFactor="0.90" vaporized=""/>
    <tripinfo id="flow_route_28_duration_20250327_2010.6" depart="30.00" departLane="-422986370#2_0" departPos="62.16" departSpeed="0.00" departDelay="0.00" arrival="125.00" arrivalLane="-430406005#1_1" arrivalPos="178.01" arrivalSpeed="16.21" duration="95.00" routeLength="450.28" waitingTime="40.00" waitingCount="1" stopTime="0.00" timeLoss="66.91" rerouteNo="0" devices="tripinfo_flow_route_28_duration_20250327_2010.6" vType="car" speedFactor="0.94" vaporized=""/>
    <tripinfo id="flow_route_29_duration_20250327_2010.5" depart="39.00" departLane="-422986370#2_0" departPos="118.15" departSpeed="0.00" departDelay="1.50" arrival="125.00" arrivalLane="137415945#0_0" arrivalPos="1.52" arrivalSpeed="15.67" duration="86.00" routeLength="329.19" waitingTime="39.00" waitingCount="1" stopTime="0.00" timeLoss="64.74" rerouteNo="0" devices="tripinfo_flow_route_29_duration_20250327_2010.5" vType="car" speedFactor="1.02" vaporized=""/>
    <tripinfo id="flow_route_33_duration_20250327_2010.4" depart="36.00" departLane="133126008#0_0" departPos="71.98" departSpeed="0.00" departDelay="1.72" arrival="127.00" arrivalLane="1369578054_1" arrivalPos="254.92" arrivalSpeed="15.96" duration="91.00" routeLength="396.30" waitingTime="43.00" waitingCount="1" stopTime="0.00" timeLoss="66.60" rerouteNo="0" devices="tripinfo_flow_route_33_duration_20250327_2010.4" vType="car" speedFactor="0.98" vaporized=""/>
    <tripinfo id="flow_route_34_duration_20250327_2010.6" depart="54.00" departLane="133126008#0_0" departPos="1.40" departSpeed="0.00" departDelay="2.57" arrival="127.00" arrivalLane="133126030#0_0" arrivalPos="93.81" arrivalSpeed="13.27" duration="73.00" routeLength="279.93" waitingTime="27.00" waitingCount="1" stopTime="0.00" timeLoss="54.68" rerouteNo="0" devices="tripinfo_flow_route_34_duration_20250327_2010.6" vType="car" speedFactor="0.93" vaporized=""/>