<?xml version="1.0" encoding="UTF-8"?>

<!-- generated on 2025-05-06 21:08:06 by Eclipse SUMO sumo Version 1.20.0
<configuration xmlns:xsi="http://www.w3.org/2001/XMLSchema-instance" xsi:noNamespaceSchemaLocation="http://sumo.dlr.de/xsd/sumoConfiguration.xsd">

    <input>
        <net-file value="osm.net.xml"/>
        <route-files value="xml/route_static_cluster3828547534_cluster_1507433914_2954854770_2954854771_2954854772_#9more_2.rou.xml"/>
    </input>

    <output>
        <tripinfo-output value="xml/tripinfo_static_cluster3828547534_cluster_1507433914_2954854770_2954854771_2954854772_#9more_2.xml"/>
    </output>

    <traci_server>
        <remote-port value="59135"/>
    </traci_server>

</configuration>
-->

<tripinfos xmlns:xsi="http://www.w3.org/2001/XMLSchema-instance" xsi:noNamespaceSchemaLocation="http://sumo.dlr.de/xsd/tripinfo_file.xsd">
    <tripinfo id="flow_route_22_duration_20250327_1940.0" depart="0.00" departLane="137415945#0_0" departPos="8.70" departSpeed="0.00" departDelay="0.00" arrival="24.00" arrivalLane="1342054204_0" arrivalPos="47.56" arrivalSpeed="15.23" duration="24.00" routeLength="232.19" waitingTime="0.00" waitingCount="0" stopTime="0.00" timeLoss="8.96" rerouteNo="0" devices="tripinfo_flow_route_22_duration_20250327_1940.0" vType="car" speedFactor="0.94" vaporized=""/>
    <tripinfo id="flow_route_6_duration_20250327_1940.0" depart="0.00" departLane="1252820505#0_0" departPos="39.30" departSpeed="0.00" departDelay="0.00" arrival="25.00" arrivalLane="379698350#0_0" arrivalPos="9.38" arrivalSpeed="12.08" duration="25.00" routeLength="129.45" waitingTime="0.00" waitingCount="0" stopTime="0.00" timeLoss="16.52" rerouteNo="0" devices="tripinfo_flow_route_6_duration_20250327_1940.0" vType="car" speedFactor="1.01" vaporized=""/>
    <tripinfo id="flow_route_10_duration_20250327_1940.0" depart="0.00" departLane="1252820505#0_0" departPos="5.24" departSpeed="0.00" departDelay="0.00" arrival="28.00" arrivalLane="1235147073.116_1" arrivalPos="0.67" arrivalSpeed="13.36" duration="28.00" routeLength="263.17" waitingTime="0.00" waitingCount="0" stopTime="0.00" timeLoss="8.55" rerouteNo="0" devices="tripinfo_flow_route_10_duration_20250327_1940.0" vType="car" speedFactor="0.83" vaporized=""/>
    <tripinfo id="flow_route_24_duration_20250327_1940.0" depart="5.00" departLane="137415945#0_0" departPos="0.41" departSpeed="0.00" departDelay="5.00" arrival="28.00" arrivalLane="137406408#0_0" arrivalPos="0.56" arrivalSpeed="15.22" duration="23.00" routeLength="169.14" waitingTime="0.00" waitingCount="0" stopTime="0.00" timeLoss="12.70" rerouteNo="0" devices="tripinfo_flow_route_24_duration_20250327_1940.0" vType="car" speedFactor="1.09" vaporized=""/>
    <tripinfo id="flow_route_10_duration_20250327_1940.1" depart="8.00" departLane="1252820505#0_0" departPos="83.84" departSpeed="0.00" departDelay="0.50" arrival="30.00" arrivalLane="1235147073.116_0" arrivalPos="5.07" arrivalSpeed="15.10" duration="22.00" routeLength="188.97" waitingTime="0.00" waitingCount="0" stopTime="0.00" timeLoss="9.15" rerouteNo="0" devices="tripinfo_flow_route_10_duration_20250327_1940.1" vType="car" speedFactor="0.93" vaporized=""/>
    <tripinfo id="flow_route_6_duration_20250327_1940.1" depart="10.00" departLane="1252820505#0_0" departPos="60.11" departSpeed="0.00" departDelay="0.00" arrival="30.00" arrivalLane="379698350#0_0" arrivalPos="49.78" arrivalSpeed="15.17" duration="20.00" routeLength="149.04" waitingTime="0.00" waitingCount="0" stopTime="0.00" timeLoss="10.51" rerouteNo="0" devices="tripinfo_flow_route_6_duration_20250327_1940.1" vType="car" speedFactor="1.02" vaporized=""/>
    <tripinfo id="flow_route_22_duration_20250327_1940.1" depart="6.00" departLane="137415945#0_0" departPos="12.18" departSpeed="0.00" departDelay="2.25" arrival="32.00" arrivalLane="1342054204_0" arrivalPos="71.90" arrivalSpeed="16.25" duration="26.00" routeLength="253.06" waitingTime="0.00" waitingCount="0" stopTime="0.00" timeLoss="10.18" rerouteNo="0" devices="tripinfo_flow_route_22_duration_20250327_1940.1" vType="car" speedFactor="1.03" vaporized=""/>
    <tripinfo id="flow_route_8_duration_20250327_1940.2" depart="10.00" departLane="133000078#0_0" departPos="193.07" departSpeed="0.00" departDelay="0.77" arrival="38.00" arrivalLane="1235147073.116_0" arrivalPos="12.43" arrivalSpeed="15.63" duration="28.00" routeLength="179.54" waitingTime="1.00" waitingCount="1" stopTime="0.00" timeLoss="16.18" rerouteNo="0" devices="tripinfo_flow_route_8_duration_20250327_1940.2" vType="car" speedFactor="1.01" vaporized=""/>
    <tripinfo id="flow_route_8_duration_20250327_1940.1" depart="5.00" departLane="133000078#0_0" departPos="157.85" departSpeed="0.00" departDelay="0.39" arrival="40.00" arrivalLane="1235147073.116_0" arrivalPos="6.07" arrivalSpeed="16.12" duration="35.00" routeLength="208.40" waitingTime="1.00" waitingCount="1" stopTime="0.00" timeLoss="21.23" rerouteNo="0" devices="tripinfo_flow_route_8_duration_20250327_1940.1" vType="car" speedFactor="1.05" vaporized=""/>
    <tripinfo id="flow_route_11_duration_20250327_1940.1" depart="13.00" departLane="1252820505#0_0" departPos="13.20" departSpeed="0.00" departDelay="1.00" arrival="43.00" arrivalLane="137406408#0_2" arrivalPos="28.41" arrivalSpeed="10.13" duration="30.00" routeLength="176.79" waitingTime="0.00" waitingCount="0" stopTime="0.00" timeLoss="17.74" rerouteNo="0" devices="tripinfo_flow_route_11_duration_20250327_1940.1" vType="car" speedFactor="0.89" vaporized=""/>
    <tripinfo id="flow_route_10_duration_20250327_1940.2" depart="15.00" departLane="1252820505#0_0" departPos="4.07" departSpeed="0.00" departDelay="0.00" arrival="43.00" arrivalLane="1235147073.116_1" arrivalPos="2.74" arrivalSpeed="16.22" duration="28.00" routeLength="266.41" waitingTime="0.00" waitingCount="0" stopTime="0.00" timeLoss="11.13" rerouteNo="0" devices="tripinfo_flow_route_10_duration_20250327_1940.2" vType="car" speedFactor="1.13" vaporized=""/>
    <tripinfo id="flow_route_6_duration_20250327_1940.2" depart="20.00" departLane="1252820505#0_0" departPos="26.31" departSpeed="0.00" departDelay="0.00" arrival="44.00" arrivalLane="379698350#0_0" arrivalPos="86.04" arrivalSpeed="15.98" duration="24.00" routeLength="219.09" waitingTime="0.00" waitingCount="0" stopTime="0.00" timeLoss="10.36" rerouteNo="0" devices="tripinfo_flow_route_6_duration_20250327_1940.2" vType="car" speedFactor="0.97" vaporized=""/>
    <tripinfo id="flow_route_11_duration_20250327_1940.0" depart="0.00" departLane="1252820505#0_0" departPos="76.11" departSpeed="0.00" departDelay="0.00" arrival="45.00" arrivalLane="137406408#0_2" arrivalPos="68.60" arrivalSpeed="13.09" duration="45.00" routeLength="154.08" waitingTime="15.00" waitingCount="1" stopTime="0.00" timeLoss="35.04" rerouteNo="0" devices="tripinfo_flow_route_11_duration_20250327_1940.0" vType="car" speedFactor="1.05" vaporized=""/>
    <tripinfo id="flow_route_10_duration_20250327_1940.3" depart="23.00" departLane="1252820505#0_0" departPos="84.44" departSpeed="0.00" departDelay="0.50" arrival="45.00" arrivalLane="1235147073.116_0" arrivalPos="10.88" arrivalSpeed="14.60" duration="22.00" routeLength="194.18" waitingTime="0.00" waitingCount="0" stopTime="0.00" timeLoss="8.47" rerouteNo="0" devices="tripinfo_flow_route_10_duration_20250327_1940.3" vType="car" speedFactor="0.90" vaporized=""/>
    <tripinfo id="flow_route_8_duration_20250327_1940.0" depart="0.00" departLane="133000078#0_0" departPos="54.62" departSpeed="0.00" departDelay="0.00" arrival="53.00" arrivalLane="1235147073.116_0" arrivalPos="9.03" arrivalSpeed="15.25" duration="53.00" routeLength="314.60" waitingTime="4.00" waitingCount="1" stopTime="0.00" timeLoss="32.93" rerouteNo="0" devices="tripinfo_flow_route_8_duration_20250327_1940.0" vType="car" speedFactor="1.03" vaporized=""/>
    <tripinfo id="flow_route_8_duration_20250327_1940.4" depart="19.00" departLane="133000078#0_0" departPos="170.46" departSpeed="0.00" departDelay="0.54" arrival="55.00" arrivalLane="1235147073.116_0" arrivalPos="9.42" arrivalSpeed="16.15" duration="36.00" routeLength="199.14" waitingTime="4.00" waitingCount="1" stopTime="0.00" timeLoss="22.80" rerouteNo="0" devices="tripinfo_flow_route_8_duration_20250327_1940.4" vType="car" speedFactor="1.17" vaporized=""/>
    <tripinfo id="flow_route_8_duration_20250327_1940.5" depart="24.00" departLane="133000078#0_0" departPos="144.43" departSpeed="0.00" departDelay="0.93" arrival="56.00" arrivalLane="1235147073.116_0" arrivalPos="4.54" arrivalSpeed="15.80" duration="32.00" routeLength="220.29" waitingTime="0.00" waitingCount="0" stopTime="0.00" timeLoss="17.80" rerouteNo="0" devices="tripinfo_flow_route_8_duration_20250327_1940.5" vType="car" speedFactor="1.09" vaporized=""/>
    <tripinfo id="flow_route_5_duration_20250327_1940.0" depart="0.00" departLane="291974733#0_0" departPos="43.68" departSpeed="0.00" departDelay="0.00" arrival="57.00" arrivalLane="1342054204_0" arrivalPos="62.15" arrivalSpeed="13.76" duration="57.00" routeLength="156.72" waitingTime="28.00" waitingCount="1" stopTime="0.00" timeLoss="45.42" rerouteNo="0" devices="tripinfo_flow_route_5_duration_20250327_1940.0" vType="car" speedFactor="0.94" vaporized=""/>
    <tripinfo id="flow_route_5_duration_20250327_1940.1" depart="10.00" departLane="291974733#0_0" departPos="55.87" departSpeed="0.00" departDelay="0.00" arrival="58.00" arrivalLane="1342054204_0" arrivalPos="49.86" arrivalSpeed="12.64" duration="48.00" routeLength="132.25" waitingTime="22.00" waitingCount="1" stopTime="0.00" timeLoss="39.66" rerouteNo="0" devices="tripinfo_flow_route_5_duration_20250327_1940.1" vType="car" speedFactor="1.16" vaporized=""/>
    <tripinfo id="flow_route_23_duration_20250327_1940.2" depart="22.00" departLane="137415945#0_0" departPos="11.77" departSpeed="0.00" departDelay="12.00" arrival="58.00" arrivalLane="379698350#0_2" arrivalPos="18.36" arrivalSpeed="11.29" duration="36.00" routeLength="198.94" waitingTime="0.00" waitingCount="0" stopTime="0.00" timeLoss="23.11" rerouteNo="0" devices="tripinfo_flow_route_23_duration_20250327_1940.2" vType="car" speedFactor="0.97" vaporized=""/>
    <tripinfo id="flow_route_23_duration_20250327_1940.1" depart="12.00" departLane="137415945#0_0" departPos="7.38" departSpeed="0.00" departDelay="7.00" arrival="59.00" arrivalLane="379698350#0_2" arrivalPos="48.82" arrivalSpeed="13.01" duration="47.00" routeLength="233.79" waitingTime="9.00" waitingCount="1" stopTime="0.00" timeLoss="32.04" rerouteNo="0" devices="tripinfo_flow_route_23_duration_20250327_1940.1" vType="car" speedFactor="0.99" vaporized=""/>
    <tripinfo id="flow_route_8_duration_20250327_1940.3" depart="15.00" departLane="133000078#0_0" departPos="42.78" departSpeed="0.00" departDelay="1.16" arrival="59.00" arrivalLane="1235147073.116_0" arrivalPos="4.27" arrivalSpeed="15.16" duration="44.00" routeLength="321.67" waitingTime="0.00" waitingCount="0" stopTime="0.00" timeLoss="21.19" rerouteNo="0" devices="tripinfo_flow_route_8_duration_20250327_1940.3" vType="car" speedFactor="0.92" vaporized=""/>
    <tripinfo id="flow_route_5_duration_20250327_1940.2" depart="20.00" departLane="291974733#0_0" departPos="2.23" departSpeed="0.00" departDelay="0.00" arrival="60.00" arrivalLane="1342054204_0" arrivalPos="51.03" arrivalSpeed="13.20" duration="40.00" routeLength="187.05" waitingTime="6.00" waitingCount="1" stopTime="0.00" timeLoss="27.83" rerouteNo="0" devices="tripinfo_flow_route_5_duration_20250327_1940.2" vType="car" speedFactor="1.02" vaporized=""/>
    <tripinfo id="flow_route_23_duration_20250327_1940.0" depart="0.00" departLane="137415945#0_0" departPos="0.59" departSpeed="0.00" departDelay="0.00" arrival="63.00" arrivalLane="379698350#0_2" arrivalPos="153.67" arrivalSpeed="14.05" duration="63.00" routeLength="345.44" waitingTime="19.00" waitingCount="1" stopTime="0.00" timeLoss="38.18" rerouteNo="0" devices="tripinfo_flow_route_23_duration_20250327_1940.0" vType="car" speedFactor="0.86" vaporized=""/>
    <tripinfo id="flow_route_5_duration_20250327_1940.3" depart="30.00" departLane="291974733#0_0" departPos="25.98" departSpeed="0.00" departDelay="0.00" arrival="63.00" arrivalLane="1342054204_0" arrivalPos="58.91" arrivalSpeed="12.89" duration="33.00" routeLength="171.18" waitingTime="1.00" waitingCount="1" stopTime="0.00" timeLoss="20.36" rerouteNo="0" devices="tripinfo_flow_route_5_duration_20250327_1940.3" vType="car" speedFactor="0.88" vaporized=""/>
    <tripinfo id="flow_route_4_duration_20250327_1940.0" depart="0.00" departLane="291974733#0_0" departPos="63.06" departSpeed="0.00" departDelay="0.00" arrival="66.00" arrivalLane="379698350#0_0" arrivalPos="183.76" arrivalSpeed="16.50" duration="66.00" routeLength="311.60" waitingTime="28.00" waitingCount="1" stopTime="0.00" timeLoss="46.80" rerouteNo="0" devices="tripinfo_flow_route_4_duration_20250327_1940.0" vType="car" speedFactor="1.06" vaporized=""/>
    <tripinfo id="flow_route_5_duration_20250327_1940.4" depart="40.00" departLane="291974733#0_0" departPos="41.84" departSpeed="0.00" departDelay="0.00" arrival="66.00" arrivalLane="1342054204_0" arrivalPos="73.59" arrivalSpeed="14.81" duration="26.00" routeLength="170.00" waitingTime="0.00" waitingCount="0" stopTime="0.00" timeLoss="13.43" rerouteNo="0" devices="tripinfo_flow_route_5_duration_20250327_1940.4" vType="car" speedFactor="0.91" vaporized=""/>
    <tripinfo id="flow_route_23_duration_20250327_1940.3" depart="38.00" departLane="137415945#0_0" departPos="5.01" departSpeed="0.00" departDelay="23.00" arrival="67.00" arrivalLane="379698350#0_2" arrivalPos="64.73" arrivalSpeed="14.39" duration="29.00" routeLength="252.07" waitingTime="0.00" waitingCount="0" stopTime="0.00" timeLoss="13.51" rerouteNo="0" devices="tripinfo_flow_route_23_duration_20250327_1940.3" vType="car" speedFactor="1.18" vaporized=""/>
    <tripinfo id="flow_route_5_duration_20250327_1940.5" depart="51.00" departLane="291974733#0_0" departPos="10.28" departSpeed="0.00" departDelay="1.00" arrival="73.00" arrivalLane="1342054204_0" arrivalPos="0.64" arrivalSpeed="10.41" duration="22.00" routeLength="128.61" waitingTime="0.00" waitingCount="0" stopTime="0.00" timeLoss="12.91" rerouteNo="0" devices="tripinfo_flow_route_5_duration_20250327_1940.5" vType="car" speedFactor="1.00" vaporized=""/>
    <tripinfo id="flow_route_23_duration_20250327_1940.4" depart="48.00" departLane="137415945#0_0" departPos="7.25" departSpeed="0.00" departDelay="28.00" arrival="78.00" arrivalLane="379698350#0_2" arrivalPos="75.31" arrivalSpeed="14.94" duration="30.00" routeLength="260.41" waitingTime="0.00" waitingCount="0" stopTime="0.00" timeLoss="13.91" rerouteNo="0" devices="tripinfo_flow_route_23_duration_20250327_1940.4" vType="car" speedFactor="1.18" vaporized=""/>
    <tripinfo id="flow_route_12_duration_20250327_1940.2" depart="10.00" departLane="133000078#0_0" departPos="147.75" departSpeed="0.00" departDelay="1.43" arrival="91.00" arrivalLane="1342054204_3" arrivalPos="23.04" arrivalSpeed="13.51" duration="81.00" routeLength="173.09" waitingTime="49.00" waitingCount="1" stopTime="0.00" timeLoss="69.62" rerouteNo="0" devices="tripinfo_flow_route_12_duration_20250327_1940.2" vType="car" speedFactor="0.94" vaporized=""/>
    <tripinfo id="flow_route_12_duration_20250327_1940.0" depart="0.00" departLane="133000078#0_0" departPos="66.48" departSpeed="0.00" departDelay="0.00" arrival="93.00" arrivalLane="1342054204_3" arrivalPos="21.59" arrivalSpeed="13.58" duration="93.00" routeLength="252.91" waitingTime="49.00" waitingCount="1" stopTime="0.00" timeLoss="75.31" rerouteNo="0" devices="tripinfo_flow_route_12_duration_20250327_1940.0" vType="car" speedFactor="0.89" vaporized=""/>
    <tripinfo id="flow_route_7_duration_20250327_1940.1" depart="17.00" departLane="133000078#0_0" departPos="59.89" departSpeed="0.00" departDelay="2.00" arrival="93.00" arrivalLane="137406408#0_1" arrivalPos="6.18" arrivalSpeed="12.93" duration="76.00" routeLength="251.09" waitingTime="34.00" waitingCount="1" stopTime="0.00" timeLoss="59.47" rerouteNo="0" devices="tripinfo_flow_route_7_duration_20250327_1940.1" vType="car" speedFactor="0.95" vaporized=""/>
    <tripinfo id="flow_route_7_duration_20250327_1940.0" depart="0.00" departLane="133000078#0_0" departPos="116.92" departSpeed="0.00" departDelay="0.00" arrival="94.00" arrivalLane="137406408#0_1" arrivalPos="45.36" arrivalSpeed="14.71" duration="94.00" routeLength="233.24" waitingTime="57.00" waitingCount="1" stopTime="0.00" timeLoss="79.43" rerouteNo="0" devices="tripinfo_flow_route_7_duration_20250327_1940.0" vType="car" speedFactor="1.08" vaporized=""/>
    <tripinfo id="flow_route_12_duration_20250327_1940.1" depart="5.00" departLane="133000078#0_0" departPos="32.85" departSpeed="0.00" departDelay="0.72" arrival="97.00" arrivalLane="1342054204_3" arrivalPos="47.48" arrivalSpeed="14.18" duration="92.00" routeLength="312.43" waitingTime="49.00" waitingCount="1" stopTime="0.00" timeLoss="72.89" rerouteNo="0" devices="tripinfo_flow_route_12_duration_20250327_1940.1" vType="car" speedFactor="1.12" vaporized=""/>
    <tripinfo id="flow_route_12_duration_20250327_1940.4" depart="18.00" departLane="133000078#0_0" departPos="87.39" departSpeed="0.00" departDelay="0.86" arrival="98.00" arrivalLane="1342054204_3" arrivalPos="18.52" arrivalSpeed="13.92" duration="80.00" routeLength="228.94" waitingTime="42.00" waitingCount="1" stopTime="0.00" timeLoss="65.57" rerouteNo="0" devices="tripinfo_flow_route_12_duration_20250327_1940.4" vType="car" speedFactor="1.01" vaporized=""/>
    <tripinfo id="flow_route_7_duration_20250327_1940.2" depart="30.00" departLane="133000078#0_0" departPos="140.58" departSpeed="0.00" departDelay="0.00" arrival="100.00" arrivalLane="137406408#0_1" arrivalPos="78.04" arrivalSpeed="13.85" duration="70.00" routeLength="242.26" waitingTime="33.00" waitingCount="1" stopTime="0.00" timeLoss="52.50" rerouteNo="0" devices="tripinfo_flow_route_7_duration_20250327_1940.2" vType="car" speedFactor="0.85" vaporized=""/>
    <tripinfo id="flow_route_8_duration_20250327_1940.10" depart="47.00" departLane="133000078#0_0" departPos="163.74" departSpeed="0.00" departDelay="0.85" arrival="104.00" arrivalLane="1235147073.116_0" arrivalPos="14.05" arrivalSpeed="16.16" duration="57.00" routeLength="210.49" waitingTime="23.00" waitingCount="1" stopTime="0.00" timeLoss="42.36" rerouteNo="0" devices="tripinfo_flow_route_8_duration_20250327_1940.10" vType="car" speedFactor="0.98" vaporized=""/>
    <tripinfo id="flow_route_12_duration_20250327_1940.11" depart="48.00" departLane="133000078#0_0" departPos="153.02" departSpeed="0.00" departDelay="0.87" arrival="104.00" arrivalLane="1342054204_3" arrivalPos="7.38" arrivalSpeed="12.88" duration="56.00" routeLength="152.16" waitingTime="24.00" waitingCount="1" stopTime="0.00" timeLoss="46.43" rerouteNo="0" devices="tripinfo_flow_route_12_duration_20250327_1940.11" vType="car" speedFactor="1.09" vaporized=""/>
    <tripinfo id="flow_route_12_duration_20250327_1940.12" depart="52.00" departLane="133000078#0_0" departPos="194.52" departSpeed="0.00" departDelay="0.58" arrival="105.00" arrivalLane="1342054204_3" arrivalPos="50.52" arrivalSpeed="14.39" duration="53.00" routeLength="153.80" waitingTime="28.00" waitingCount="3" stopTime="0.00" timeLoss="43.42" rerouteNo="0" devices="tripinfo_flow_route_12_duration_20250327_1940.12" vType="car" speedFactor="0.98" vaporized=""/>
    <tripinfo id="flow_route_8_duration_20250327_1940.8" depart="37.00" departLane="133000078#0_0" departPos="85.04" departSpeed="0.00" departDelay="0.08" arrival="106.00" arrivalLane="1235147073.116_0" arrivalPos="7.45" arrivalSpeed="16.08" duration="69.00" routeLength="282.59" waitingTime="23.00" waitingCount="1" stopTime="0.00" timeLoss="50.69" rerouteNo="0" devices="tripinfo_flow_route_8_duration_20250327_1940.8" vType="car" speedFactor="1.12" vaporized=""/>
    <tripinfo id="flow_route_8_duration_20250327_1940.7" depart="35.00" departLane="133000078#0_0" departPos="69.97" departSpeed="0.00" departDelay="2.70" arrival="108.00" arrivalLane="1235147073.116_0" arrivalPos="8.41" arrivalSpeed="14.76" duration="73.00" routeLength="298.62" waitingTime="21.00" waitingCount="1" stopTime="0.00" timeLoss="51.07" rerouteNo="0" devices="tripinfo_flow_route_8_duration_20250327_1940.7" vType="car" speedFactor="0.90" vaporized=""/>
    <tripinfo id="flow_route_12_duration_20250327_1940.5" depart="22.00" departLane="133000078#0_0" departPos="87.78" departSpeed="0.00" departDelay="0.58" arrival="110.00" arrivalLane="1342054204_3" arrivalPos="54.54" arrivalSpeed="15.97" duration="88.00" routeLength="264.56" waitingTime="40.00" waitingCount="2" stopTime="0.00" timeLoss="71.35" rerouteNo="0" devices="tripinfo_flow_route_12_duration_20250327_1940.5" vType="car" speedFactor="1.10" vaporized=""/>
    <tripinfo id="flow_route_12_duration_20250327_1940.3" depart="13.00" departLane="133000078#0_0" departPos="5.75" departSpeed="0.00" departDelay="0.15" arrival="111.00" arrivalLane="1342054204_3" arrivalPos="15.99" arrivalSpeed="14.49" duration="98.00" routeLength="308.05" waitingTime="40.00" waitingCount="3" stopTime="0.00" timeLoss="76.18" rerouteNo="0" devices="tripinfo_flow_route_12_duration_20250327_1940.3" vType="car" speedFactor="0.87" vaporized=""/>
    <tripinfo id="flow_route_8_duration_20250327_1940.6" depart="28.00" departLane="133000078#0_0" departPos="8.79" departSpeed="0.00" departDelay="0.31" arrival="111.00" arrivalLane="1235147073.116_0" arrivalPos="13.50" arrivalSpeed="14.53" duration="83.00" routeLength="364.89" waitingTime="21.00" waitingCount="1" stopTime="0.00" timeLoss="57.30" rerouteNo="0" devices="tripinfo_flow_route_8_duration_20250327_1940.6" vType="car" speedFactor="0.90" vaporized=""/>
    <tripinfo id="flow_route_7_duration_20250327_1940.3" depart="46.00" departLane="133000078#0_0" departPos="45.55" departSpeed="0.00" departDelay="1.00" arrival="111.00" arrivalLane="137406408#0_1" arrivalPos="18.03" arrivalSpeed="15.50" duration="65.00" routeLength="277.28" waitingTime="14.00" waitingCount="2" stopTime="0.00" timeLoss="46.50" rerouteNo="0" devices="tripinfo_flow_route_7_duration_20250327_1940.3" vType="car" speedFactor="0.94" vaporized=""/>
    <tripinfo id="flow_route_8_duration_20250327_1940.9" depart="42.00" departLane="133000078#0_0" departPos="26.74" departSpeed="0.00" departDelay="0.47" arrival="112.00" arrivalLane="1235147073.116_0" arrivalPos="5.61" arrivalSpeed="16.27" duration="70.00" routeLength="339.05" waitingTime="18.00" waitingCount="1" stopTime="0.00" timeLoss="48.54" rerouteNo="0" devices="tripinfo_flow_route_8_duration_20250327_1940.9" vType="car" speedFactor="1.02" vaporized=""/>
    <tripinfo id="flow_route_12_duration_20250327_1940.13" depart="57.00" departLane="133000078#0_0" departPos="118.83" departSpeed="0.00" departDelay="1.30" arrival="112.00" arrivalLane="1342054204_3" arrivalPos="66.38" arrivalSpeed="14.69" duration="55.00" routeLength="245.35" waitingTime="17.00" waitingCount="1" stopTime="0.00" timeLoss="38.26" rerouteNo="0" devices="tripinfo_flow_route_12_duration_20250327_1940.13" vType="car" speedFactor="0.89" vaporized=""/>
    <tripinfo id="flow_route_8_duration_20250327_1940.12" depart="57.00" departLane="133000078#0_0" departPos="43.71" departSpeed="0.00" departDelay="1.62" arrival="115.00" arrivalLane="1235147073.116_0" arrivalPos="4.63" arrivalSpeed="16.28" duration="58.00" routeLength="321.10" waitingTime="11.00" waitingCount="1" stopTime="0.00" timeLoss="37.45" rerouteNo="0" devices="tripinfo_flow_route_8_duration_20250327_1940.12" vType="car" speedFactor="1.02" vaporized=""/>
    <tripinfo id="flow_route_8_duration_20250327_1940.11" depart="51.00" departLane="133000078#0_0" departPos="2.41" departSpeed="0.00" departDelay="0.24" arrival="117.00" arrivalLane="1235147073.116_0" arrivalPos="9.26" arrivalSpeed="16.60" duration="66.00" routeLength="367.03" waitingTime="9.00" waitingCount="1" stopTime="0.00" timeLoss="43.11" rerouteNo="0" devices="tripinfo_flow_route_8_duration_20250327_1940.11" vType="car" speedFactor="1.15" vaporized=""/>
    <tripinfo id="flow_route_12_duration_20250327_1940.7" depart="35.00" departLane="133000078#0_0" departPos="97.10" departSpeed="0.00" departDelay="5.01" arrival="118.00" arrivalLane="1342054204_3" arrivalPos="78.89" arrivalSpeed="16.47" duration="83.00" routeLength="279.59" waitingTime="34.00" waitingCount="3" stopTime="0.00" timeLoss="65.24" rerouteNo="0" devices="tripinfo_flow_route_12_duration_20250327_1940.7" vType="car" speedFactor="1.02" vaporized=""/>
    <tripinfo id="flow_route_12_duration_20250327_1940.6" depart="27.00" departLane="133000078#0_0" departPos="29.15" departSpeed="0.00" departDelay="1.29" arrival="122.00" arrivalLane="1342054204_3" arrivalPos="68.13" arrivalSpeed="15.92" duration="95.00" routeLength="336.78" waitingTime="33.00" waitingCount="2" stopTime="0.00" timeLoss="74.38" rerouteNo="0" devices="tripinfo_flow_route_12_duration_20250327_1940.6" vType="car" speedFactor="1.09" vaporized=""/>
    <tripinfo id="flow_route_12_duration_20250327_1940.8" depart="35.00" departLane="133000078#0_0" departPos="0.18" departSpeed="0.00" departDelay="0.72" arrival="123.00" arrivalLane="1342054204_3" arrivalPos="14.61" arrivalSpeed="13.67" duration="88.00" routeLength="312.23" waitingTime="29.00" waitingCount="2" stopTime="0.00" timeLoss="68.57" rerouteNo="0" devices="tripinfo_flow_route_12_duration_20250327_1940.8" vType="car" speedFactor="1.02" vaporized=""/>
    <tripinfo id="flow_route_12_duration_20250327_1940.9" depart="39.00" departLane="133000078#0_0" departPos="95.58" departSpeed="0.00" departDelay="0.44" arrival="125.00" arrivalLane="1342054204_3" arrivalPos="81.66" arrivalSpeed="14.67" duration="86.00" routeLength="283.89" waitingTime="29.00" waitingCount="3" stopTime="0.00" timeLoss="65.96" rerouteNo="0" devices="tripinfo_flow_route_12_duration_20250327_1940.9" vType="car" speedFactor="0.88" vaporized=""/>
    <tripinfo id="flow_route_12_duration_20250327_1940.10" depart="44.00" departLane="133000078#0_0" departPos="47.03" departSpeed="0.00" departDelay="1.15" arrival="128.00" arrivalLane="1342054204_3" arrivalPos="68.87" arrivalSpeed="15.93" duration="84.00" routeLength="319.64" waitingTime="25.00" waitingCount="2" stopTime="0.00" timeLoss="64.10" rerouteNo="0" devices="tripinfo_flow_route_12_duration_20250327_1940.10" vType="car" speedFactor="0.97" vaporized=""/>
    <tripinfo id="flow_route_22_duration_20250327_1940.2" depart="15.00" departLane="137415945#0_0" departPos="1.09" departSpeed="0.00" departDelay="7.50" arrival="138.00" arrivalLane="1342054204_0" arrivalPos="11.29" arrivalSpeed="10.89" duration="123.00" routeLength="203.52" waitingTime="89.00" waitingCount="1" stopTime="0.00" timeLoss="108.78" rerouteNo="0" devices="tripinfo_flow_route_22_duration_20250327_1940.2" vType="car" speedFactor="0.88" vaporized=""/>
    <tripinfo id="flow_route_24_duration_20250327_1940.1" depart="21.00" departLane="137415945#0_0" departPos="1.33" departSpeed="0.00" departDelay="13.50" arrival="139.00" arrivalLane="137406408#0_0" arrivalPos="11.57" arrivalSpeed="9.87" duration="118.00" routeLength="179.24" waitingTime="84.00" waitingCount="1" stopTime="0.00" timeLoss="106.02" rerouteNo="0" devices="tripinfo_flow_route_24_duration_20250327_1940.1" vType="car" speedFactor="0.94" vaporized=""/>
    <tripinfo id="flow_route_22_duration_20250327_1940.3" depart="28.00" departLane="137415945#0_0" departPos="4.73" departSpeed="0.00" departDelay="16.75" arrival="141.00" arrivalLane="1342054204_0" arrivalPos="42.97" arrivalSpeed="12.39" duration="113.00" routeLength="231.57" waitingTime="77.00" waitingCount="1" stopTime="0.00" timeLoss="95.96" rerouteNo="0" devices="tripinfo_flow_route_22_duration_20250327_1940.3" vType="car" speedFactor="0.83" vaporized=""/>
    <tripinfo id="flow_route_24_duration_20250327_1940.2" depart="41.00" departLane="137415945#0_0" departPos="9.21" departSpeed="0.00" departDelay="26.00" arrival="143.00" arrivalLane="137406408#0_0" arrivalPos="31.29" arrivalSpeed="11.51" duration="102.00" routeLength="191.09" waitingTime="67.00" waitingCount="1" stopTime="0.00" timeLoss="90.13" rerouteNo="0" devices="tripinfo_flow_route_24_duration_20250327_1940.2" vType="car" speedFactor="1.15" vaporized=""/>
    <tripinfo id="flow_route_22_duration_20250327_1940.5" depart="42.00" departLane="137415945#0_0" departPos="2.01" departSpeed="0.00" departDelay="23.25" arrival="144.00" arrivalLane="1342054204_1" arrivalPos="34.00" arrivalSpeed="12.80" duration="102.00" routeLength="225.32" waitingTime="65.00" waitingCount="1" stopTime="0.00" timeLoss="88.31" rerouteNo="0" devices="tripinfo_flow_route_22_duration_20250327_1940.5" vType="car" speedFactor="0.99" vaporized=""/>
    <tripinfo id="flow_route_22_duration_20250327_1940.4" depart="31.00" departLane="137415945#0_0" departPos="1.31" departSpeed="0.00" departDelay="16.00" arrival="146.00" arrivalLane="1342054204_1" arrivalPos="86.56" arrivalSpeed="14.99" duration="115.00" routeLength="278.58" waitingTime="73.00" waitingCount="1" stopTime="0.00" timeLoss="96.91" rerouteNo="0" devices="tripinfo_flow_route_22_duration_20250327_1940.4" vType="car" speedFactor="0.93" vaporized=""/>
    <tripinfo id="flow_route_22_duration_20250327_1940.7" depart="60.00" departLane="137415945#0_0" departPos="0.40" departSpeed="0.00" departDelay="33.75" arrival="146.00" arrivalLane="1342054204_1" arrivalPos="10.84" arrivalSpeed="12.43" duration="86.00" routeLength="203.77" waitingTime="49.00" waitingCount="1" stopTime="0.00" timeLoss="73.27" rerouteNo="0" devices="tripinfo_flow_route_22_duration_20250327_1940.7" vType="car" speedFactor="1.00" vaporized=""/>