<?xml version="1.0" encoding="UTF-8"?>

<!-- generated on 2025-05-06 21:08:36 by Eclipse SUMO sumo Version 1.20.0
<configuration xmlns:xsi="http://www.w3.org/2001/XMLSchema-instance" xsi:noNamespaceSchemaLocation="http://sumo.dlr.de/xsd/sumoConfiguration.xsd">

    <input>
        <net-file value="osm.net.xml"/>
        <route-files value="xml/route_static_cluster_4110471701_632031939_5.rou.xml"/>
    </input>

    <output>
        <tripinfo-output value="xml/tripinfo_static_cluster_4110471701_632031939_5.xml"/>
    </output>

    <traci_server>
        <remote-port value="39569"/>
    </traci_server>

</configuration>
-->

<tripinfos xmlns:xsi="http://www.w3.org/2001/XMLSchema-instance" xsi:noNamespaceSchemaLocation="http://sumo.dlr.de/xsd/tripinfo_file.xsd">
    <tripinfo id="flow_route_83_duration_20250327_2000.0" depart="0.00" departLane="423956929_0" departPos="101.16" departSpeed="0.00" departDelay="0.00" arrival="17.00" arrivalLane="186407685_0" arrivalPos="8.05" arrivalSpeed="6.86" duration="17.00" routeLength="101.45" waitingTime="0.00" waitingCount="0" stopTime="0.00" timeLoss="10.18" rerouteNo="0" devices="tripinfo_flow_route_83_duration_20250327_2000.0" vType="car" speedFactor="1.01" vaporized=""/>
    <tripinfo id="flow_route_62_duration_20250327_2000.0" depart="0.00" departLane="409155823_0" departPos="65.43" departSpeed="0.00" departDelay="0.00" arrival="23.00" arrivalLane="1091883842_0" arrivalPos="165.47" arrivalSpeed="16.20" duration="23.00" routeLength="205.45" waitingTime="0.00" waitingCount="0" stopTime="0.00" timeLoss="10.51" rerouteNo="0" devices="tripinfo_flow_route_62_duration_20250327_2000.0" vType="car" speedFactor="1.06" vaporized=""/>
    <tripinfo id="flow_route_82_duration_20250327_2000.0" depart="0.00" departLane="423956929_0" departPos="45.92" departSpeed="0.00" departDelay="0.00" arrival="24.00" arrivalLane="186407684#0_0" arrivalPos="62.79" arrivalSpeed="15.18" duration="24.00" routeLength="219.95" waitingTime="0.00" waitingCount="0" stopTime="0.00" timeLoss="8.99" rerouteNo="0" devices="tripinfo_flow_route_82_duration_20250327_2000.0" vType="car" speedFactor="0.94" vaporized=""/>
    <tripinfo id="flow_route_62_duration_20250327_2000.1" depart="12.00" departLane="409155823_0" departPos="78.14" departSpeed="0.00" departDelay="0.00" arrival="34.00" arrivalLane="1091883842_0" arrivalPos="153.08" arrivalSpeed="16.22" duration="22.00" routeLength="180.35" waitingTime="0.00" waitingCount="0" stopTime="0.00" timeLoss="10.57" rerouteNo="0" devices="tripinfo_flow_route_62_duration_20250327_2000.1" vType="car" speedFactor="1.05" vaporized=""/>
    <tripinfo id="flow_route_87_duration_20250327_2000.2" depart="11.00" departLane="430416184_0" departPos="183.20" departSpeed="0.00" departDelay="1.00" arrival="35.00" arrivalLane="1091883842_0" arrivalPos="8.58" arrivalSpeed="8.33" duration="24.00" routeLength="125.83" waitingTime="0.00" waitingCount="0" stopTime="0.00" timeLoss="15.09" rerouteNo="0" devices="tripinfo_flow_route_87_duration_20250327_2000.2" vType="car" speedFactor="1.09" vaporized=""/>
    <tripinfo id="flow_route_87_duration_20250327_2000.3" depart="16.00" departLane="430416184_0" departPos="221.09" departSpeed="0.00" departDelay="1.00" arrival="41.00" arrivalLane="1091883842_0" arrivalPos="101.08" arrivalSpeed="14.03" duration="25.00" routeLength="180.45" waitingTime="0.00" waitingCount="0" stopTime="0.00" timeLoss="12.78" rerouteNo="0" devices="tripinfo_flow_route_87_duration_20250327_2000.3" vType="car" speedFactor="0.99" vaporized=""/>
    <tripinfo id="flow_route_88_duration_20250327_2000.0" depart="0.00" departLane="430416184_0" departPos="194.63" departSpeed="0.00" departDelay="0.00" arrival="44.00" arrivalLane="186407684#0_1" arrivalPos="3.84" arrivalSpeed="8.09" duration="44.00" routeLength="126.85" waitingTime="13.00" waitingCount="1" stopTime="0.00" timeLoss="34.68" rerouteNo="0" devices="tripinfo_flow_route_88_duration_20250327_2000.0" vType="car" speedFactor="0.83" vaporized=""/>
    <tripinfo id="flow_route_88_duration_20250327_2000.3" depart="11.00" departLane="430416184_0" departPos="271.56" departSpeed="0.00" departDelay="0.41" arrival="44.00" arrivalLane="186407684#0_1" arrivalPos="27.06" arrivalSpeed="9.20" duration="33.00" routeLength="73.13" waitingTime="14.00" waitingCount="1" stopTime="0.00" timeLoss="27.86" rerouteNo="0" devices="tripinfo_flow_route_88_duration_20250327_2000.3" vType="car" speedFactor="1.03" vaporized=""/>
    <tripinfo id="flow_route_87_duration_20250327_2000.1" depart="5.00" departLane="430416184_0" departPos="76.50" departSpeed="0.00" departDelay="0.00" arrival="47.00" arrivalLane="1091883842_0" arrivalPos="105.16" arrivalSpeed="13.95" duration="42.00" routeLength="329.12" waitingTime="0.00" waitingCount="0" stopTime="0.00" timeLoss="20.32" rerouteNo="0" devices="tripinfo_flow_route_87_duration_20250327_2000.1" vType="car" speedFactor="0.89" vaporized=""/>
    <tripinfo id="flow_route_86_duration_20250327_2000.0" depart="0.00" departLane="430416184_0" departPos="215.48" departSpeed="0.00" departDelay="0.00" arrival="48.00" arrivalLane="186407685_1" arrivalPos="87.02" arrivalSpeed="13.82" duration="48.00" routeLength="195.42" waitingTime="15.00" waitingCount="1" stopTime="0.00" timeLoss="35.79" rerouteNo="0" devices="tripinfo_flow_route_86_duration_20250327_2000.0" vType="car" speedFactor="1.08" vaporized=""/>
    <tripinfo id="flow_route_87_duration_20250327_2000.0" depart="0.00" departLane="430416184_0" departPos="1.75" departSpeed="0.00" departDelay="0.00" arrival="49.00" arrivalLane="1091883842_0" arrivalPos="109.56" arrivalSpeed="14.69" duration="49.00" routeLength="408.27" waitingTime="0.00" waitingCount="0" stopTime="0.00" timeLoss="22.96" rerouteNo="0" devices="tripinfo_flow_route_87_duration_20250327_2000.0" vType="car" speedFactor="1.03" vaporized=""/>
    <tripinfo id="flow_route_87_duration_20250327_2000.5" depart="26.00" departLane="430416184_0" departPos="172.42" departSpeed="0.00" departDelay="1.00" arrival="49.00" arrivalLane="1091883842_0" arrivalPos="16.53" arrivalSpeed="8.53" duration="23.00" routeLength="144.56" waitingTime="0.00" waitingCount="0" stopTime="0.00" timeLoss="13.38" rerouteNo="0" devices="tripinfo_flow_route_87_duration_20250327_2000.5" vType="car" speedFactor="0.97" vaporized=""/>
    <tripinfo id="flow_route_88_duration_20250327_2000.1" depart="4.00" departLane="430416184_0" departPos="130.75" departSpeed="0.00" departDelay="0.47" arrival="52.00" arrivalLane="186407684#0_1" arrivalPos="41.08" arrivalSpeed="11.36" duration="48.00" routeLength="227.97" waitingTime="7.00" waitingCount="1" stopTime="0.00" timeLoss="33.38" rerouteNo="0" devices="tripinfo_flow_route_88_duration_20250327_2000.1" vType="car" speedFactor="1.05" vaporized=""/>
    <tripinfo id="flow_route_87_duration_20250327_2000.4" depart="20.00" departLane="430416184_0" departPos="118.96" departSpeed="0.00" departDelay="0.00" arrival="52.00" arrivalLane="1091883842_0" arrivalPos="24.03" arrivalSpeed="9.45" duration="32.00" routeLength="205.52" waitingTime="0.00" waitingCount="0" stopTime="0.00" timeLoss="17.96" rerouteNo="0" devices="tripinfo_flow_route_87_duration_20250327_2000.4" vType="car" speedFactor="0.94" vaporized=""/>
    <tripinfo id="flow_route_88_duration_20250327_2000.2" depart="8.00" departLane="430416184_0" departPos="197.69" departSpeed="0.00" departDelay="0.94" arrival="53.00" arrivalLane="186407684#0_1" arrivalPos="77.17" arrivalSpeed="13.90" duration="45.00" routeLength="197.10" waitingTime="9.00" waitingCount="1" stopTime="0.00" timeLoss="30.46" rerouteNo="0" devices="tripinfo_flow_route_88_duration_20250327_2000.2" vType="car" speedFactor="0.86" vaporized=""/>
    <tripinfo id="flow_route_86_duration_20250327_2000.1" depart="8.00" departLane="430416184_0" departPos="93.11" departSpeed="0.00" departDelay="0.50" arrival="54.00" arrivalLane="186407685_1" arrivalPos="10.67" arrivalSpeed="11.56" duration="46.00" routeLength="241.44" waitingTime="1.00" waitingCount="1" stopTime="0.00" timeLoss="30.89" rerouteNo="0" devices="tripinfo_flow_route_86_duration_20250327_2000.1" vType="car" speedFactor="0.94" vaporized=""/>
    <tripinfo id="flow_route_88_duration_20250327_2000.5" depart="19.00" departLane="430416184_0" departPos="198.12" departSpeed="0.00" departDelay="1.36" arrival="57.00" arrivalLane="186407684#0_1" arrivalPos="84.30" arrivalSpeed="14.36" duration="38.00" routeLength="203.82" waitingTime="2.00" waitingCount="1" stopTime="0.00" timeLoss="23.49" rerouteNo="0" devices="tripinfo_flow_route_88_duration_20250327_2000.5" vType="car" speedFactor="0.88" vaporized=""/>
    <tripinfo id="flow_route_88_duration_20250327_2000.4" depart="16.00" departLane="430416184_0" departPos="46.01" departSpeed="0.00" departDelay="1.88" arrival="58.00" arrivalLane="186407684#0_1" arrivalPos="20.86" arrivalSpeed="11.53" duration="42.00" routeLength="292.48" waitingTime="0.00" waitingCount="0" stopTime="0.00" timeLoss="22.75" rerouteNo="0" devices="tripinfo_flow_route_88_duration_20250327_2000.4" vType="car" speedFactor="0.93" vaporized=""/>
    <tripinfo id="flow_route_88_duration_20250327_2000.7" depart="26.00" departLane="430416184_0" departPos="200.01" departSpeed="0.00" departDelay="1.30" arrival="59.00" arrivalLane="186407684#0_1" arrivalPos="58.88" arrivalSpeed="13.21" duration="33.00" routeLength="176.51" waitingTime="0.00" waitingCount="0" stopTime="0.00" timeLoss="20.52" rerouteNo="0" devices="tripinfo_flow_route_88_duration_20250327_2000.7" vType="car" speedFactor="0.89" vaporized=""/>
    <tripinfo id="flow_route_87_duration_20250327_2000.10" depart="51.00" departLane="430416184_0" departPos="267.47" departSpeed="0.00" departDelay="1.00" arrival="63.00" arrivalLane="1091883842_0" arrivalPos="19.45" arrivalSpeed="8.37" duration="12.00" routeLength="52.42" waitingTime="0.00" waitingCount="0" stopTime="0.00" timeLoss="7.86" rerouteNo="0" devices="tripinfo_flow_route_87_duration_20250327_2000.10" vType="car" speedFactor="1.03" vaporized=""/>
    <tripinfo id="flow_route_86_duration_20250327_2000.6" depart="46.00" departLane="430416184_0" departPos="238.74" departSpeed="0.00" departDelay="1.00" arrival="66.00" arrivalLane="186407685_1" arrivalPos="74.94" arrivalSpeed="16.02" duration="20.00" routeLength="160.08" waitingTime="0.00" waitingCount="0" stopTime="0.00" timeLoss="10.05" rerouteNo="0" devices="tripinfo_flow_route_86_duration_20250327_2000.6" vType="car" speedFactor="0.97" vaporized=""/>
    <tripinfo id="flow_route_88_duration_20250327_2000.14" depart="53.00" departLane="430416184_0" departPos="252.70" departSpeed="0.00" departDelay="3.59" arrival="72.00" arrivalLane="186407684#0_1" arrivalPos="77.16" arrivalSpeed="14.56" duration="19.00" routeLength="142.09" waitingTime="0.00" waitingCount="0" stopTime="0.00" timeLoss="9.20" rerouteNo="0" devices="tripinfo_flow_route_88_duration_20250327_2000.14" vType="car" speedFactor="0.96" vaporized=""/>
    <tripinfo id="flow_route_87_duration_20250327_2000.9" depart="46.00" departLane="430416184_0" departPos="169.18" departSpeed="0.00" departDelay="1.00" arrival="77.00" arrivalLane="1091883842_0" arrivalPos="114.23" arrivalSpeed="15.56" duration="31.00" routeLength="245.50" waitingTime="0.00" waitingCount="0" stopTime="0.00" timeLoss="14.92" rerouteNo="0" devices="tripinfo_flow_route_87_duration_20250327_2000.9" vType="car" speedFactor="1.18" vaporized=""/>
    <tripinfo id="flow_route_87_duration_20250327_2000.6" depart="34.00" departLane="430416184_0" departPos="80.64" departSpeed="0.00" departDelay="4.00" arrival="78.00" arrivalLane="1091883842_0" arrivalPos="91.48" arrivalSpeed="12.71" duration="44.00" routeLength="311.29" waitingTime="0.00" waitingCount="0" stopTime="0.00" timeLoss="23.47" rerouteNo="0" devices="tripinfo_flow_route_87_duration_20250327_2000.6" vType="car" speedFactor="0.92" vaporized=""/>
    <tripinfo id="flow_route_83_duration_20250327_2000.2" depart="40.00" departLane="423956929_0" departPos="65.28" departSpeed="0.00" departDelay="0.00" arrival="78.00" arrivalLane="186407685_0" arrivalPos="14.17" arrivalSpeed="7.19" duration="38.00" routeLength="143.45" waitingTime="9.00" waitingCount="1" stopTime="0.00" timeLoss="28.39" rerouteNo="0" devices="tripinfo_flow_route_83_duration_20250327_2000.2" vType="car" speedFactor="1.17" vaporized=""/>
    <tripinfo id="flow_route_62_duration_20250327_2000.3" depart="36.00" departLane="409155823_0" departPos="27.63" departSpeed="0.00" departDelay="0.00" arrival="79.00" arrivalLane="1091883842_1" arrivalPos="33.24" arrivalSpeed="8.32" duration="43.00" routeLength="111.02" waitingTime="17.00" waitingCount="1" stopTime="0.00" timeLoss="35.73" rerouteNo="0" devices="tripinfo_flow_route_62_duration_20250327_2000.3" vType="car" speedFactor="0.93" vaporized=""/>
    <tripinfo id="flow_route_83_duration_20250327_2000.1" depart="20.00" departLane="423956929_0" departPos="23.26" departSpeed="0.00" departDelay="0.00" arrival="81.00" arrivalLane="186407685_0" arrivalPos="58.66" arrivalSpeed="10.99" duration="61.00" routeLength="229.96" waitingTime="24.00" waitingCount="1" stopTime="0.00" timeLoss="45.32" rerouteNo="0" devices="tripinfo_flow_route_83_duration_20250327_2000.1" vType="car" speedFactor="0.94" vaporized=""/>
    <tripinfo id="flow_route_62_duration_20250327_2000.2" depart="24.00" departLane="409155823_0" departPos="71.45" departSpeed="0.00" departDelay="0.00" arrival="84.00" arrivalLane="1091883842_0" arrivalPos="106.15" arrivalSpeed="12.87" duration="60.00" routeLength="140.11" waitingTime="35.00" waitingCount="1" stopTime="0.00" timeLoss="51.55" rerouteNo="0" devices="tripinfo_flow_route_62_duration_20250327_2000.2" vType="car" speedFactor="1.01" vaporized=""/>
    <tripinfo id="flow_route_62_duration_20250327_2000.4" depart="48.00" departLane="409155823_0" departPos="26.65" departSpeed="0.00" departDelay="0.00" arrival="92.00" arrivalLane="1091883842_0" arrivalPos="181.41" arrivalSpeed="14.53" duration="44.00" routeLength="260.17" waitingTime="6.00" waitingCount="1" stopTime="0.00" timeLoss="26.50" rerouteNo="0" devices="tripinfo_flow_route_62_duration_20250327_2000.4" vType="car" speedFactor="0.90" vaporized=""/>
    <tripinfo id="flow_route_87_duration_20250327_2000.11" depart="59.00" departLane="430416184_0" departPos="81.32" departSpeed="0.00" departDelay="4.00" arrival="93.00" arrivalLane="1091883842_0" arrivalPos="55.03" arrivalSpeed="10.92" duration="34.00" routeLength="274.16" waitingTime="0.00" waitingCount="0" stopTime="0.00" timeLoss="16.21" rerouteNo="0" devices="tripinfo_flow_route_87_duration_20250327_2000.11" vType="car" speedFactor="1.04" vaporized=""/>
    <tripinfo id="flow_route_87_duration_20250327_2000.8" depart="40.00" departLane="430416184_0" departPos="83.88" departSpeed="0.00" departDelay="0.00" arrival="95.00" arrivalLane="1091883842_0" arrivalPos="134.06" arrivalSpeed="14.42" duration="55.00" routeLength="350.63" waitingTime="4.00" waitingCount="1" stopTime="0.00" timeLoss="33.08" rerouteNo="0" devices="tripinfo_flow_route_87_duration_20250327_2000.8" vType="car" speedFactor="0.99" vaporized=""/>
    <tripinfo id="flow_route_87_duration_20250327_2000.7" depart="35.00" departLane="430416184_0" departPos="19.37" departSpeed="0.00" departDelay="0.00" arrival="100.00" arrivalLane="1091883842_0" arrivalPos="172.36" arrivalSpeed="16.31" duration="65.00" routeLength="453.44" waitingTime="4.00" waitingCount="1" stopTime="0.00" timeLoss="36.78" rerouteNo="0" devices="tripinfo_flow_route_87_duration_20250327_2000.7" vType="car" speedFactor="1.13" vaporized=""/>
    <tripinfo id="flow_route_88_duration_20250327_2000.9" depart="34.00" departLane="430416184_0" departPos="158.12" departSpeed="0.00" departDelay="2.24" arrival="111.00" arrivalLane="186407684#0_1" arrivalPos="16.16" arrivalSpeed="8.93" duration="77.00" routeLength="175.67" waitingTime="31.00" waitingCount="2" stopTime="0.00" timeLoss="65.21" rerouteNo="0" devices="tripinfo_flow_route_88_duration_20250327_2000.9" vType="car" speedFactor="0.95" vaporized=""/>
    <tripinfo id="flow_route_88_duration_20250327_2000.12" depart="43.00" departLane="430416184_0" departPos="196.27" departSpeed="0.00" departDelay="0.65" arrival="114.00" arrivalLane="186407684#0_1" arrivalPos="18.72" arrivalSpeed="9.60" duration="71.00" routeLength="140.08" waitingTime="30.00" waitingCount="1" stopTime="0.00" timeLoss="61.32" rerouteNo="0" devices="tripinfo_flow_route_88_duration_20250327_2000.12" vType="car" speedFactor="1.02" vaporized=""/>
    <tripinfo id="flow_route_86_duration_20250327_2000.2" depart="15.00" departLane="430416184_0" departPos="9.37" departSpeed="0.00" departDelay="0.00" arrival="115.00" arrivalLane="186407685_1" arrivalPos="70.22" arrivalSpeed="12.29" duration="100.00" routeLength="384.73" waitingTime="35.00" waitingCount="3" stopTime="0.00" timeLoss="76.29" rerouteNo="0" devices="tripinfo_flow_route_86_duration_20250327_2000.2" vType="car" speedFactor="1.12" vaporized=""/>
    <tripinfo id="flow_route_86_duration_20250327_2000.3" depart="24.00" departLane="430416184_0" departPos="69.81" departSpeed="0.00" departDelay="1.50" arrival="120.00" arrivalLane="186407685_1" arrivalPos="39.51" arrivalSpeed="13.30" duration="96.00" routeLength="293.58" waitingTime="28.00" waitingCount="1" stopTime="0.00" timeLoss="77.63" rerouteNo="0" devices="tripinfo_flow_route_86_duration_20250327_2000.3" vType="car" speedFactor="1.02" vaporized=""/>
    <tripinfo id="flow_route_88_duration_20250327_2000.6" depart="22.00" departLane="430416184_0" departPos="76.37" departSpeed="0.00" departDelay="0.83" arrival="121.00" arrivalLane="186407684#0_1" arrivalPos="85.01" arrivalSpeed="13.27" duration="99.00" routeLength="326.27" waitingTime="30.00" waitingCount="1" stopTime="0.00" timeLoss="78.60" rerouteNo="0" devices="tripinfo_flow_route_88_duration_20250327_2000.6" vType="car" speedFactor="1.16" vaporized=""/>
    <tripinfo id="flow_route_88_duration_20250327_2000.10" depart="36.00" departLane="430416184_0" departPos="98.04" departSpeed="0.00" departDelay="0.71" arrival="124.00" arrivalLane="186407684#0_1" arrivalPos="87.45" arrivalSpeed="14.55" duration="88.00" routeLength="307.04" waitingTime="27.00" waitingCount="1" stopTime="0.00" timeLoss="68.99" rerouteNo="0" devices="tripinfo_flow_route_88_duration_20250327_2000.10" vType="car" speedFactor="1.18" vaporized=""/>
    <tripinfo id="flow_route_86_duration_20250327_2000.5" depart="39.00" departLane="430416184_0" departPos="52.25" departSpeed="0.00" departDelay="1.50" arrival="124.00" arrivalLane="186407685_1" arrivalPos="15.23" arrivalSpeed="12.81" duration="85.00" routeLength="286.87" waitingTime="26.00" waitingCount="1" stopTime="0.00" timeLoss="66.98" rerouteNo="0" devices="tripinfo_flow_route_86_duration_20250327_2000.5" vType="car" speedFactor="1.15" vaporized=""/>
    <tripinfo id="flow_route_88_duration_20250327_2000.8" depart="31.00" departLane="430416184_0" departPos="48.70" departSpeed="0.00" departDelay="2.77" arrival="127.00" arrivalLane="186407684#0_1" arrivalPos="82.41" arrivalSpeed="13.28" duration="96.00" routeLength="351.34" waitingTime="27.00" waitingCount="1" stopTime="0.00" timeLoss="71.52" rerouteNo="0" devices="tripinfo_flow_route_88_duration_20250327_2000.8" vType="car" speedFactor="0.83" vaporized=""/>
    <tripinfo id="flow_route_88_duration_20250327_2000.11" depart="39.00" departLane="430416184_0" departPos="13.55" departSpeed="0.00" departDelay="0.18" arrival="127.00" arrivalLane="186407684#0_1" arrivalPos="18.26" arrivalSpeed="11.11" duration="88.00" routeLength="322.34" waitingTime="26.00" waitingCount="1" stopTime="0.00" timeLoss="67.59" rerouteNo="0" devices="tripinfo_flow_route_88_duration_20250327_2000.11" vType="car" speedFactor="1.01" vaporized=""/>
    <tripinfo id="flow_route_86_duration_20250327_2000.4" depart="34.00" departLane="430416184_0" departPos="8.05" departSpeed="0.00" departDelay="4.00" arrival="128.00" arrivalLane="186407685_1" arrivalPos="54.50" arrivalSpeed="14.82" duration="94.00" routeLength="370.33" waitingTime="26.00" waitingCount="1" stopTime="0.00" timeLoss="71.60" rerouteNo="0" devices="tripinfo_flow_route_86_duration_20250327_2000.4" vType="car" speedFactor="0.87" vaporized=""/>
    <tripinfo id="flow_route_88_duration_20250327_2000.15" depart="55.00" departLane="430416184_0" departPos="99.16" departSpeed="0.00" departDelay="2.07" arrival="133.00" arrivalLane="186407684#0_1" arrivalPos="40.17" arrivalSpeed="14.24" duration="78.00" routeLength="258.64" waitingTime="26.00" waitingCount="1" stopTime="0.00" timeLoss="60.93" rerouteNo="0" devices="tripinfo_flow_route_88_duration_20250327_2000.15" vType="car" speedFactor="1.04" vaporized=""/>
    <tripinfo id="flow_route_88_duration_20250327_2000.13" depart="48.00" departLane="430416184_0" departPos="6.90" departSpeed="0.00" departDelay="2.12" arrival="135.00" arrivalLane="186407684#0_1" arrivalPos="45.19" arrivalSpeed="14.19" duration="87.00" routeLength="355.93" waitingTime="26.00" waitingCount="1" stopTime="0.00" timeLoss="64.27" rerouteNo="0" devices="tripinfo_flow_route_88_duration_20250327_2000.13" vType="car" speedFactor="1.10" vaporized=""/>
    <tripinfo id="flow_route_86_duration_20250327_2000.7" depart="55.00" departLane="430416184_0" departPos="118.88" departSpeed="0.00" departDelay="2.50" arrival="136.00" arrivalLane="186407685_1" arrivalPos="125.85" arrivalSpeed="16.13" duration="81.00" routeLength="330.85" waitingTime="26.00" waitingCount="1" stopTime="0.00" timeLoss="60.77" rerouteNo="0" devices="tripinfo_flow_route_86_duration_20250327_2000.7" vType="car" speedFactor="1.09" vaporized=""/>
    <tripinfo id="flow_route_88_duration_20250327_2000.16" depart="60.00" departLane="430416184_0" departPos="35.95" departSpeed="0.00" departDelay="3.54" arrival="136.00" arrivalLane="186407684#0_1" arrivalPos="41.10" arrivalSpeed="13.75" duration="76.00" routeLength="322.78" waitingTime="26.00" waitingCount="1" stopTime="0.00" timeLoss="55.81" rerouteNo="0" devices="tripinfo_flow_route_88_duration_20250327_2000.16" vType="car" speedFactor="1.09" vaporized=""/>
</tripinfos>
