<?xml version="1.0" encoding="UTF-8"?>

<!-- generated on 2025-05-06 21:08:14 by Eclipse SUMO sumo Version 1.20.0
<configuration xmlns:xsi="http://www.w3.org/2001/XMLSchema-instance" xsi:noNamespaceSchemaLocation="http://sumo.dlr.de/xsd/sumoConfiguration.xsd">

    <input>
        <net-file value="osm.net.xml"/>
        <route-files value="xml/route_static_GS_cluster_4854142864_4854142865_3.rou.xml"/>
    </input>

    <output>
        <tripinfo-output value="xml/tripinfo_static_GS_cluster_4854142864_4854142865_3.xml"/>
    </output>

    <traci_server>
        <remote-port value="55659"/>
    </traci_server>

</configuration>
-->

<tripinfos xmlns:xsi="http://www.w3.org/2001/XMLSchema-instance" xsi:noNamespaceSchemaLocation="http://sumo.dlr.de/xsd/tripinfo_file.xsd">
    <tripinfo id="flow_route_39_duration_20250327_1930.0" depart="0.00" departLane="133126030#0_0" departPos="101.03" departSpeed="0.00" departDelay="0.00" arrival="28.00" arrivalLane="1328664748#0_1" arrivalPos="158.52" arrivalSpeed="15.40" duration="28.00" routeLength="263.70" waitingTime="0.00" waitingCount="0" stopTime="0.00" timeLoss="10.97" rerouteNo="0" devices="tripinfo_flow_route_39_duration_20250327_1930.0" vType="car" speedFactor="0.94" vaporized=""/>
    <tripinfo id="flow_route_38_duration_20250327_1930.1" depart="6.00" departLane="133126030#0_0" departPos="126.94" departSpeed="0.00" departDelay="0.55" arrival="34.00" arrivalLane="134193294#0_0" arrivalPos="131.14" arrivalSpeed="14.88" duration="28.00" routeLength="199.09" waitingTime="0.00" waitingCount="0" stopTime="0.00" timeLoss="13.29" rerouteNo="0" devices="tripinfo_flow_route_38_duration_20250327_1930.1" vType="car" speedFactor="0.93" vaporized=""/>
    <tripinfo id="flow_route_38_duration_20250327_1930.0" depart="0.00" departLane="133126030#0_0" departPos="45.86" departSpeed="0.00" departDelay="0.00" arrival="37.00" arrivalLane="134193294#0_0" arrivalPos="152.84" arrivalSpeed="16.20" duration="37.00" routeLength="301.86" waitingTime="0.00" waitingCount="0" stopTime="0.00" timeLoss="17.56" rerouteNo="0" devices="tripinfo_flow_route_38_duration_20250327_1930.0" vType="car" speedFactor="1.06" vaporized=""/>
    <tripinfo id="flow_route_38_duration_20250327_1930.5" depart="28.00" departLane="133126030#0_0" departPos="164.39" departSpeed="0.00" departDelay="0.73" arrival="52.00" arrivalLane="134193294#0_0" arrivalPos="162.07" arrivalSpeed="15.45" duration="24.00" routeLength="192.56" waitingTime="0.00" waitingCount="0" stopTime="0.00" timeLoss="10.38" rerouteNo="0" devices="tripinfo_flow_route_38_duration_20250327_1930.5" vType="car" speedFactor="0.94" vaporized=""/>
    <tripinfo id="flow_route_43_duration_20250327_1930.1" depart="4.00" departLane="1328664744#0_0" departPos="208.33" departSpeed="0.00" departDelay="0.67" arrival="56.00" arrivalLane="134193294#0_3" arrivalPos="87.99" arrivalSpeed="12.28" duration="52.00" routeLength="119.74" waitingTime="28.00" waitingCount="1" stopTime="0.00" timeLoss="43.95" rerouteNo="0" devices="tripinfo_flow_route_43_duration_20250327_1930.1" vType="car" speedFactor="1.09" vaporized=""/>
    <tripinfo id="flow_route_43_duration_20250327_1930.0" depart="0.00" departLane="1328664744#0_0" departPos="1.34" departSpeed="0.00" departDelay="0.00" arrival="58.00" arrivalLane="134193294#0_3" arrivalPos="84.30" arrivalSpeed="12.68" duration="58.00" routeLength="323.03" waitingTime="16.00" waitingCount="1" stopTime="0.00" timeLoss="37.74" rerouteNo="0" devices="tripinfo_flow_route_43_duration_20250327_1930.0" vType="car" speedFactor="1.08" vaporized=""/>
    <tripinfo id="flow_route_43_duration_20250327_1930.7" depart="24.00" departLane="1328664744#0_0" departPos="200.65" departSpeed="0.00" departDelay="0.67" arrival="60.00" arrivalLane="134193294#0_3" arrivalPos="67.01" arrivalSpeed="11.97" duration="36.00" routeLength="106.44" waitingTime="13.00" waitingCount="1" stopTime="0.00" timeLoss="27.77" rerouteNo="0" devices="tripinfo_flow_route_43_duration_20250327_1930.7" vType="car" speedFactor="1.00" vaporized=""/>
    <tripinfo id="flow_route_43_duration_20250327_1930.11" depart="37.00" departLane="1328664744#0_0" departPos="188.74" departSpeed="0.00" departDelay="0.34" arrival="62.00" arrivalLane="134193294#0_3" arrivalPos="33.51" arrivalSpeed="10.33" duration="25.00" routeLength="84.84" waitingTime="4.00" waitingCount="3" stopTime="0.00" timeLoss="18.54" rerouteNo="0" devices="tripinfo_flow_route_43_duration_20250327_1930.11" vType="car" speedFactor="0.98" vaporized=""/>
    <tripinfo id="flow_route_43_duration_20250327_1930.5" depart="18.00" departLane="1328664744#0_0" departPos="138.71" departSpeed="0.00" departDelay="1.34" arrival="64.00" arrivalLane="134193294#0_3" arrivalPos="100.35" arrivalSpeed="14.18" duration="46.00" routeLength="201.72" waitingTime="12.00" waitingCount="1" stopTime="0.00" timeLoss="32.23" rerouteNo="0" devices="tripinfo_flow_route_43_duration_20250327_1930.5" vType="car" speedFactor="1.03" vaporized=""/>
    <tripinfo id="flow_route_43_duration_20250327_1930.8" depart="27.00" departLane="1328664744#0_0" departPos="182.16" departSpeed="0.00" departDelay="0.34" arrival="64.00" arrivalLane="134193294#0_3" arrivalPos="17.65" arrivalSpeed="8.79" duration="37.00" routeLength="75.56" waitingTime="11.00" waitingCount="1" stopTime="0.00" timeLoss="31.23" rerouteNo="0" devices="tripinfo_flow_route_43_duration_20250327_1930.8" vType="car" speedFactor="1.02" vaporized=""/>
    <tripinfo id="flow_route_43_duration_20250327_1930.10" depart="34.00" departLane="1328664744#0_0" departPos="160.43" departSpeed="0.00" departDelay="0.67" arrival="68.00" arrivalLane="134193294#0_3" arrivalPos="35.60" arrivalSpeed="10.86" duration="34.00" routeLength="115.24" waitingTime="8.00" waitingCount="1" stopTime="0.00" timeLoss="26.38" rerouteNo="0" devices="tripinfo_flow_route_43_duration_20250327_1930.10" vType="car" speedFactor="1.09" vaporized=""/>
    <tripinfo id="flow_route_43_duration_20250327_1930.2" depart="7.00" departLane="1328664744#0_0" departPos="58.58" departSpeed="0.00" departDelay="0.33" arrival="75.00" arrivalLane="134193294#0_3" arrivalPos="22.19" arrivalSpeed="8.64" duration="68.00" routeLength="203.68" waitingTime="14.00" waitingCount="2" stopTime="0.00" timeLoss="53.75" rerouteNo="0" devices="tripinfo_flow_route_43_duration_20250327_1930.2" vType="car" speedFactor="0.94" vaporized=""/>
    <tripinfo id="flow_route_43_duration_20250327_1930.16" depart="54.00" departLane="1328664744#0_0" departPos="198.25" departSpeed="0.00" departDelay="0.67" arrival="76.00" arrivalLane="134193294#0_3" arrivalPos="50.34" arrivalSpeed="10.08" duration="22.00" routeLength="92.16" waitingTime="0.00" waitingCount="0" stopTime="0.00" timeLoss="15.43" rerouteNo="0" devices="tripinfo_flow_route_43_duration_20250327_1930.16" vType="car" speedFactor="1.02" vaporized=""/>
    <tripinfo id="flow_route_43_duration_20250327_1930.4" depart="15.00" departLane="1328664744#0_0" departPos="78.06" departSpeed="0.00" departDelay="1.67" arrival="83.00" arrivalLane="134193294#0_3" arrivalPos="53.84" arrivalSpeed="10.80" duration="68.00" routeLength="215.85" waitingTime="13.00" waitingCount="2" stopTime="0.00" timeLoss="53.71" rerouteNo="0" devices="tripinfo_flow_route_43_duration_20250327_1930.4" vType="car" speedFactor="1.17" vaporized=""/>
    <tripinfo id="flow_route_43_duration_20250327_1930.6" depart="21.00" departLane="1328664744#0_0" departPos="103.45" departSpeed="0.00" departDelay="1.00" arrival="86.00" arrivalLane="134193294#0_3" arrivalPos="78.18" arrivalSpeed="11.93" duration="65.00" routeLength="214.80" waitingTime="11.00" waitingCount="2" stopTime="0.00" timeLoss="49.70" rerouteNo="0" devices="tripinfo_flow_route_43_duration_20250327_1930.6" vType="car" speedFactor="0.90" vaporized=""/>
    <tripinfo id="flow_route_43_duration_20250327_1930.3" depart="11.00" departLane="1328664744#0_0" departPos="33.68" departSpeed="0.00" departDelay="1.00" arrival="92.00" arrivalLane="134193294#0_3" arrivalPos="122.75" arrivalSpeed="13.72" duration="81.00" routeLength="329.13" waitingTime="9.00" waitingCount="2" stopTime="0.00" timeLoss="55.74" rerouteNo="0" devices="tripinfo_flow_route_43_duration_20250327_1930.3" vType="car" speedFactor="0.83" vaporized=""/>
    <tripinfo id="flow_route_44_duration_20250327_1930.1" depart="2.00" departLane="791826085_0" departPos="285.55" departSpeed="0.00" departDelay="0.57" arrival="96.00" arrivalLane="134193294#0_0" arrivalPos="45.37" arrivalSpeed="10.52" duration="94.00" routeLength="114.19" waitingTime="67.00" waitingCount="1" stopTime="0.00" timeLoss="86.04" rerouteNo="0" devices="tripinfo_flow_route_44_duration_20250327_1930.1" vType="car" speedFactor="0.89" vaporized=""/>
    <tripinfo id="flow_route_44_duration_20250327_1930.5" depart="11.00" departLane="791826085_0" departPos="311.42" departSpeed="0.00" departDelay="3.86" arrival="96.00" arrivalLane="134193294#0_0" arrivalPos="28.81" arrivalSpeed="8.99" duration="85.00" routeLength="71.76" waitingTime="67.00" waitingCount="1" stopTime="0.00" timeLoss="80.62" rerouteNo="0" devices="tripinfo_flow_route_44_duration_20250327_1930.5" vType="car" speedFactor="1.02" vaporized=""/>
    <tripinfo id="flow_route_45_duration_20250327_1930.0" depart="0.00" departLane="791826085_0" departPos="152.03" departSpeed="0.00" departDelay="0.00" arrival="97.00" arrivalLane="485211947#0_0" arrivalPos="8.08" arrivalSpeed="7.03" duration="97.00" routeLength="191.81" waitingTime="63.00" waitingCount="1" stopTime="0.00" timeLoss="82.21" rerouteNo="0" devices="tripinfo_flow_route_45_duration_20250327_1930.0" vType="car" speedFactor="0.83" vaporized=""/>
    <tripinfo id="flow_route_45_duration_20250327_1930.2" depart="4.00" departLane="791826085_0" departPos="268.83" departSpeed="0.00" departDelay="0.36" arrival="99.00" arrivalLane="485211947#0_0" arrivalPos="56.90" arrivalSpeed="10.66" duration="95.00" routeLength="123.82" waitingTime="67.00" waitingCount="1" stopTime="0.00" timeLoss="86.59" rerouteNo="0" devices="tripinfo_flow_route_45_duration_20250327_1930.2" vType="car" speedFactor="1.03" vaporized=""/>
    <tripinfo id="flow_route_44_duration_20250327_1930.4" depart="7.00" departLane="791826085_0" departPos="134.15" departSpeed="0.00" departDelay="1.29" arrival="99.00" arrivalLane="134193294#0_2" arrivalPos="27.29" arrivalSpeed="9.73" duration="92.00" routeLength="247.51" waitingTime="54.00" waitingCount="1" stopTime="0.00" timeLoss="75.00" rerouteNo="0" devices="tripinfo_flow_route_44_duration_20250327_1930.4" vType="car" speedFactor="0.88" vaporized=""/>
    <tripinfo id="flow_route_44_duration_20250327_1930.10" depart="24.00" departLane="791826085_0" departPos="275.74" departSpeed="0.00" departDelay="9.72" arrival="100.00" arrivalLane="134193294#0_1" arrivalPos="8.04" arrivalSpeed="9.56" duration="76.00" routeLength="86.67" waitingTime="51.00" waitingCount="2" stopTime="0.00" timeLoss="70.60" rerouteNo="0" devices="tripinfo_flow_route_44_duration_20250327_1930.10" vType="car" speedFactor="0.97" vaporized=""/>
    <tripinfo id="flow_route_44_duration_20250327_1930.7" depart="16.00" departLane="791826085_0" departPos="221.34" departSpeed="0.00" departDelay="6.00" arrival="101.00" arrivalLane="134193294#0_1" arrivalPos="102.28" arrivalSpeed="14.26" duration="85.00" routeLength="235.31" waitingTime="50.00" waitingCount="1" stopTime="0.00" timeLoss="68.66" rerouteNo="0" devices="tripinfo_flow_route_44_duration_20250327_1930.7" vType="car" speedFactor="0.87" vaporized=""/>
    <tripinfo id="flow_route_44_duration_20250327_1930.0" depart="0.00" departLane="791826085_0" departPos="219.49" departSpeed="0.00" departDelay="0.00" arrival="102.00" arrivalLane="134193294#0_1" arrivalPos="101.20" arrivalSpeed="14.35" duration="102.00" routeLength="236.08" waitingTime="64.00" waitingCount="1" stopTime="0.00" timeLoss="86.92" rerouteNo="0" devices="tripinfo_flow_route_44_duration_20250327_1930.0" vType="car" speedFactor="1.03" vaporized=""/>
    <tripinfo id="flow_route_45_duration_20250327_1930.7" depart="23.00" departLane="791826085_0" departPos="287.65" departSpeed="0.00" departDelay="10.27" arrival="102.00" arrivalLane="485211947#0_0" arrivalPos="33.16" arrivalSpeed="9.31" duration="79.00" routeLength="81.28" waitingTime="59.00" waitingCount="1" stopTime="0.00" timeLoss="72.73" rerouteNo="0" devices="tripinfo_flow_route_45_duration_20250327_1930.7" vType="car" speedFactor="1.01" vaporized=""/>
    <tripinfo id="flow_route_45_duration_20250327_1930.1" depart="2.00" departLane="791826085_0" departPos="105.00" departSpeed="0.00" departDelay="0.18" arrival="104.00" arrivalLane="485211947#0_0" arrivalPos="11.17" arrivalSpeed="7.02" duration="102.00" routeLength="241.92" waitingTime="49.00" waitingCount="1" stopTime="0.00" timeLoss="85.28" rerouteNo="0" devices="tripinfo_flow_route_45_duration_20250327_1930.1" vType="car" speedFactor="0.94" vaporized=""/>
    <tripinfo id="flow_route_44_duration_20250327_1930.3" depart="5.00" departLane="791826085_0" departPos="98.41" departSpeed="0.00" departDelay="0.72" arrival="104.00" arrivalLane="134193294#0_1" arrivalPos="93.37" arrivalSpeed="14.57" duration="99.00" routeLength="349.33" waitingTime="49.00" waitingCount="1" stopTime="0.00" timeLoss="77.17" rerouteNo="0" devices="tripinfo_flow_route_44_duration_20250327_1930.3" vType="car" speedFactor="0.99" vaporized=""/>
    <tripinfo id="flow_route_45_duration_20250327_1930.3" depart="7.00" departLane="791826085_0" departPos="314.57" departSpeed="0.00" departDelay="1.55" arrival="104.00" arrivalLane="485211947#0_0" arrivalPos="177.25" arrivalSpeed="15.57" duration="97.00" routeLength="198.44" waitingTime="70.00" waitingCount="1" stopTime="0.00" timeLoss="83.61" rerouteNo="0" devices="tripinfo_flow_route_45_duration_20250327_1930.3" vType="car" speedFactor="0.94" vaporized=""/>
    <tripinfo id="flow_route_46_duration_20250327_1930.2" depart="11.00" departLane="791826085_0" departPos="54.92" departSpeed="0.00" departDelay="4.33" arrival="105.00" arrivalLane="1328664748#0_1" arrivalPos="27.90" arrivalSpeed="10.78" duration="94.00" routeLength="321.77" waitingTime="47.00" waitingCount="1" stopTime="0.00" timeLoss="73.82" rerouteNo="0" devices="tripinfo_flow_route_46_duration_20250327_1930.2" vType="car" speedFactor="1.16" vaporized=""/>
    <tripinfo id="flow_route_44_duration_20250327_1930.11" depart="25.00" departLane="791826085_0" departPos="192.12" departSpeed="0.00" departDelay="9.29" arrival="105.00" arrivalLane="134193294#0_1" arrivalPos="36.43" arrivalSpeed="11.75" duration="80.00" routeLength="198.68" waitingTime="45.00" waitingCount="1" stopTime="0.00" timeLoss="67.72" rerouteNo="0" devices="tripinfo_flow_route_44_duration_20250327_1930.11" vType="car" speedFactor="1.10" vaporized=""/>
    <tripinfo id="flow_route_46_duration_20250327_1930.0" depart="1.00" departLane="791826085_0" departPos="184.68" departSpeed="0.00" departDelay="1.00" arrival="106.00" arrivalLane="1328664748#0_1" arrivalPos="165.37" arrivalSpeed="16.58" duration="105.00" routeLength="329.48" waitingTime="62.00" waitingCount="1" stopTime="0.00" timeLoss="84.24" rerouteNo="0" devices="tripinfo_flow_route_46_duration_20250327_1930.0" vType="car" speedFactor="1.05" vaporized=""/>
    <tripinfo id="flow_route_44_duration_20250327_1930.2" depart="3.00" departLane="791826085_0" departPos="15.07" departSpeed="0.00" departDelay="0.14" arrival="107.00" arrivalLane="134193294#0_1" arrivalPos="117.27" arrivalSpeed="14.05" duration="104.00" routeLength="456.57" waitingTime="47.00" waitingCount="1" stopTime="0.00" timeLoss="71.61" rerouteNo="0" devices="tripinfo_flow_route_44_duration_20250327_1930.2" vType="car" speedFactor="0.86" vaporized=""/>
    <tripinfo id="flow_route_44_duration_20250327_1930.9" depart="23.00" departLane="791826085_0" departPos="46.04" departSpeed="0.00" departDelay="10.15" arrival="108.00" arrivalLane="134193294#0_2" arrivalPos="11.49" arrivalSpeed="11.81" duration="85.00" routeLength="319.82" waitingTime="37.00" waitingCount="1" stopTime="0.00" timeLoss="65.19" rerouteNo="0" devices="tripinfo_flow_route_44_duration_20250327_1930.9" vType="car" speedFactor="1.15" vaporized=""/>
    <tripinfo id="flow_route_45_duration_20250327_1930.4" depart="12.00" departLane="791826085_0" departPos="178.32" departSpeed="0.00" departDelay="4.73" arrival="110.00" arrivalLane="485211947#0_0" arrivalPos="105.91" arrivalSpeed="13.40" duration="98.00" routeLength="263.36" waitingTime="50.00" waitingCount="1" stopTime="0.00" timeLoss="81.51" rerouteNo="0" devices="tripinfo_flow_route_45_duration_20250327_1930.4" vType="car" speedFactor="1.01" vaporized=""/>
    <tripinfo id="flow_route_44_duration_20250327_1930.8" depart="20.00" departLane="791826085_0" departPos="96.64" departSpeed="0.00" departDelay="8.58" arrival="110.00" arrivalLane="134193294#0_1" arrivalPos="47.83" arrivalSpeed="13.22" duration="90.00" routeLength="305.56" waitingTime="42.00" waitingCount="1" stopTime="0.00" timeLoss="71.52" rerouteNo="0" devices="tripinfo_flow_route_44_duration_20250327_1930.8" vType="car" speedFactor="1.18" vaporized=""/>
    <tripinfo id="flow_route_46_duration_20250327_1930.1" depart="5.00" departLane="791826085_0" departPos="77.20" departSpeed="0.00" departDelay="1.67" arrival="111.00" arrivalLane="1328664748#0_1" arrivalPos="140.94" arrivalSpeed="15.57" duration="106.00" routeLength="412.53" waitingTime="49.00" waitingCount="1" stopTime="0.00" timeLoss="80.30" rerouteNo="0" devices="tripinfo_flow_route_46_duration_20250327_1930.1" vType="car" speedFactor="1.05" vaporized=""/>
    <tripinfo id="flow_route_46_duration_20250327_1930.4" depart="23.00" departLane="791826085_0" departPos="121.19" departSpeed="0.00" departDelay="9.67" arrival="111.00" arrivalLane="1328664748#0_1" arrivalPos="75.43" arrivalSpeed="14.85" duration="88.00" routeLength="303.02" waitingTime="44.00" waitingCount="1" stopTime="0.00" timeLoss="68.39" rerouteNo="0" devices="tripinfo_flow_route_46_duration_20250327_1930.4" vType="car" speedFactor="0.99" vaporized=""/>
    <tripinfo id="flow_route_45_duration_20250327_1930.8" depart="25.00" departLane="791826085_0" departPos="140.52" departSpeed="0.00" departDelay="10.46" arrival="112.00" arrivalLane="485211947#0_0" arrivalPos="14.82" arrivalSpeed="8.12" duration="87.00" routeLength="210.07" waitingTime="46.00" waitingCount="1" stopTime="0.00" timeLoss="73.22" rerouteNo="0" devices="tripinfo_flow_route_45_duration_20250327_1930.8" vType="car" speedFactor="1.18" vaporized=""/>
    <tripinfo id="flow_route_44_duration_20250327_1930.12" depart="36.00" departLane="791826085_0" departPos="31.86" departSpeed="0.00" departDelay="18.86" arrival="113.00" arrivalLane="134193294#0_1" arrivalPos="17.96" arrivalSpeed="13.24" duration="77.00" routeLength="340.47" waitingTime="29.00" waitingCount="1" stopTime="0.00" timeLoss="56.20" rerouteNo="0" devices="tripinfo_flow_route_44_duration_20250327_1930.12" vType="car" speedFactor="1.04" vaporized=""/>
    <tripinfo id="flow_route_44_duration_20250327_1930.6" depart="14.00" departLane="791826085_0" departPos="28.05" departSpeed="0.00" departDelay="5.43" arrival="114.00" arrivalLane="134193294#0_1" arrivalPos="139.24" arrivalSpeed="16.17" duration="100.00" routeLength="465.56" waitingTime="44.00" waitingCount="1" stopTime="0.00" timeLoss="71.12" rerouteNo="0" devices="tripinfo_flow_route_44_duration_20250327_1930.6" vType="car" speedFactor="0.97" vaporized=""/>
    <tripinfo id="flow_route_46_duration_20250327_1930.3" depart="16.00" departLane="791826085_0" departPos="200.61" departSpeed="0.00" departDelay="6.00" arrival="114.00" arrivalLane="1328664748#0_1" arrivalPos="208.04" arrivalSpeed="15.59" duration="98.00" routeLength="356.22" waitingTime="50.00" waitingCount="1" stopTime="0.00" timeLoss="74.29" rerouteNo="0" devices="tripinfo_flow_route_46_duration_20250327_1930.3" vType="car" speedFactor="0.95" vaporized=""/>
    <tripinfo id="flow_route_46_duration_20250327_1930.5" depart="31.00" departLane="791826085_0" departPos="37.29" departSpeed="0.00" departDelay="14.34" arrival="117.00" arrivalLane="1328664748#0_1" arrivalPos="81.25" arrivalSpeed="13.76" duration="86.00" routeLength="392.75" waitingTime="29.00" waitingCount="1" stopTime="0.00" timeLoss="61.62" rerouteNo="0" devices="tripinfo_flow_route_46_duration_20250327_1930.5" vType="car" speedFactor="1.09" vaporized=""/>
    <tripinfo id="flow_route_45_duration_20250327_1930.5" depart="16.00" departLane="791826085_0" departPos="138.02" departSpeed="0.00" departDelay="6.91" arrival="118.00" arrivalLane="485211947#0_0" arrivalPos="128.15" arrivalSpeed="14.97" duration="102.00" routeLength="325.88" waitingTime="46.00" waitingCount="1" stopTime="0.00" timeLoss="78.87" rerouteNo="0" devices="tripinfo_flow_route_45_duration_20250327_1930.5" vType="car" speedFactor="0.92" vaporized=""/>
    <tripinfo id="flow_route_45_duration_20250327_1930.6" depart="16.00" departLane="791826085_0" departPos="127.11" departSpeed="0.00" departDelay="5.09" arrival="119.00" arrivalLane="485211947#0_0" arrivalPos="107.48" arrivalSpeed="14.10" duration="103.00" routeLength="316.13" waitingTime="45.00" waitingCount="1" stopTime="0.00" timeLoss="80.63" rerouteNo="0" devices="tripinfo_flow_route_45_duration_20250327_1930.6" vType="car" speedFactor="0.93" vaporized=""/>
    <tripinfo id="flow_route_44_duration_20250327_1930.14" depart="39.00" departLane="791826085_0" departPos="185.43" departSpeed="0.00" departDelay="19.01" arrival="119.00" arrivalLane="134193294#0_1" arrivalPos="149.90" arrivalSpeed="14.40" duration="80.00" routeLength="318.83" waitingTime="37.00" waitingCount="1" stopTime="0.00" timeLoss="57.86" rerouteNo="0" devices="tripinfo_flow_route_44_duration_20250327_1930.14" vType="car" speedFactor="0.88" vaporized=""/>
    <tripinfo id="flow_route_44_duration_20250327_1930.13" depart="36.00" departLane="791826085_0" departPos="73.70" departSpeed="0.00" departDelay="17.44" arrival="121.00" arrivalLane="134193294#0_1" arrivalPos="158.66" arrivalSpeed="16.20" duration="85.00" routeLength="439.33" waitingTime="31.00" waitingCount="1" stopTime="0.00" timeLoss="58.25" rerouteNo="0" devices="tripinfo_flow_route_44_duration_20250327_1930.13" vType="car" speedFactor="1.04" vaporized=""/>
    <tripinfo id="flow_route_44_duration_20250327_1930.17" depart="54.00" departLane="791826085_0" departPos="212.99" departSpeed="0.00" departDelay="29.72" arrival="121.00" arrivalLane="134193294#0_2" arrivalPos="113.78" arrivalSpeed="16.04" duration="67.00" routeLength="255.16" waitingTime="24.00" waitingCount="1" stopTime="0.00" timeLoss="50.63" rerouteNo="0" devices="tripinfo_flow_route_44_duration_20250327_1930.17" vType="car" speedFactor="0.97" vaporized=""/>
    <tripinfo id="flow_route_46_duration_20250327_1930.9" depart="76.00" departLane="791826085_0" departPos="81.34" departSpeed="0.00" departDelay="46.00" arrival="121.00" arrivalLane="1328664748#0_1" arrivalPos="0.19" arrivalSpeed="10.74" duration="45.00" routeLength="267.64" waitingTime="1.00" waitingCount="1" stopTime="0.00" timeLoss="28.02" rerouteNo="0" devices="tripinfo_flow_route_46_duration_20250327_1930.9" vType="car" speedFactor="1.06" vaporized=""/>
    <tripinfo id="flow_route_44_duration_20250327_1930.16" depart="51.00" departLane="791826085_0" departPos="155.32" departSpeed="0.00" departDelay="28.15" arrival="122.00" arrivalLane="134193294#0_1" arrivalPos="122.36" arrivalSpeed="16.17" duration="71.00" routeLength="321.41" waitingTime="27.00" waitingCount="1" stopTime="0.00" timeLoss="50.76" rerouteNo="0" devices="tripinfo_flow_route_44_duration_20250327_1930.16" vType="car" speedFactor="1.00" vaporized=""/>
    <tripinfo id="flow_route_46_duration_20250327_1930.10" depart="87.00" departLane="791826085_0" departPos="167.16" departSpeed="0.00" departDelay="53.67" arrival="122.00" arrivalLane="1328664748#0_1" arrivalPos="34.12" arrivalSpeed="12.57" duration="35.00" routeLength="215.74" waitingTime="0.00" waitingCount="0" stopTime="0.00" timeLoss="21.15" rerouteNo="0" devices="tripinfo_flow_route_46_duration_20250327_1930.10" vType="car" speedFactor="1.03" vaporized=""/>
    <tripinfo id="flow_route_45_duration_20250327_1930.9" depart="31.00" departLane="791826085_0" departPos="134.32" departSpeed="0.00" departDelay="14.64" arrival="123.00" arrivalLane="485211947#0_0" arrivalPos="77.30" arrivalSpeed="12.35" duration="92.00" routeLength="278.74" waitingTime="40.00" waitingCount="1" stopTime="0.00" timeLoss="73.10" rerouteNo="0" devices="tripinfo_flow_route_45_duration_20250327_1930.9" vType="car" speedFactor="0.96" vaporized=""/>
    <tripinfo id="flow_route_45_duration_20250327_1930.11" depart="40.00" departLane="791826085_0" departPos="217.24" departSpeed="0.00" departDelay="20.00" arrival="123.00" arrivalLane="485211947#0_0" arrivalPos="106.29" arrivalSpeed="13.50" duration="83.00" routeLength="224.82" waitingTime="43.00" waitingCount="1" stopTime="0.00" timeLoss="66.50" rerouteNo="0" devices="tripinfo_flow_route_45_duration_20250327_1930.11" vType="car" speedFactor="0.85" vaporized=""/>
    <tripinfo id="flow_route_45_duration_20250327_1930.12" depart="49.00" departLane="791826085_0" departPos="187.69" departSpeed="0.00" departDelay="27.18" arrival="123.00" arrivalLane="485211947#0_0" arrivalPos="52.10" arrivalSpeed="11.69" duration="74.00" routeLength="200.17" waitingTime="31.00" waitingCount="1" stopTime="0.00" timeLoss="60.84" rerouteNo="0" devices="tripinfo_flow_route_45_duration_20250327_1930.12" vType="car" speedFactor="1.10" vaporized=""/>
    <tripinfo id="flow_route_44_duration_20250327_1930.15" depart="44.00" departLane="791826085_0" departPos="3.80" departSpeed="0.00" departDelay="22.58" arrival="124.00" arrivalLane="134193294#0_1" arrivalPos="133.97" arrivalSpeed="16.26" duration="80.00" routeLength="484.54" waitingTime="20.00" waitingCount="1" stopTime="0.00" timeLoss="50.34" rerouteNo="0" devices="tripinfo_flow_route_44_duration_20250327_1930.15" vType="car" speedFactor="1.02" vaporized=""/>
    <tripinfo id="flow_route_44_duration_20250327_1930.18" depart="54.00" departLane="791826085_0" departPos="78.76" departSpeed="0.00" departDelay="28.30" arrival="124.00" arrivalLane="134193294#0_2" arrivalPos="116.79" arrivalSpeed="16.29" duration="70.00" routeLength="392.40" waitingTime="18.00" waitingCount="1" stopTime="0.00" timeLoss="45.95" rerouteNo="0" devices="tripinfo_flow_route_44_duration_20250327_1930.18" vType="car" speedFactor="1.08" vaporized=""/>
    <tripinfo id="flow_route_44_duration_20250327_1930.19" depart="66.00" departLane="791826085_0" departPos="197.07" departSpeed="0.00" departDelay="38.87" arrival="124.00" arrivalLane="134193294#0_1" arrivalPos="94.22" arrivalSpeed="14.24" duration="58.00" routeLength="251.51" waitingTime="18.00" waitingCount="1" stopTime="0.00" timeLoss="40.10" rerouteNo="0" devices="tripinfo_flow_route_44_duration_20250327_1930.19" vType="car" speedFactor="0.88" vaporized=""/>
    <tripinfo id="flow_route_44_duration_20250327_1930.22" depart="83.00" departLane="791826085_0" departPos="194.38" departSpeed="0.00" departDelay="51.58" arrival="124.00" arrivalLane="134193294#0_1" arrivalPos="67.50" arrivalSpeed="14.73" duration="41.00" routeLength="227.48" waitingTime="5.00" waitingCount="1" stopTime="0.00" timeLoss="26.27" rerouteNo="0" devices="tripinfo_flow_route_44_duration_20250327_1930.22" vType="car" speedFactor="0.98" vaporized=""/>
    <tripinfo id="flow_route_46_duration_20250327_1930.6" depart="44.00" departLane="791826085_0" departPos="172.30" departSpeed="0.00" departDelay="24.00" arrival="125.00" arrivalLane="1328664748#0_1" arrivalPos="216.15" arrivalSpeed="14.06" duration="81.00" routeLength="392.63" waitingTime="29.00" waitingCount="1" stopTime="0.00" timeLoss="52.42" rerouteNo="0" devices="tripinfo_flow_route_46_duration_20250327_1930.6" vType="car" speedFactor="0.85" vaporized=""/>
    <tripinfo id="flow_route_44_duration_20250327_1930.20" depart="70.00" departLane="791826085_0" departPos="25.57" departSpeed="0.00" departDelay="41.44" arrival="127.00" arrivalLane="134193294#0_1" arrivalPos="82.80" arrivalSpeed="14.96" duration="57.00" routeLength="411.60" waitingTime="0.00" waitingCount="0" stopTime="0.00" timeLoss="29.23" rerouteNo="0" devices="tripinfo_flow_route_44_duration_20250327_1930.20" vType="car" speedFactor="0.91" vaporized=""/>
    <tripinfo id="flow_route_45_duration_20250327_1930.10" depart="38.00" departLane="791826085_0" departPos="62.14" departSpeed="0.00" departDelay="19.82" arrival="128.00" arrivalLane="485211947#0_0" arrivalPos="91.29" arrivalSpeed="13.46" duration="90.00" routeLength="364.91" waitingTime="30.00" waitingCount="1" stopTime="0.00" timeLoss="67.10" rerouteNo="0" devices="tripinfo_flow_route_45_duration_20250327_1930.10" vType="car" speedFactor="1.09" vaporized=""/>
    <tripinfo id="flow_route_46_duration_20250327_1930.8" depart="55.00" departLane="791826085_0" departPos="116.44" departSpeed="0.00" departDelay="28.34" arrival="128.00" arrivalLane="1328664748#0_1" arrivalPos="190.58" arrivalSpeed="16.27" duration="73.00" routeLength="422.93" waitingTime="20.00" waitingCount="1" stopTime="0.00" timeLoss="45.63" rerouteNo="0" devices="tripinfo_flow_route_46_duration_20250327_1930.8" vType="car" speedFactor="0.99" vaporized=""/>
    <tripinfo id="flow_route_46_duration_20250327_1930.7" depart="54.00" departLane="791826085_0" departPos="104.06" departSpeed="0.00" departDelay="30.67" arrival="132.00" arrivalLane="1328664748#0_1" arrivalPos="217.64" arrivalSpeed="16.56" duration="78.00" routeLength="462.37" waitingTime="17.00" waitingCount="1" stopTime="0.00" timeLoss="48.69" rerouteNo="0" devices="tripinfo_flow_route_46_duration_20250327_1930.7" vType="car" speedFactor="1.14" vaporized=""/>