<?xml version="1.0" encoding="UTF-8"?>

<!-- generated on 2025-05-06 21:08:26 by Eclipse SUMO sumo Version 1.20.0
<configuration xmlns:xsi="http://www.w3.org/2001/XMLSchema-instance" xsi:noNamespaceSchemaLocation="http://sumo.dlr.de/xsd/sumoConfiguration.xsd">

    <input>
        <net-file value="osm.net.xml"/>
        <route-files value="xml/route_static_cluster_11648745684_256036885_3839031483_4.rou.xml"/>
    </input>

    <output>
        <tripinfo-output value="xml/tripinfo_static_cluster_11648745684_256036885_3839031483_4.xml"/>
    </output>

    <traci_server>
        <remote-port value="43391"/>
    </traci_server>

</configuration>
-->

<tripinfos xmlns:xsi="http://www.w3.org/2001/XMLSchema-instance" xsi:noNamespaceSchemaLocation="http://sumo.dlr.de/xsd/tripinfo_file.xsd">
    <tripinfo id="flow_route_72_duration_20250327_2130.0" depart="0.00" departLane="1369578052#0_0" departPos="161.40" departSpeed="0.00" departDelay="0.00" arrival="15.00" arrivalLane="133342692#0_0" arrivalPos="42.43" arrivalSpeed="11.65" duration="15.00" routeLength="81.12" waitingTime="0.00" waitingCount="0" stopTime="0.00" timeLoss="8.08" rerouteNo="0" devices="tripinfo_flow_route_72_duration_20250327_2130.0" vType="car" speedFactor="0.89" vaporized=""/>
    <tripinfo id="flow_route_68_duration_20250327_2130.0" depart="0.00" departLane="1253209803#0_0" departPos="143.52" departSpeed="0.00" departDelay="0.00" arrival="30.00" arrivalLane="-138002002#2_1" arrivalPos="90.53" arrivalSpeed="16.53" duration="30.00" routeLength="298.33" waitingTime="0.00" waitingCount="0" stopTime="0.00" timeLoss="11.24" rerouteNo="0" devices="tripinfo_flow_route_68_duration_20250327_2130.0" vType="car" speedFactor="1.08" vaporized=""/>
    <tripinfo id="flow_route_70_duration_20250327_2130.0" depart="0.00" departLane="1253209803#0_0" departPos="83.97" departSpeed="0.00" departDelay="0.00" arrival="32.00" arrivalLane="133342692#0_2" arrivalPos="7.48" arrivalSpeed="9.70" duration="32.00" routeLength="271.18" waitingTime="0.00" waitingCount="0" stopTime="0.00" timeLoss="13.58" rerouteNo="0" devices="tripinfo_flow_route_70_duration_20250327_2130.0" vType="car" speedFactor="0.83" vaporized=""/>
    <tripinfo id="flow_route_71_duration_20250327_2130.1" depart="12.00" departLane="1369578052#0_0" departPos="177.79" departSpeed="0.00" departDelay="0.00" arrival="32.00" arrivalLane="138002016#0_0" arrivalPos="105.47" arrivalSpeed="14.96" duration="20.00" routeLength="145.36" waitingTime="0.00" waitingCount="0" stopTime="0.00" timeLoss="9.75" rerouteNo="0" devices="tripinfo_flow_route_71_duration_20250327_2130.1" vType="car" speedFactor="0.93" vaporized=""/>
    <tripinfo id="flow_route_69_duration_20250327_2130.0" depart="0.00" departLane="1253209803#0_0" departPos="179.76" departSpeed="0.00" departDelay="0.00" arrival="34.00" arrivalLane="380585337#0_0" arrivalPos="14.31" arrivalSpeed="16.34" duration="34.00" routeLength="299.43" waitingTime="0.00" waitingCount="0" stopTime="0.00" timeLoss="14.76" rerouteNo="0" devices="tripinfo_flow_route_69_duration_20250327_2130.0" vType="car" speedFactor="1.03" vaporized=""/>
    <tripinfo id="flow_route_65_duration_20250327_2130.0" depart="8.00" departLane="133131666#1_0" departPos="5.26" departSpeed="0.00" departDelay="8.00" arrival="41.00" arrivalLane="138002016#0_2" arrivalPos="14.48" arrivalSpeed="8.18" duration="33.00" routeLength="193.68" waitingTime="0.00" waitingCount="0" stopTime="0.00" timeLoss="20.30" rerouteNo="0" devices="tripinfo_flow_route_65_duration_20250327_2130.0" vType="car" speedFactor="1.01" vaporized=""/>
    <tripinfo id="flow_route_68_duration_20250327_2130.2" depart="20.00" departLane="1253209803#0_0" departPos="296.83" departSpeed="0.00" departDelay="0.00" arrival="42.00" arrivalLane="-138002002#2_0" arrivalPos="131.81" arrivalSpeed="15.92" duration="22.00" routeLength="186.30" waitingTime="0.00" waitingCount="0" stopTime="0.00" timeLoss="10.46" rerouteNo="0" devices="tripinfo_flow_route_68_duration_20250327_2130.2" vType="car" speedFactor="1.01" vaporized=""/>
    <tripinfo id="flow_route_63_duration_20250327_2130.1" depart="12.00" departLane="133131666#1_0" departPos="9.13" departSpeed="0.00" departDelay="0.00" arrival="44.00" arrivalLane="133342692#0_1" arrivalPos="117.46" arrivalSpeed="16.40" duration="32.00" routeLength="292.04" waitingTime="0.00" waitingCount="0" stopTime="0.00" timeLoss="13.69" rerouteNo="0" devices="tripinfo_flow_route_63_duration_20250327_2130.1" vType="car" speedFactor="0.99" vaporized=""/>
    <tripinfo id="flow_route_64_duration_20250327_2130.2" depart="20.00" departLane="133131666#1_0" departPos="13.24" departSpeed="0.00" departDelay="0.00" arrival="45.00" arrivalLane="-138002002#2_0" arrivalPos="16.40" arrivalSpeed="8.15" duration="25.00" routeLength="168.71" waitingTime="0.00" waitingCount="0" stopTime="0.00" timeLoss="14.32" rerouteNo="0" devices="tripinfo_flow_route_64_duration_20250327_2130.2" vType="car" speedFactor="1.16" vaporized=""/>
    <tripinfo id="flow_route_64_duration_20250327_2130.0" depart="2.00" departLane="133131666#1_0" departPos="6.82" departSpeed="0.00" departDelay="2.00" arrival="51.00" arrivalLane="-138002002#2_0" arrivalPos="131.25" arrivalSpeed="15.04" duration="49.00" routeLength="289.98" waitingTime="8.00" waitingCount="1" stopTime="0.00" timeLoss="29.21" rerouteNo="0" devices="tripinfo_flow_route_64_duration_20250327_2130.0" vType="car" speedFactor="0.94" vaporized=""/>
    <tripinfo id="flow_route_63_duration_20250327_2130.0" depart="0.00" departLane="133131666#1_0" departPos="14.94" departSpeed="0.00" departDelay="0.00" arrival="52.00" arrivalLane="133342692#0_0" arrivalPos="152.76" arrivalSpeed="16.57" duration="52.00" routeLength="321.54" waitingTime="10.00" waitingCount="1" stopTime="0.00" timeLoss="32.17" rerouteNo="0" devices="tripinfo_flow_route_63_duration_20250327_2130.0" vType="car" speedFactor="1.06" vaporized=""/>
    <tripinfo id="flow_route_64_duration_20250327_2130.1" depart="10.00" departLane="133131666#1_0" departPos="21.24" departSpeed="0.00" departDelay="0.00" arrival="54.00" arrivalLane="-138002002#2_0" arrivalPos="140.83" arrivalSpeed="15.34" duration="44.00" routeLength="285.14" waitingTime="3.00" waitingCount="1" stopTime="0.00" timeLoss="25.69" rerouteNo="0" devices="tripinfo_flow_route_64_duration_20250327_2130.1" vType="car" speedFactor="1.05" vaporized=""/>
    <tripinfo id="flow_route_63_duration_20250327_2130.2" depart="27.00" departLane="133131666#1_0" departPos="3.97" departSpeed="0.00" departDelay="3.00" arrival="54.00" arrivalLane="133342692#0_0" arrivalPos="84.45" arrivalSpeed="15.89" duration="27.00" routeLength="264.20" waitingTime="0.00" waitingCount="0" stopTime="0.00" timeLoss="10.43" rerouteNo="0" devices="tripinfo_flow_route_63_duration_20250327_2130.2" vType="car" speedFactor="0.97" vaporized=""/>
    <tripinfo id="flow_route_65_duration_20250327_2130.1" depart="22.00" departLane="133131666#1_0" departPos="6.83" departSpeed="0.00" departDelay="2.00" arrival="60.00" arrivalLane="138002016#0_2" arrivalPos="212.70" arrivalSpeed="16.22" duration="38.00" routeLength="390.33" waitingTime="0.00" waitingCount="0" stopTime="0.00" timeLoss="13.51" rerouteNo="0" devices="tripinfo_flow_route_65_duration_20250327_2130.1" vType="car" speedFactor="1.02" vaporized=""/>
    <tripinfo id="flow_route_64_duration_20250327_2130.3" depart="31.00" departLane="133131666#1_0" departPos="4.01" departSpeed="0.00" departDelay="1.00" arrival="62.00" arrivalLane="-138002002#2_0" arrivalPos="62.45" arrivalSpeed="11.03" duration="31.00" routeLength="223.99" waitingTime="0.00" waitingCount="0" stopTime="0.00" timeLoss="15.59" rerouteNo="0" devices="tripinfo_flow_route_64_duration_20250327_2130.3" vType="car" speedFactor="0.95" vaporized=""/>
    <tripinfo id="flow_route_63_duration_20250327_2130.3" depart="37.00" departLane="133131666#1_0" departPos="8.65" departSpeed="0.00" departDelay="1.00" arrival="65.00" arrivalLane="133342692#0_0" arrivalPos="123.77" arrivalSpeed="16.31" duration="28.00" routeLength="298.83" waitingTime="0.00" waitingCount="0" stopTime="0.00" timeLoss="9.56" rerouteNo="0" devices="tripinfo_flow_route_63_duration_20250327_2130.3" vType="car" speedFactor="1.18" vaporized=""/>
    <tripinfo id="flow_route_64_duration_20250327_2130.4" depart="42.00" departLane="133131666#1_0" departPos="13.88" departSpeed="0.00" departDelay="2.00" arrival="71.00" arrivalLane="-138002002#2_0" arrivalPos="67.27" arrivalSpeed="11.35" duration="29.00" routeLength="218.94" waitingTime="0.00" waitingCount="0" stopTime="0.00" timeLoss="14.54" rerouteNo="0" devices="tripinfo_flow_route_64_duration_20250327_2130.4" vType="car" speedFactor="0.99" vaporized=""/>
    <tripinfo id="flow_route_75_duration_20250327_2130.0" depart="0.00" departLane="380593307#0_0" departPos="8.02" departSpeed="0.00" departDelay="0.00" arrival="75.00" arrivalLane="-138002002#2_1" arrivalPos="1.11" arrivalSpeed="6.39" duration="75.00" routeLength="196.85" waitingTime="44.00" waitingCount="1" stopTime="0.00" timeLoss="62.52" rerouteNo="0" devices="tripinfo_flow_route_75_duration_20250327_2130.0" vType="car" speedFactor="1.09" vaporized=""/>
    <tripinfo id="flow_route_75_duration_20250327_2130.1" depart="9.00" departLane="380593307#0_0" departPos="52.39" departSpeed="0.00" departDelay="0.43" arrival="81.00" arrivalLane="-138002002#2_1" arrivalPos="5.97" arrivalSpeed="8.84" duration="72.00" routeLength="157.34" waitingTime="38.00" waitingCount="1" stopTime="0.00" timeLoss="61.37" rerouteNo="0" devices="tripinfo_flow_route_75_duration_20250327_2130.1" vType="car" speedFactor="1.03" vaporized=""/>
    <tripinfo id="flow_route_74_duration_20250327_2130.1" depart="13.00" departLane="380593307#0_0" departPos="29.16" departSpeed="0.00" departDelay="1.00" arrival="82.00" arrivalLane="138002016#0_0" arrivalPos="39.92" arrivalSpeed="9.03" duration="69.00" routeLength="193.45" waitingTime="35.00" waitingCount="1" stopTime="0.00" timeLoss="55.44" rerouteNo="0" devices="tripinfo_flow_route_74_duration_20250327_2130.1" vType="car" speedFactor="0.94" vaporized=""/>
    <tripinfo id="flow_route_75_duration_20250327_2130.2" depart="19.00" departLane="380593307#0_0" departPos="140.92" departSpeed="0.00" departDelay="1.86" arrival="87.00" arrivalLane="-138002002#2_1" arrivalPos="105.30" arrivalSpeed="14.40" duration="68.00" routeLength="168.14" waitingTime="38.00" waitingCount="1" stopTime="0.00" timeLoss="55.82" rerouteNo="0" devices="tripinfo_flow_route_75_duration_20250327_2130.2" vType="car" speedFactor="0.94" vaporized=""/>
    <tripinfo id="flow_route_73_duration_20250327_2130.0" depart="0.00" departLane="380593307#0_0" departPos="55.90" departSpeed="0.00" departDelay="0.00" arrival="88.00" arrivalLane="380585337#0_1" arrivalPos="13.23" arrivalSpeed="15.40" duration="88.00" routeLength="294.01" waitingTime="48.00" waitingCount="1" stopTime="0.00" timeLoss="68.41" rerouteNo="0" devices="tripinfo_flow_route_73_duration_20250327_2130.0" vType="car" speedFactor="0.94" vaporized=""/>
    <tripinfo id="flow_route_73_duration_20250327_2130.1" depart="12.00" departLane="380593307#0_0" departPos="45.85" departSpeed="0.00" departDelay="0.00" arrival="88.00" arrivalLane="380585337#0_0" arrivalPos="3.14" arrivalSpeed="14.42" duration="76.00" routeLength="293.97" waitingTime="36.00" waitingCount="1" stopTime="0.00" timeLoss="55.77" rerouteNo="0" devices="tripinfo_flow_route_73_duration_20250327_2130.1" vType="car" speedFactor="0.88" vaporized=""/>
    <tripinfo id="flow_route_75_duration_20250327_2130.4" depart="35.00" departLane="380593307#0_0" departPos="13.89" departSpeed="0.00" departDelay="0.72" arrival="88.00" arrivalLane="-138002002#2_1" arrivalPos="8.63" arrivalSpeed="10.39" duration="53.00" routeLength="198.50" waitingTime="17.00" waitingCount="1" stopTime="0.00" timeLoss="38.96" rerouteNo="0" devices="tripinfo_flow_route_75_duration_20250327_2130.4" vType="car" speedFactor="0.93" vaporized=""/>
    <tripinfo id="flow_route_75_duration_20250327_2130.3" depart="28.00" departLane="380593307#0_0" departPos="54.49" departSpeed="0.00" departDelay="2.29" arrival="90.00" arrivalLane="-138002002#2_1" arrivalPos="100.72" arrivalSpeed="15.05" duration="62.00" routeLength="249.99" waitingTime="22.00" waitingCount="1" stopTime="0.00" timeLoss="44.62" rerouteNo="0" devices="tripinfo_flow_route_75_duration_20250327_2130.3" vType="car" speedFactor="0.92" vaporized=""/>
    <tripinfo id="flow_route_73_duration_20250327_2130.3" depart="38.00" departLane="380593307#0_0" departPos="143.32" departSpeed="0.00" departDelay="2.00" arrival="90.00" arrivalLane="380585337#0_1" arrivalPos="7.04" arrivalSpeed="15.96" duration="52.00" routeLength="200.40" waitingTime="21.00" waitingCount="1" stopTime="0.00" timeLoss="39.74" rerouteNo="0" devices="tripinfo_flow_route_73_duration_20250327_2130.3" vType="car" speedFactor="1.01" vaporized=""/>
    <tripinfo id="flow_route_74_duration_20250327_2130.3" depart="39.00" departLane="380593307#0_0" departPos="72.43" departSpeed="0.00" departDelay="3.00" arrival="90.00" arrivalLane="138002016#0_0" arrivalPos="67.61" arrivalSpeed="11.51" duration="51.00" routeLength="177.87" waitingTime="17.00" waitingCount="1" stopTime="0.00" timeLoss="39.61" rerouteNo="0" devices="tripinfo_flow_route_74_duration_20250327_2130.3" vType="car" speedFactor="1.17" vaporized=""/>
    <tripinfo id="flow_route_73_duration_20250327_2130.2" depart="24.00" departLane="380593307#0_0" departPos="26.36" departSpeed="0.00" departDelay="0.00" arrival="92.00" arrivalLane="380585337#0_1" arrivalPos="4.09" arrivalSpeed="13.63" duration="68.00" routeLength="314.41" waitingTime="19.00" waitingCount="2" stopTime="0.00" timeLoss="44.70" rerouteNo="0" devices="tripinfo_flow_route_73_duration_20250327_2130.2" vType="car" speedFactor="0.83" vaporized=""/>
    <tripinfo id="flow_route_75_duration_20250327_2130.5" depart="43.00" departLane="380593307#0_0" departPos="123.39" departSpeed="0.00" departDelay="0.15" arrival="92.00" arrivalLane="-138002002#2_1" arrivalPos="90.76" arrivalSpeed="14.67" duration="49.00" routeLength="171.12" waitingTime="20.00" waitingCount="1" stopTime="0.00" timeLoss="38.38" rerouteNo="0" devices="tripinfo_flow_route_75_duration_20250327_2130.5" vType="car" speedFactor="1.18" vaporized=""/>
    <tripinfo id="flow_route_74_duration_20250327_2130.0" depart="0.00" departLane="380593307#0_0" departPos="118.68" departSpeed="0.00" departDelay="0.00" arrival="93.00" arrivalLane="138002016#0_0" arrivalPos="237.21" arrivalSpeed="14.10" duration="93.00" routeLength="301.22" waitingTime="51.00" waitingCount="1" stopTime="0.00" timeLoss="70.36" rerouteNo="0" devices="tripinfo_flow_route_74_duration_20250327_2130.0" vType="car" speedFactor="0.86" vaporized=""/>
    <tripinfo id="flow_route_73_duration_20250327_2130.4" depart="48.00" departLane="380593307#0_0" departPos="80.96" departSpeed="0.00" departDelay="0.00" arrival="94.00" arrivalLane="380585337#0_1" arrivalPos="9.97" arrivalSpeed="15.65" duration="46.00" routeLength="265.69" waitingTime="5.00" waitingCount="1" stopTime="0.00" timeLoss="29.55" rerouteNo="0" devices="tripinfo_flow_route_73_duration_20250327_2130.4" vType="car" speedFactor="1.03" vaporized=""/>
    <tripinfo id="flow_route_74_duration_20250327_2130.4" depart="49.00" departLane="380593307#0_0" departPos="48.82" departSpeed="0.00" departDelay="1.00" arrival="96.00" arrivalLane="138002016#0_0" arrivalPos="109.15" arrivalSpeed="14.71" duration="47.00" routeLength="243.02" waitingTime="6.00" waitingCount="1" stopTime="0.00" timeLoss="29.82" rerouteNo="0" devices="tripinfo_flow_route_74_duration_20250327_2130.4" vType="car" speedFactor="0.96" vaporized=""/>
    <tripinfo id="flow_route_75_duration_20250327_2130.6" depart="52.00" departLane="380593307#0_0" departPos="7.39" departSpeed="0.00" departDelay="0.57" arrival="97.00" arrivalLane="-138002002#2_1" arrivalPos="88.42" arrivalSpeed="14.40" duration="45.00" routeLength="284.79" waitingTime="1.00" waitingCount="1" stopTime="0.00" timeLoss="27.07" rerouteNo="0" devices="tripinfo_flow_route_75_duration_20250327_2130.6" vType="car" speedFactor="1.04" vaporized=""/>
    <tripinfo id="flow_route_74_duration_20250327_2130.2" depart="24.00" departLane="380593307#0_0" departPos="4.83" departSpeed="0.00" departDelay="0.00" arrival="105.00" arrivalLane="138002016#0_0" arrivalPos="303.99" arrivalSpeed="14.16" duration="81.00" routeLength="481.85" waitingTime="21.00" waitingCount="1" stopTime="0.00" timeLoss="46.51" rerouteNo="0" devices="tripinfo_flow_route_74_duration_20250327_2130.2" vType="car" speedFactor="0.87" vaporized=""/>
    <tripinfo id="flow_route_68_duration_20250327_2130.3" depart="30.00" departLane="1253209803#0_0" departPos="65.77" departSpeed="0.00" departDelay="0.00" arrival="106.00" arrivalLane="-138002002#2_1" arrivalPos="15.85" arrivalSpeed="8.75" duration="76.00" routeLength="301.40" waitingTime="37.00" waitingCount="1" stopTime="0.00" timeLoss="57.60" rerouteNo="0" devices="tripinfo_flow_route_68_duration_20250327_2130.3" vType="car" speedFactor="1.13" vaporized=""/>
    <tripinfo id="flow_route_68_duration_20250327_2130.1" depart="10.00" departLane="1253209803#0_0" departPos="9.47" departSpeed="0.00" departDelay="0.00" arrival="108.00" arrivalLane="-138002002#2_0" arrivalPos="29.31" arrivalSpeed="9.29" duration="98.00" routeLength="371.16" waitingTime="54.00" waitingCount="1" stopTime="0.00" timeLoss="75.63" rerouteNo="0" devices="tripinfo_flow_route_68_duration_20250327_2130.1" vType="car" speedFactor="1.12" vaporized=""/>
    <tripinfo id="flow_route_68_duration_20250327_2130.4" depart="40.00" departLane="1253209803#0_0" departPos="33.24" departSpeed="0.00" departDelay="0.00" arrival="108.00" arrivalLane="-138002002#2_0" arrivalPos="4.39" arrivalSpeed="8.52" duration="68.00" routeLength="322.47" waitingTime="27.00" waitingCount="1" stopTime="0.00" timeLoss="48.14" rerouteNo="0" devices="tripinfo_flow_route_68_duration_20250327_2130.4" vType="car" speedFactor="0.97" vaporized=""/>
    <tripinfo id="flow_route_68_duration_20250327_2130.5" depart="50.00" departLane="1253209803#0_0" departPos="44.81" departSpeed="0.00" departDelay="0.00" arrival="109.00" arrivalLane="-138002002#2_1" arrivalPos="22.90" arrivalSpeed="9.87" duration="59.00" routeLength="329.41" waitingTime="16.00" waitingCount="1" stopTime="0.00" timeLoss="38.86" rerouteNo="0" devices="tripinfo_flow_route_68_duration_20250327_2130.5" vType="car" speedFactor="1.04" vaporized=""/>
    <tripinfo id="flow_route_71_duration_20250327_2130.4" depart="48.00" departLane="1369578052#0_0" departPos="18.71" departSpeed="0.00" departDelay="0.00" arrival="116.00" arrivalLane="138002016#0_1" arrivalPos="94.33" arrivalSpeed="14.04" duration="68.00" routeLength="293.30" waitingTime="24.00" waitingCount="1" stopTime="0.00" timeLoss="47.93" rerouteNo="0" devices="tripinfo_flow_route_71_duration_20250327_2130.4" vType="car" speedFactor="0.90" vaporized=""/>
    <tripinfo id="flow_route_71_duration_20250327_2130.3" depart="36.00" departLane="1369578052#0_0" departPos="78.01" departSpeed="0.00" departDelay="0.00" arrival="118.00" arrivalLane="138002016#0_0" arrivalPos="112.01" arrivalSpeed="14.98" duration="82.00" routeLength="251.68" waitingTime="41.00" waitingCount="1" stopTime="0.00" timeLoss="66.16" rerouteNo="0" devices="tripinfo_flow_route_71_duration_20250327_2130.3" vType="car" speedFactor="1.15" vaporized=""/>
    <tripinfo id="flow_route_71_duration_20250327_2130.2" depart="24.00" departLane="1369578052#0_0" departPos="118.27" departSpeed="0.00" departDelay="0.00" arrival="120.00" arrivalLane="138002016#0_1" arrivalPos="184.66" arrivalSpeed="14.59" duration="96.00" routeLength="284.07" waitingTime="57.00" waitingCount="1" stopTime="0.00" timeLoss="76.27" rerouteNo="0" devices="tripinfo_flow_route_71_duration_20250327_2130.2" vType="car" speedFactor="0.89" vaporized=""/>
    <tripinfo id="flow_route_71_duration_20250327_2130.0" depart="0.00" departLane="1369578052#0_0" departPos="11.11" departSpeed="0.00" departDelay="0.00" arrival="122.00" arrivalLane="138002016#0_0" arrivalPos="236.62" arrivalSpeed="16.18" duration="122.00" routeLength="443.19" waitingTime="71.00" waitingCount="1" stopTime="0.00" timeLoss="94.86" rerouteNo="0" devices="tripinfo_flow_route_71_duration_20250327_2130.0" vType="car" speedFactor="1.05" vaporized=""/>
    <tripinfo id="flow_route_64_duration_20250327_2130.5" depart="51.00" departLane="133131666#1_0" departPos="8.25" departSpeed="0.00" departDelay="1.00" arrival="147.00" arrivalLane="-138002002#2_0" arrivalPos="131.20" arrivalSpeed="14.70" duration="96.00" routeLength="288.50" waitingTime="56.00" waitingCount="1" stopTime="0.00" timeLoss="77.49" rerouteNo="0" devices="tripinfo_flow_route_64_duration_20250327_2130.5" vType="car" speedFactor="1.09" vaporized=""/>
    <tripinfo id="flow_route_63_duration_20250327_2130.4" depart="51.00" departLane="133131666#1_0" departPos="19.58" departSpeed="0.00" departDelay="3.00" arrival="149.00" arrivalLane="133342692#0_0" arrivalPos="166.56" arrivalSpeed="16.56" duration="98.00" routeLength="330.70" waitingTime="56.00" waitingCount="1" stopTime="0.00" timeLoss="77.17" rerouteNo="0" devices="tripinfo_flow_route_63_duration_20250327_2130.4" vType="car" speedFactor="1.10" vaporized=""/>
    <tripinfo id="flow_route_65_duration_20250327_2130.2" depart="46.00" departLane="133131666#1_0" departPos="12.74" departSpeed="0.00" departDelay="6.00" arrival="157.00" arrivalLane="138002016#0_2" arrivalPos="310.97" arrivalSpeed="16.42" duration="111.00" routeLength="482.70" waitingTime="57.00" waitingCount="2" stopTime="0.00" timeLoss="81.16" rerouteNo="0" devices="tripinfo_flow_route_65_duration_20250327_2130.2" vType="car" speedFactor="1.02" vaporized=""/>
</tripinfos>
