<?xml version="1.0" encoding="UTF-8"?>

<!-- generated on 2025-05-06 21:07:56 by Eclipse SUMO sumo Version 1.20.0
<configuration xmlns:xsi="http://www.w3.org/2001/XMLSchema-instance" xsi:noNamespaceSchemaLocation="http://sumo.dlr.de/xsd/sumoConfiguration.xsd">

    <input>
        <net-file value="osm.net.xml"/>
        <route-files value="xml/route_static_GS_cluster_1342409365_3839031467_1.rou.xml"/>
    </input>

    <output>
        <tripinfo-output value="xml/tripinfo_static_GS_cluster_1342409365_3839031467_1.xml"/>
    </output>

    <traci_server>
        <remote-port value="48621"/>
    </traci_server>

</configuration>
-->

<tripinfos xmlns:xsi="http://www.w3.org/2001/XMLSchema-instance" xsi:noNamespaceSchemaLocation="http://sumo.dlr.de/xsd/tripinfo_file.xsd">
    <tripinfo id="flow_route_128_duration_20250327_2050.0" depart="0.00" departLane="134133272_0" departPos="226.49" departSpeed="0.00" departDelay="0.00" arrival="31.00" arrivalLane="380585338#0_0" arrivalPos="7.57" arrivalSpeed="5.61" duration="31.00" routeLength="279.28" waitingTime="0.00" waitingCount="0" stopTime="0.00" timeLoss="10.68" rerouteNo="0" devices="tripinfo_flow_route_128_duration_20250327_2050.0" vType="car" speedFactor="0.83" vaporized=""/>
    <tripinfo id="flow_route_92_duration_20250327_2050.1" depart="5.00" departLane="133000063_0" departPos="152.88" departSpeed="0.00" departDelay="0.72" arrival="37.00" arrivalLane="186409193_0" arrivalPos="54.86" arrivalSpeed="16.51" duration="32.00" routeLength="293.83" waitingTime="0.00" waitingCount="0" stopTime="0.00" timeLoss="13.44" rerouteNo="0" devices="tripinfo_flow_route_92_duration_20250327_2050.1" vType="car" speedFactor="1.03" vaporized=""/>
    <tripinfo id="flow_route_91_duration_20250327_2050.0" depart="0.00" departLane="133000063_0" departPos="128.34" departSpeed="0.00" departDelay="0.00" arrival="48.00" arrivalLane="683079387#1_0" arrivalPos="9.10" arrivalSpeed="16.56" duration="48.00" routeLength="599.49" waitingTime="0.00" waitingCount="0" stopTime="0.00" timeLoss="11.33" rerouteNo="0" devices="tripinfo_flow_route_91_duration_20250327_2050.0" vType="car" speedFactor="1.06" vaporized=""/>
    <tripinfo id="flow_route_103_duration_20250327_2050.0" depart="1.00" departLane="1342963997_0" departPos="57.81" departSpeed="0.00" departDelay="1.00" arrival="68.00" arrivalLane="683079387#1_0" arrivalPos="6.02" arrivalSpeed="16.29" duration="67.00" routeLength="524.42" waitingTime="11.00" waitingCount="1" stopTime="0.00" timeLoss="34.52" rerouteNo="0" devices="tripinfo_flow_route_103_duration_20250327_2050.0" vType="car" speedFactor="1.03" vaporized=""/>
    <tripinfo id="flow_route_145_duration_20250327_2050.0" depart="0.00" departLane="683079388#0_0" departPos="22.61" departSpeed="0.00" departDelay="0.00" arrival="68.00" arrivalLane="380585336_0" arrivalPos="229.76" arrivalSpeed="15.56" duration="68.00" routeLength="831.39" waitingTime="0.00" waitingCount="0" stopTime="0.00" timeLoss="15.32" rerouteNo="0" devices="tripinfo_flow_route_145_duration_20250327_2050.0" vType="car" speedFactor="0.94" vaporized=""/>
    <tripinfo id="flow_route_93_duration_20250327_2050.0" depart="0.00" departLane="133000063_0" departPos="115.92" departSpeed="0.00" departDelay="0.00" arrival="69.00" arrivalLane="380585336_1" arrivalPos="19.16" arrivalSpeed="16.56" duration="69.00" routeLength="758.54" waitingTime="0.00" waitingCount="0" stopTime="0.00" timeLoss="23.13" rerouteNo="0" devices="tripinfo_flow_route_93_duration_20250327_2050.0" vType="car" speedFactor="1.01" vaporized=""/>
    <tripinfo id="flow_route_102_duration_20250327_2050.0" depart="0.00" departLane="1342963997_0" departPos="83.70" departSpeed="0.00" departDelay="0.00" arrival="70.00" arrivalLane="380585336_1" arrivalPos="207.08" arrivalSpeed="16.23" duration="70.00" routeLength="834.32" waitingTime="0.00" waitingCount="0" stopTime="0.00" timeLoss="18.42" rerouteNo="0" devices="tripinfo_flow_route_102_duration_20250327_2050.0" vType="car" speedFactor="1.08" vaporized=""/>
    <tripinfo id="flow_route_129_duration_20250327_2050.0" depart="0.00" departLane="134133272_0" departPos="105.80" departSpeed="0.00" departDelay="0.00" arrival="70.00" arrivalLane="683079387#1_0" arrivalPos="7.59" arrivalSpeed="16.53" duration="70.00" routeLength="945.90" waitingTime="0.00" waitingCount="0" stopTime="0.00" timeLoss="12.31" rerouteNo="0" devices="tripinfo_flow_route_129_duration_20250327_2050.0" vType="car" speedFactor="1.05" vaporized=""/>
    <tripinfo id="flow_route_144_duration_20250327_2050.1" depart="20.00" departLane="683079388#0_0" departPos="1.73" departSpeed="0.00" departDelay="0.00" arrival="70.00" arrivalLane="380585338#0_1" arrivalPos="48.42" arrivalSpeed="16.22" duration="50.00" routeLength="626.43" waitingTime="0.00" waitingCount="0" stopTime="0.00" timeLoss="11.68" rerouteNo="0" devices="tripinfo_flow_route_144_duration_20250327_2050.1" vType="car" speedFactor="1.18" vaporized=""/>
    <tripinfo id="flow_route_144_duration_20250327_2050.0" depart="0.00" departLane="683079388#0_0" departPos="1.56" departSpeed="0.00" departDelay="0.00" arrival="72.00" arrivalLane="380585338#0_0" arrivalPos="42.98" arrivalSpeed="9.63" duration="72.00" routeLength="621.16" waitingTime="9.00" waitingCount="1" stopTime="0.00" timeLoss="29.47" rerouteNo="0" devices="tripinfo_flow_route_144_duration_20250327_2050.0" vType="car" speedFactor="0.89" vaporized=""/>
    <tripinfo id="flow_route_128_duration_20250327_2050.1" depart="30.00" departLane="134133272_0" departPos="197.06" departSpeed="0.00" departDelay="0.00" arrival="75.00" arrivalLane="380585338#0_0" arrivalPos="18.18" arrivalSpeed="6.26" duration="45.00" routeLength="319.33" waitingTime="6.00" waitingCount="1" stopTime="0.00" timeLoss="24.75" rerouteNo="0" devices="tripinfo_flow_route_128_duration_20250327_2050.1" vType="car" speedFactor="1.04" vaporized=""/>
    <tripinfo id="flow_route_93_duration_20250327_2050.2" depart="4.00" departLane="133000063_0" departPos="109.11" departSpeed="0.00" departDelay="0.76" arrival="78.00" arrivalLane="380585336_1" arrivalPos="129.38" arrivalSpeed="16.57" duration="74.00" routeLength="875.56" waitingTime="0.00" waitingCount="0" stopTime="0.00" timeLoss="20.61" rerouteNo="0" devices="tripinfo_flow_route_93_duration_20250327_2050.2" vType="car" speedFactor="1.09" vaporized=""/>
    <tripinfo id="flow_route_103_duration_20250327_2050.1" depart="30.00" departLane="1342963997_0" departPos="166.08" departSpeed="0.00" departDelay="0.00" arrival="80.00" arrivalLane="683079387#1_0" arrivalPos="3.09" arrivalSpeed="16.29" duration="50.00" routeLength="413.22" waitingTime="2.00" waitingCount="1" stopTime="0.00" timeLoss="24.41" rerouteNo="0" devices="tripinfo_flow_route_103_duration_20250327_2050.1" vType="car" speedFactor="1.04" vaporized=""/>
    <tripinfo id="flow_route_102_duration_20250327_2050.3" depart="20.00" departLane="1342963997_0" departPos="166.65" departSpeed="0.00" departDelay="0.00" arrival="83.00" arrivalLane="380585336_1" arrivalPos="11.73" arrivalSpeed="15.46" duration="63.00" routeLength="556.03" waitingTime="6.00" waitingCount="1" stopTime="0.00" timeLoss="26.82" rerouteNo="0" devices="tripinfo_flow_route_102_duration_20250327_2050.3" vType="car" speedFactor="0.93" vaporized=""/>
    <tripinfo id="flow_route_102_duration_20250327_2050.2" depart="14.00" departLane="1342963997_0" departPos="128.49" departSpeed="0.00" departDelay="0.67" arrival="86.00" arrivalLane="380585336_1" arrivalPos="37.51" arrivalSpeed="16.10" duration="72.00" routeLength="619.97" waitingTime="6.00" waitingCount="1" stopTime="0.00" timeLoss="33.71" rerouteNo="0" devices="tripinfo_flow_route_102_duration_20250327_2050.2" vType="car" speedFactor="0.97" vaporized=""/>
    <tripinfo id="flow_route_93_duration_20250327_2050.1" depart="3.00" departLane="133000063_0" departPos="88.35" departSpeed="0.00" departDelay="1.38" arrival="95.00" arrivalLane="380585336_0" arrivalPos="288.04" arrivalSpeed="14.16" duration="92.00" routeLength="1054.98" waitingTime="0.00" waitingCount="0" stopTime="0.00" timeLoss="18.81" rerouteNo="0" devices="tripinfo_flow_route_93_duration_20250327_2050.1" vType="car" speedFactor="0.86" vaporized=""/>
    <tripinfo id="flow_route_92_duration_20250327_2050.2" depart="11.00" departLane="133000063_0" departPos="70.85" departSpeed="0.00" departDelay="2.43" arrival="96.00" arrivalLane="186409193_0" arrivalPos="55.88" arrivalSpeed="14.62" duration="85.00" routeLength="376.89" waitingTime="30.00" waitingCount="1" stopTime="0.00" timeLoss="58.11" rerouteNo="0" devices="tripinfo_flow_route_92_duration_20250327_2050.2" vType="car" speedFactor="0.88" vaporized=""/>
    <tripinfo id="flow_route_92_duration_20250327_2050.0" depart="0.00" departLane="133000063_0" departPos="1.04" departSpeed="0.00" departDelay="0.00" arrival="97.00" arrivalLane="186409193_0" arrivalPos="41.62" arrivalSpeed="15.20" duration="97.00" routeLength="432.44" waitingTime="30.00" waitingCount="1" stopTime="0.00" timeLoss="68.23" rerouteNo="0" devices="tripinfo_flow_route_92_duration_20250327_2050.0" vType="car" speedFactor="0.94" vaporized=""/>
    <tripinfo id="flow_route_102_duration_20250327_2050.1" depart="7.00" departLane="1342963997_0" departPos="54.18" departSpeed="0.00" departDelay="0.33" arrival="99.00" arrivalLane="380585336_1" arrivalPos="99.74" arrivalSpeed="16.29" duration="92.00" routeLength="756.51" waitingTime="7.00" waitingCount="2" stopTime="0.00" timeLoss="45.23" rerouteNo="0" devices="tripinfo_flow_route_102_duration_20250327_2050.1" vType="car" speedFactor="0.99" vaporized=""/>
    <tripinfo id="flow_route_92_duration_20250327_2050.4" depart="37.00" departLane="133000063_0" departPos="122.85" departSpeed="0.00" departDelay="19.86" arrival="101.00" arrivalLane="186409193_0" arrivalPos="33.89" arrivalSpeed="14.45" duration="64.00" routeLength="302.89" waitingTime="13.00" waitingCount="1" stopTime="0.00" timeLoss="43.14" rerouteNo="0" devices="tripinfo_flow_route_92_duration_20250327_2050.4" vType="car" speedFactor="0.92" vaporized=""/>
    <tripinfo id="flow_route_91_duration_20250327_2050.1" depart="10.00" departLane="133000063_0" departPos="22.28" departSpeed="0.00" departDelay="2.50" arrival="104.00" arrivalLane="683079387#1_0" arrivalPos="7.81" arrivalSpeed="15.13" duration="94.00" routeLength="704.25" waitingTime="17.00" waitingCount="1" stopTime="0.00" timeLoss="48.08" rerouteNo="0" devices="tripinfo_flow_route_91_duration_20250327_2050.1" vType="car" speedFactor="0.93" vaporized=""/>
    <tripinfo id="flow_route_92_duration_20250327_2050.5" depart="43.00" departLane="133000063_0" departPos="98.75" departSpeed="0.00" departDelay="21.58" arrival="105.00" arrivalLane="186409193_0" arrivalPos="57.97" arrivalSpeed="16.25" duration="62.00" routeLength="351.08" waitingTime="6.00" waitingCount="1" stopTime="0.00" timeLoss="40.34" rerouteNo="0" devices="tripinfo_flow_route_92_duration_20250327_2050.5" vType="car" speedFactor="1.15" vaporized=""/>
    <tripinfo id="flow_route_91_duration_20250327_2050.2" depart="31.00" departLane="133000063_0" departPos="78.50" departSpeed="0.00" departDelay="16.00" arrival="109.00" arrivalLane="683079387#1_0" arrivalPos="6.09" arrivalSpeed="14.60" duration="78.00" routeLength="646.31" waitingTime="8.00" waitingCount="2" stopTime="0.00" timeLoss="34.12" rerouteNo="0" devices="tripinfo_flow_route_91_duration_20250327_2050.2" vType="car" speedFactor="0.89" vaporized=""/>
    <tripinfo id="flow_route_102_duration_20250327_2050.4" depart="27.00" departLane="1342963997_0" departPos="92.08" departSpeed="0.00" departDelay="0.34" arrival="109.00" arrivalLane="380585336_1" arrivalPos="178.33" arrivalSpeed="16.55" duration="82.00" routeLength="797.20" waitingTime="0.00" waitingCount="0" stopTime="0.00" timeLoss="33.25" rerouteNo="0" devices="tripinfo_flow_route_102_duration_20250327_2050.4" vType="car" speedFactor="1.10" vaporized=""/>
    <tripinfo id="flow_route_92_duration_20250327_2050.3" depart="22.00" departLane="133000063_0" departPos="14.82" departSpeed="0.00" departDelay="9.15" arrival="113.00" arrivalLane="186409193_0" arrivalPos="33.39" arrivalSpeed="15.54" duration="91.00" routeLength="410.44" waitingTime="8.00" waitingCount="1" stopTime="0.00" timeLoss="65.20" rerouteNo="0" devices="tripinfo_flow_route_92_duration_20250327_2050.3" vType="car" speedFactor="1.02" vaporized=""/>
    <tripinfo id="flow_route_91_duration_20250327_2050.4" depart="55.00" departLane="133000063_0" departPos="35.74" departSpeed="0.00" departDelay="25.00" arrival="115.00" arrivalLane="683079387#1_1" arrivalPos="3.73" arrivalSpeed="16.15" duration="60.00" routeLength="686.72" waitingTime="0.00" waitingCount="0" stopTime="0.00" timeLoss="18.07" rerouteNo="0" devices="tripinfo_flow_route_91_duration_20250327_2050.4" vType="car" speedFactor="1.03" vaporized=""/>
    <tripinfo id="flow_route_102_duration_20250327_2050.5" depart="34.00" departLane="1342963997_0" departPos="125.60" departSpeed="0.00" departDelay="0.67" arrival="116.00" arrivalLane="380585336_0" arrivalPos="173.21" arrivalSpeed="14.18" duration="82.00" routeLength="758.56" waitingTime="1.00" waitingCount="1" stopTime="0.00" timeLoss="30.11" rerouteNo="0" devices="tripinfo_flow_route_102_duration_20250327_2050.5" vType="car" speedFactor="0.88" vaporized=""/>
    <tripinfo id="flow_route_93_duration_20250327_2050.5" depart="12.00" departLane="133000063_0" departPos="38.43" departSpeed="0.00" departDelay="3.90" arrival="118.00" arrivalLane="380585336_1" arrivalPos="12.57" arrivalSpeed="15.31" duration="106.00" routeLength="829.42" waitingTime="25.00" waitingCount="1" stopTime="0.00" timeLoss="52.62" rerouteNo="0" devices="tripinfo_flow_route_93_duration_20250327_2050.5" vType="car" speedFactor="0.94" vaporized=""/>
    <tripinfo id="flow_route_129_duration_20250327_2050.1" depart="30.00" departLane="134133272_0" departPos="170.03" departSpeed="0.00" departDelay="0.00" arrival="126.00" arrivalLane="683079387#1_0" arrivalPos="8.94" arrivalSpeed="16.31" duration="96.00" routeLength="883.02" waitingTime="19.00" waitingCount="1" stopTime="0.00" timeLoss="42.23" rerouteNo="0" devices="tripinfo_flow_route_129_duration_20250327_2050.1" vType="car" speedFactor="1.09" vaporized=""/>
    <tripinfo id="flow_route_102_duration_20250327_2050.8" depart="54.00" departLane="1342963997_0" departPos="59.76" departSpeed="0.00" departDelay="0.67" arrival="126.00" arrivalLane="380585336_1" arrivalPos="195.04" arrivalSpeed="16.57" duration="72.00" routeLength="846.23" waitingTime="0.00" waitingCount="0" stopTime="0.00" timeLoss="20.18" rerouteNo="0" devices="tripinfo_flow_route_102_duration_20250327_2050.8" vType="car" speedFactor="1.06" vaporized=""/>
    <tripinfo id="flow_route_102_duration_20250327_2050.6" depart="40.00" departLane="1342963997_0" departPos="162.40" departSpeed="0.00" departDelay="0.00" arrival="129.00" arrivalLane="380585336_0" arrivalPos="412.18" arrivalSpeed="14.72" duration="89.00" routeLength="960.73" waitingTime="5.00" waitingCount="1" stopTime="0.00" timeLoss="24.66" rerouteNo="0" devices="tripinfo_flow_route_102_duration_20250327_2050.6" vType="car" speedFactor="0.90" vaporized=""/>
    <tripinfo id="flow_route_93_duration_20250327_2050.6" depart="19.00" departLane="133000063_0" departPos="31.58" departSpeed="0.00" departDelay="9.27" arrival="130.00" arrivalLane="380585336_1" arrivalPos="139.60" arrivalSpeed="15.17" duration="111.00" routeLength="963.31" waitingTime="15.00" waitingCount="2" stopTime="0.00" timeLoss="49.04" rerouteNo="0" devices="tripinfo_flow_route_93_duration_20250327_2050.6" vType="car" speedFactor="0.94" vaporized=""/>
    <tripinfo id="flow_route_102_duration_20250327_2050.7" depart="47.00" departLane="1342963997_0" departPos="62.10" departSpeed="0.00" departDelay="0.34" arrival="133.00" arrivalLane="380585336_0" arrivalPos="380.64" arrivalSpeed="15.57" duration="86.00" routeLength="1029.49" waitingTime="0.00" waitingCount="0" stopTime="0.00" timeLoss="19.64" rerouteNo="0" devices="tripinfo_flow_route_102_duration_20250327_2050.7" vType="car" speedFactor="0.94" vaporized=""/>
    <tripinfo id="flow_route_144_duration_20250327_2050.2" depart="40.00" departLane="683079388#0_0" departPos="8.90" departSpeed="0.00" departDelay="0.00" arrival="138.00" arrivalLane="380585338#0_0" arrivalPos="146.82" arrivalSpeed="15.61" duration="98.00" routeLength="717.66" waitingTime="31.00" waitingCount="1" stopTime="0.00" timeLoss="54.62" rerouteNo="0" devices="tripinfo_flow_route_144_duration_20250327_2050.2" vType="car" speedFactor="1.14" vaporized=""/>
    <tripinfo id="flow_route_93_duration_20250327_2050.3" depart="5.00" departLane="133000063_0" departPos="68.31" departSpeed="0.00" departDelay="0.14" arrival="140.00" arrivalLane="380585336_0" arrivalPos="347.33" arrivalSpeed="16.35" duration="135.00" routeLength="1134.31" waitingTime="35.00" waitingCount="1" stopTime="0.00" timeLoss="65.86" rerouteNo="0" devices="tripinfo_flow_route_93_duration_20250327_2050.3" vType="car" speedFactor="1.05" vaporized=""/>
    <tripinfo id="flow_route_93_duration_20250327_2050.12" depart="42.00" departLane="133000063_0" departPos="47.76" departSpeed="0.00" departDelay="22.55" arrival="142.00" arrivalLane="380585336_1" arrivalPos="63.98" arrivalSpeed="16.17" duration="100.00" routeLength="871.51" waitingTime="0.00" waitingCount="0" stopTime="0.00" timeLoss="46.88" rerouteNo="0" devices="tripinfo_flow_route_93_duration_20250327_2050.12" vType="car" speedFactor="1.13" vaporized=""/>
    <tripinfo id="flow_route_93_duration_20250327_2050.7" depart="22.00" departLane="133000063_0" departPos="58.39" departSpeed="0.00" departDelay="10.65" arrival="143.00" arrivalLane="380585336_1" arrivalPos="111.27" arrivalSpeed="16.50" duration="121.00" routeLength="908.17" waitingTime="15.00" waitingCount="2" stopTime="0.00" timeLoss="65.61" rerouteNo="0" devices="tripinfo_flow_route_93_duration_20250327_2050.7" vType="car" speedFactor="1.16" vaporized=""/>
    <tripinfo id="flow_route_93_duration_20250327_2050.4" depart="7.00" departLane="133000063_0" departPos="5.58" departSpeed="0.00" departDelay="0.52" arrival="145.00" arrivalLane="380585336_1" arrivalPos="229.35" arrivalSpeed="16.22" duration="138.00" routeLength="1079.06" waitingTime="24.00" waitingCount="1" stopTime="0.00" timeLoss="72.06" rerouteNo="0" devices="tripinfo_flow_route_93_duration_20250327_2050.4" vType="car" speedFactor="1.12" vaporized=""/>
    <tripinfo id="flow_route_93_duration_20250327_2050.8" depart="27.00" departLane="133000063_0" departPos="105.95" departSpeed="0.00" departDelay="14.03" arrival="148.00" arrivalLane="380585336_2" arrivalPos="101.71" arrivalSpeed="16.11" duration="121.00" routeLength="851.05" waitingTime="24.00" waitingCount="3" stopTime="0.00" timeLoss="69.42" rerouteNo="0" devices="tripinfo_flow_route_93_duration_20250327_2050.8" vType="car" speedFactor="1.01" vaporized=""/>
    <tripinfo id="flow_route_93_duration_20250327_2050.9" depart="36.00" departLane="133000063_0" departPos="48.44" departSpeed="0.00" departDelay="21.41" arrival="149.00" arrivalLane="380585336_0" arrivalPos="291.42" arrivalSpeed="13.45" duration="113.00" routeLength="1098.27" waitingTime="1.00" waitingCount="1" stopTime="0.00" timeLoss="34.17" rerouteNo="0" devices="tripinfo_flow_route_93_duration_20250327_2050.9" vType="car" speedFactor="0.83" vaporized=""/>
    <tripinfo id="flow_route_93_duration_20250327_2050.10" depart="37.00" departLane="133000063_0" departPos="21.41" departSpeed="0.00" departDelay="20.79" arrival="151.00" arrivalLane="380585336_0" arrivalPos="129.69" arrivalSpeed="14.15" duration="114.00" routeLength="963.57" waitingTime="1.00" waitingCount="1" stopTime="0.00" timeLoss="48.00" rerouteNo="0" devices="tripinfo_flow_route_93_duration_20250327_2050.10" vType="car" speedFactor="0.87" vaporized=""/>
    <tripinfo id="flow_route_93_duration_20250327_2050.15" depart="49.00" departLane="133000063_0" departPos="113.44" departSpeed="0.00" departDelay="24.69" arrival="163.00" arrivalLane="380585336_1" arrivalPos="304.17" arrivalSpeed="16.14" duration="114.00" routeLength="1046.02" waitingTime="5.00" waitingCount="1" stopTime="0.00" timeLoss="50.90" rerouteNo="0" devices="tripinfo_flow_route_93_duration_20250327_2050.15" vType="car" speedFactor="1.02" vaporized=""/>
    <tripinfo id="flow_route_92_duration_20250327_2050.6" depart="50.00" departLane="133000063_0" departPos="2.01" departSpeed="0.00" departDelay="24.29" arrival="163.00" arrivalLane="186409193_0" arrivalPos="16.94" arrivalSpeed="14.97" duration="113.00" routeLength="406.79" waitingTime="27.00" waitingCount="2" stopTime="0.00" timeLoss="86.30" rerouteNo="0" devices="tripinfo_flow_route_92_duration_20250327_2050.6" vType="car" speedFactor="0.97" vaporized=""/>
    <tripinfo id="flow_route_92_duration_20250327_2050.7" depart="60.00" departLane="133000063_0" departPos="22.30" departSpeed="0.00" departDelay="30.01" arrival="163.00" arrivalLane="186409193_0" arrivalPos="57.07" arrivalSpeed="15.71" duration="103.00" routeLength="426.62" waitingTime="33.00" waitingCount="1" stopTime="0.00" timeLoss="75.80" rerouteNo="0" devices="tripinfo_flow_route_92_duration_20250327_2050.7" vType="car" speedFactor="0.96" vaporized=""/>
    <tripinfo id="flow_route_92_duration_20250327_2050.8" depart="76.00" departLane="133000063_0" departPos="14.57" departSpeed="0.00" departDelay="41.72" arrival="165.00" arrivalLane="186409193_0" arrivalPos="5.93" arrivalSpeed="12.79" duration="89.00" routeLength="383.22" waitingTime="15.00" waitingCount="1" stopTime="0.00" timeLoss="60.28" rerouteNo="0" devices="tripinfo_flow_route_92_duration_20250327_2050.8" vType="car" speedFactor="0.85" vaporized=""/>
    <tripinfo id="flow_route_91_duration_20250327_2050.5" depart="80.00" departLane="133000063_0" departPos="78.49" departSpeed="0.00" departDelay="42.50" arrival="166.00" arrivalLane="683079387#1_1" arrivalPos="9.01" arrivalSpeed="16.33" duration="86.00" routeLength="649.24" waitingTime="22.00" waitingCount="1" stopTime="0.00" timeLoss="46.41" rerouteNo="0" devices="tripinfo_flow_route_91_duration_20250327_2050.5" vType="car" speedFactor="1.02" vaporized=""/>
    <tripinfo id="flow_route_91_duration_20250327_2050.3" depart="45.00" departLane="133000063_0" departPos="94.60" departSpeed="0.00" departDelay="22.50" arrival="167.00" arrivalLane="683079387#1_0" arrivalPos="2.12" arrivalSpeed="16.51" duration="122.00" routeLength="626.24" waitingTime="42.00" waitingCount="2" stopTime="0.00" timeLoss="83.58" rerouteNo="0" devices="tripinfo_flow_route_91_duration_20250327_2050.3" vType="car" speedFactor="1.17" vaporized=""/>
    <tripinfo id="flow_route_92_duration_20250327_2050.9" depart="89.00" departLane="133000063_0" departPos="18.89" departSpeed="0.00" departDelay="50.44" arrival="173.00" arrivalLane="186409193_0" arrivalPos="2.49" arrivalSpeed="12.19" duration="84.00" routeLength="375.46" waitingTime="1.00" waitingCount="1" stopTime="0.00" timeLoss="60.27" rerouteNo="0" devices="tripinfo_flow_route_92_duration_20250327_2050.9" vType="car" speedFactor="1.00" vaporized=""/>
    <tripinfo id="flow_route_91_duration_20250327_2050.6" depart="111.00" departLane="133000063_0" departPos="34.78" departSpeed="0.00" departDelay="66.00" arrival="177.00" arrivalLane="683079387#1_1" arrivalPos="9.65" arrivalSpeed="16.20" duration="66.00" routeLength="693.59" waitingTime="0.00" waitingCount="0" stopTime="0.00" timeLoss="24.06" rerouteNo="0" devices="tripinfo_flow_route_91_duration_20250327_2050.6" vType="car" speedFactor="1.02" vaporized=""/>
    <tripinfo id="flow_route_93_duration_20250327_2050.16" depart="51.00" departLane="133000063_0" departPos="70.94" departSpeed="0.00" departDelay="25.06" arrival="179.00" arrivalLane="380585336_1" arrivalPos="89.48" arrivalSpeed="16.49" duration="128.00" routeLength="873.83" waitingTime="36.00" waitingCount="1" stopTime="0.00" timeLoss="74.83" rerouteNo="0" devices="tripinfo_flow_route_93_duration_20250327_2050.16" vType="car" speedFactor="1.18" vaporized=""/>
    <tripinfo id="flow_route_92_duration_20250327_2050.10" depart="97.00" departLane="133000063_0" departPos="32.38" departSpeed="0.00" departDelay="54.15" arrival="179.00" arrivalLane="186409193_0" arrivalPos="39.78" arrivalSpeed="13.66" duration="82.00" routeLength="399.26" waitingTime="1.00" waitingCount="1" stopTime="0.00" timeLoss="56.35" rerouteNo="0" devices="tripinfo_flow_route_92_duration_20250327_2050.10" vType="car" speedFactor="0.97" vaporized=""/>
    <tripinfo id="flow_route_93_duration_20250327_2050.13" depart="43.00" departLane="133000063_0" departPos="17.72" departSpeed="0.00" departDelay="21.93" arrival="183.00" arrivalLane="380585336_1" arrivalPos="132.25" arrivalSpeed="16.44" duration="140.00" routeLength="969.82" waitingTime="27.00" waitingCount="2" stopTime="0.00" timeLoss="81.25" rerouteNo="0" devices="tripinfo_flow_route_93_duration_20250327_2050.13" vType="car" speedFactor="1.01" vaporized=""/>
    <tripinfo id="flow_route_93_duration_20250327_2050.11" depart="41.00" departLane="133000063_0" departPos="74.21" departSpeed="0.00" departDelay="23.17" arrival="184.00" arrivalLane="380585336_1" arrivalPos="70.96" arrivalSpeed="15.52" duration="143.00" routeLength="852.04" waitingTime="41.00" waitingCount="2" stopTime="0.00" timeLoss="89.18" rerouteNo="0" devices="tripinfo_flow_route_93_duration_20250327_2050.11" vType="car" speedFactor="0.95" vaporized=""/>
    <tripinfo id="flow_route_93_duration_20250327_2050.18" depart="62.00" departLane="133000063_0" departPos="16.83" departSpeed="0.00" departDelay="32.82" arrival="188.00" arrivalLane="380585336_1" arrivalPos="10.05" arrivalSpeed="16.42" duration="126.00" routeLength="848.51" waitingTime="14.00" waitingCount="3" stopTime="0.00" timeLoss="74.54" rerouteNo="0" devices="tripinfo_flow_route_93_duration_20250327_2050.18" vType="car" speedFactor="1.09" vaporized=""/>
    <tripinfo id="flow_route_93_duration_20250327_2050.26" depart="99.00" departLane="133000063_0" departPos="76.98" departSpeed="0.00" departDelay="56.85" arrival="205.00" arrivalLane="380585336_1" arrivalPos="249.73" arrivalSpeed="16.43" duration="106.00" routeLength="1028.04" waitingTime="1.00" waitingCount="1" stopTime="0.00" timeLoss="44.04" rerouteNo="0" devices="tripinfo_flow_route_93_duration_20250327_2050.26" vType="car" speedFactor="1.08" vaporized=""/>
    <tripinfo id="flow_route_93_duration_20250327_2050.22" depart="77.00" departLane="133000063_0" departPos="129.11" departSpeed="0.00" departDelay="41.34" arrival="206.00" arrivalLane="380585336_0" arrivalPos="329.08" arrivalSpeed="16.20" duration="129.00" routeLength="1055.27" waitingTime="25.00" waitingCount="2" stopTime="0.00" timeLoss="64.79" rerouteNo="0" devices="tripinfo_flow_route_93_duration_20250327_2050.22" vType="car" speedFactor="1.17" vaporized=""/>
    <tripinfo id="flow_route_93_duration_20250327_2050.14" depart="45.00" departLane="133000063_0" departPos="2.52" departSpeed="0.00" departDelay="22.31" arrival="208.00" arrivalLane="380585336_1" arrivalPos="76.12" arrivalSpeed="16.42" duration="163.00" routeLength="928.89" waitingTime="23.00" waitingCount="2" stopTime="0.00" timeLoss="106.52" rerouteNo="0" devices="tripinfo_flow_route_93_duration_20250327_2050.14" vType="car" speedFactor="0.99" vaporized=""/>
    <tripinfo id="flow_route_93_duration_20250327_2050.25" depart="91.00" departLane="133000063_0" departPos="39.67" departSpeed="0.00" departDelay="50.48" arrival="209.00" arrivalLane="380585336_1" arrivalPos="279.49" arrivalSpeed="16.39" duration="118.00" routeLength="1095.10" waitingTime="1.00" waitingCount="1" stopTime="0.00" timeLoss="51.62" rerouteNo="0" devices="tripinfo_flow_route_93_duration_20250327_2050.25" vType="car" speedFactor="1.02" vaporized=""/>
    <tripinfo id="flow_route_92_duration_20250327_2050.11" depart="111.00" departLane="133000063_0" departPos="49.05" departSpeed="0.00" departDelay="63.87" arrival="211.00" arrivalLane="186409193_0" arrivalPos="46.62" arrivalSpeed="14.49" duration="100.00" routeLength="389.43" waitingTime="34.00" waitingCount="1" stopTime="0.00" timeLoss="72.44" rerouteNo="0" devices="tripinfo_flow_route_92_duration_20250327_2050.11" vType="car" speedFactor="0.88" vaporized=""/>
    <tripinfo id="flow_route_93_duration_20250327_2050.17" depart="52.00" departLane="133000063_0" departPos="67.77" departSpeed="0.00" departDelay="24.44" arrival="223.00" arrivalLane="380585336_0" arrivalPos="347.85" arrivalSpeed="14.61" duration="171.00" routeLength="1135.36" waitingTime="36.00" waitingCount="1" stopTime="0.00" timeLoss="95.66" rerouteNo="0" devices="tripinfo_flow_route_93_duration_20250327_2050.17" vType="car" speedFactor="0.90" vaporized=""/>
    <tripinfo id="flow_route_93_duration_20250327_2050.19" depart="63.00" departLane="133000063_0" departPos="39.23" departSpeed="0.00" departDelay="32.20" arrival="223.00" arrivalLane="380585336_1" arrivalPos="299.48" arrivalSpeed="16.25" duration="160.00" routeLength="1115.54" waitingTime="20.00" waitingCount="2" stopTime="0.00" timeLoss="92.57" rerouteNo="0" devices="tripinfo_flow_route_93_duration_20250327_2050.19" vType="car" speedFactor="1.00" vaporized=""/>
    <tripinfo id="flow_route_91_duration_20250327_2050.7" depart="136.00" departLane="133000063_0" departPos="4.59" departSpeed="0.00" departDelay="83.50" arrival="224.00" arrivalLane="683079387#1_1" arrivalPos="4.98" arrivalSpeed="16.01" duration="88.00" routeLength="719.12" waitingTime="16.00" waitingCount="1" stopTime="0.00" timeLoss="42.97" rerouteNo="0" devices="tripinfo_flow_route_91_duration_20250327_2050.7" vType="car" speedFactor="0.97" vaporized=""/>