<?xml version="1.0" encoding="UTF-8"?>

<!-- generated on 2025-05-06 21:01:11 by Eclipse SUMO sumo Version 1.20.0
<configuration xmlns:xsi="http://www.w3.org/2001/XMLSchema-instance" xsi:noNamespaceSchemaLocation="http://sumo.dlr.de/xsd/sumoConfiguration.xsd">

    <input>
        <net-file value="osm.net.xml"/>
        <route-files value="xml/routes_sac2_cluster_4110471701_632031939.rou.xml"/>
    </input>

    <output>
        <tripinfo-output value="xml/tripinfo_9789.xml"/>
    </output>

    <traci_server>
        <remote-port value="51915"/>
    </traci_server>

</configuration>
-->

<tripinfos xmlns:xsi="http://www.w3.org/2001/XMLSchema-instance" xsi:noNamespaceSchemaLocation="http://sumo.dlr.de/xsd/tripinfo_file.xsd">
    <tripinfo id="flow_route_83_duration_20250327_2250.0" depart="0.00" departLane="423956929_0" departPos="101.16" departSpeed="0.00" departDelay="0.00" arrival="17.00" arrivalLane="186407685_0" arrivalPos="8.05" arrivalSpeed="6.86" duration="17.00" routeLength="101.45" waitingTime="0.00" waitingCount="0" stopTime="0.00" timeLoss="10.18" rerouteNo="0" devices="tripinfo_flow_route_83_duration_20250327_2250.0" vType="car" speedFactor="1.01" vaporized=""/>
    <tripinfo id="flow_route_62_duration_20250327_2250.0" depart="0.00" departLane="409155823_0" departPos="65.43" departSpeed="0.00" departDelay="0.00" arrival="23.00" arrivalLane="1091883842_0" arrivalPos="165.47" arrivalSpeed="16.29" duration="23.00" routeLength="205.45" waitingTime="0.00" waitingCount="0" stopTime="0.00" timeLoss="10.50" rerouteNo="0" devices="tripinfo_flow_route_62_duration_20250327_2250.0" vType="car" speedFactor="1.06" vaporized=""/>
    <tripinfo id="flow_route_82_duration_20250327_2250.0" depart="0.00" departLane="423956929_0" departPos="45.92" departSpeed="0.00" departDelay="0.00" arrival="24.00" arrivalLane="186407684#0_0" arrivalPos="62.79" arrivalSpeed="15.18" duration="24.00" routeLength="219.95" waitingTime="0.00" waitingCount="0" stopTime="0.00" timeLoss="8.99" rerouteNo="0" devices="tripinfo_flow_route_82_duration_20250327_2250.0" vType="car" speedFactor="0.94" vaporized=""/>
    <tripinfo id="flow_route_87_duration_20250327_2250.0" depart="0.00" departLane="430416184_0" departPos="1.75" departSpeed="0.00" departDelay="0.00" arrival="41.00" arrivalLane="1091883842_0" arrivalPos="109.56" arrivalSpeed="14.67" duration="41.00" routeLength="408.27" waitingTime="0.00" waitingCount="0" stopTime="0.00" timeLoss="15.64" rerouteNo="0" devices="tripinfo_flow_route_87_duration_20250327_2250.0" vType="car" speedFactor="1.03" vaporized=""/>
    <tripinfo id="flow_route_88_duration_20250327_2250.3" depart="8.00" departLane="430416184_0" departPos="253.21" departSpeed="0.00" departDelay="0.50" arrival="68.00" arrivalLane="186407684#0_1" arrivalPos="5.31" arrivalSpeed="7.77" duration="60.00" routeLength="69.73" waitingTime="38.00" waitingCount="2" stopTime="0.00" timeLoss="54.46" rerouteNo="0" devices="tripinfo_flow_route_88_duration_20250327_2250.3" vType="car" speedFactor="0.94" vaporized=""/>
    <tripinfo id="flow_route_88_duration_20250327_2250.0" depart="0.00" departLane="430416184_0" departPos="194.63" departSpeed="0.00" departDelay="0.00" arrival="70.00" arrivalLane="186407684#0_1" arrivalPos="3.84" arrivalSpeed="8.84" duration="70.00" routeLength="126.85" waitingTime="36.00" waitingCount="1" stopTime="0.00" timeLoss="60.47" rerouteNo="0" devices="tripinfo_flow_route_88_duration_20250327_2250.0" vType="car" speedFactor="0.83" vaporized=""/>
    <tripinfo id="flow_route_86_duration_20250327_2250.0" depart="0.00" departLane="430416184_0" departPos="215.48" departSpeed="0.00" departDelay="0.00" arrival="74.00" arrivalLane="186407685_1" arrivalPos="87.02" arrivalSpeed="13.76" duration="74.00" routeLength="195.42" waitingTime="40.00" waitingCount="1" stopTime="0.00" timeLoss="61.87" rerouteNo="0" devices="tripinfo_flow_route_86_duration_20250327_2250.0" vType="car" speedFactor="1.08" vaporized=""/>
    <tripinfo id="flow_route_88_duration_20250327_2250.15" depart="38.00" departLane="430416184_0" departPos="278.94" departSpeed="0.00" departDelay="0.50" arrival="77.00" arrivalLane="186407684#0_1" arrivalPos="36.25" arrivalSpeed="10.32" duration="39.00" routeLength="74.95" waitingTime="23.00" waitingCount="2" stopTime="0.00" timeLoss="33.69" rerouteNo="0" devices="tripinfo_flow_route_88_duration_20250327_2250.15" vType="car" speedFactor="1.02" vaporized=""/>
    <tripinfo id="flow_route_88_duration_20250327_2250.18" depart="45.00" departLane="430416184_0" departPos="234.74" departSpeed="0.00" departDelay="0.00" arrival="79.00" arrivalLane="186407684#0_1" arrivalPos="21.27" arrivalSpeed="9.74" duration="34.00" routeLength="104.17" waitingTime="8.00" waitingCount="2" stopTime="0.00" timeLoss="25.99" rerouteNo="0" devices="tripinfo_flow_route_88_duration_20250327_2250.18" vType="car" speedFactor="0.89" vaporized=""/>
    <tripinfo id="flow_route_88_duration_20250327_2250.4" depart="10.00" departLane="430416184_0" departPos="197.69" departSpeed="0.00" departDelay="0.00" arrival="87.00" arrivalLane="186407684#0_1" arrivalPos="28.37" arrivalSpeed="10.16" duration="77.00" routeLength="148.31" waitingTime="31.00" waitingCount="3" stopTime="0.00" timeLoss="66.41" rerouteNo="0" devices="tripinfo_flow_route_88_duration_20250327_2250.4" vType="car" speedFactor="0.86" vaporized=""/>
    <tripinfo id="flow_route_88_duration_20250327_2250.1" depart="3.00" departLane="430416184_0" departPos="130.75" departSpeed="0.00" departDelay="0.50" arrival="90.00" arrivalLane="186407684#0_1" arrivalPos="41.08" arrivalSpeed="11.77" duration="87.00" routeLength="227.97" waitingTime="28.00" waitingCount="1" stopTime="0.00" timeLoss="72.34" rerouteNo="0" devices="tripinfo_flow_route_88_duration_20250327_2250.1" vType="car" speedFactor="1.05" vaporized=""/>
    <tripinfo id="flow_route_88_duration_20250327_2250.7" depart="18.00" departLane="430416184_0" departPos="238.38" departSpeed="0.00" departDelay="0.50" arrival="90.00" arrivalLane="186407684#0_1" arrivalPos="82.76" arrivalSpeed="13.50" duration="72.00" routeLength="162.01" waitingTime="35.00" waitingCount="3" stopTime="0.00" timeLoss="60.76" rerouteNo="0" devices="tripinfo_flow_route_88_duration_20250327_2250.7" vType="car" speedFactor="1.05" vaporized=""/>
    <tripinfo id="flow_route_88_duration_20250327_2250.5" depart="13.00" departLane="430416184_0" departPos="148.34" departSpeed="0.00" departDelay="0.50" arrival="91.00" arrivalLane="186407684#0_1" arrivalPos="4.07" arrivalSpeed="10.08" duration="78.00" routeLength="173.36" waitingTime="27.00" waitingCount="1" stopTime="0.00" timeLoss="66.59" rerouteNo="0" devices="tripinfo_flow_route_88_duration_20250327_2250.5" vType="car" speedFactor="1.09" vaporized=""/>
    <tripinfo id="flow_route_88_duration_20250327_2250.6" depart="15.00" departLane="430416184_0" departPos="183.20" departSpeed="0.00" departDelay="0.00" arrival="91.00" arrivalLane="186407684#0_1" arrivalPos="27.06" arrivalSpeed="11.50" duration="76.00" routeLength="161.50" waitingTime="28.00" waitingCount="1" stopTime="0.00" timeLoss="65.26" rerouteNo="0" devices="tripinfo_flow_route_88_duration_20250327_2250.6" vType="car" speedFactor="1.03" vaporized=""/>
    <tripinfo id="flow_route_88_duration_20250327_2250.22" depart="55.00" departLane="430416184_0" departPos="167.75" departSpeed="0.00" departDelay="0.00" arrival="99.00" arrivalLane="186407684#0_1" arrivalPos="27.13" arrivalSpeed="10.31" duration="44.00" routeLength="177.01" waitingTime="12.00" waitingCount="3" stopTime="0.00" timeLoss="31.94" rerouteNo="0" devices="tripinfo_flow_route_88_duration_20250327_2250.22" vType="car" speedFactor="0.95" vaporized=""/>
    <tripinfo id="flow_route_88_duration_20250327_2250.2" depart="5.00" departLane="430416184_0" departPos="76.50" departSpeed="0.00" departDelay="0.00" arrival="103.00" arrivalLane="186407684#0_1" arrivalPos="49.91" arrivalSpeed="12.07" duration="98.00" routeLength="291.04" waitingTime="27.00" waitingCount="1" stopTime="0.00" timeLoss="78.78" rerouteNo="0" devices="tripinfo_flow_route_88_duration_20250327_2250.2" vType="car" speedFactor="0.89" vaporized=""/>
    <tripinfo id="flow_route_88_duration_20250327_2250.10" depart="25.00" departLane="430416184_0" departPos="87.27" departSpeed="0.00" departDelay="0.00" arrival="103.00" arrivalLane="186407684#0_1" arrivalPos="2.86" arrivalSpeed="9.96" duration="78.00" routeLength="233.22" waitingTime="23.00" waitingCount="1" stopTime="0.00" timeLoss="62.40" rerouteNo="0" devices="tripinfo_flow_route_88_duration_20250327_2250.10" vType="car" speedFactor="0.93" vaporized=""/>
    <tripinfo id="flow_route_88_duration_20250327_2250.8" depart="20.00" departLane="430416184_0" departPos="114.69" departSpeed="0.00" departDelay="0.00" arrival="107.00" arrivalLane="186407684#0_1" arrivalPos="78.23" arrivalSpeed="13.96" duration="87.00" routeLength="281.17" waitingTime="27.00" waitingCount="1" stopTime="0.00" timeLoss="69.05" rerouteNo="0" devices="tripinfo_flow_route_88_duration_20250327_2250.8" vType="car" speedFactor="1.12" vaporized=""/>
    <tripinfo id="flow_route_88_duration_20250327_2250.19" depart="48.00" departLane="430416184_0" departPos="193.22" departSpeed="0.00" departDelay="0.50" arrival="107.00" arrivalLane="186407684#0_1" arrivalPos="7.85" arrivalSpeed="9.44" duration="59.00" routeLength="132.26" waitingTime="17.00" waitingCount="1" stopTime="0.00" timeLoss="49.33" rerouteNo="0" devices="tripinfo_flow_route_88_duration_20250327_2250.19" vType="car" speedFactor="0.83" vaporized=""/>
    <tripinfo id="flow_route_88_duration_20250327_2250.9" depart="23.00" departLane="430416184_0" departPos="68.46" departSpeed="0.00" departDelay="0.50" arrival="108.00" arrivalLane="186407684#0_1" arrivalPos="47.97" arrivalSpeed="12.94" duration="85.00" routeLength="297.14" waitingTime="20.00" waitingCount="1" stopTime="0.00" timeLoss="66.05" rerouteNo="0" devices="tripinfo_flow_route_88_duration_20250327_2250.9" vType="car" speedFactor="0.99" vaporized=""/>
    <tripinfo id="flow_route_88_duration_20250327_2250.17" depart="43.00" departLane="430416184_0" departPos="165.30" departSpeed="0.00" departDelay="0.50" arrival="110.00" arrivalLane="186407684#0_1" arrivalPos="14.80" arrivalSpeed="11.54" duration="67.00" routeLength="167.13" waitingTime="17.00" waitingCount="1" stopTime="0.00" timeLoss="55.38" rerouteNo="0" devices="tripinfo_flow_route_88_duration_20250327_2250.17" vType="car" speedFactor="0.97" vaporized=""/>
    <tripinfo id="flow_route_88_duration_20250327_2250.20" depart="50.00" departLane="430416184_0" departPos="172.42" departSpeed="0.00" departDelay="0.00" arrival="116.00" arrivalLane="186407684#0_1" arrivalPos="63.06" arrivalSpeed="12.86" duration="66.00" routeLength="208.27" waitingTime="15.00" waitingCount="1" stopTime="0.00" timeLoss="51.20" rerouteNo="0" devices="tripinfo_flow_route_88_duration_20250327_2250.20" vType="car" speedFactor="0.87" vaporized=""/>
    <tripinfo id="flow_route_88_duration_20250327_2250.13" depart="33.00" departLane="430416184_0" departPos="95.81" departSpeed="0.00" departDelay="0.50" arrival="118.00" arrivalLane="186407684#0_1" arrivalPos="60.38" arrivalSpeed="13.36" duration="85.00" routeLength="282.19" waitingTime="16.00" waitingCount="2" stopTime="0.00" timeLoss="65.82" rerouteNo="0" devices="tripinfo_flow_route_88_duration_20250327_2250.13" vType="car" speedFactor="0.94" vaporized=""/>
    <tripinfo id="flow_route_88_duration_20250327_2250.11" depart="28.00" departLane="430416184_0" departPos="46.01" departSpeed="0.00" departDelay="0.50" arrival="120.00" arrivalLane="186407684#0_1" arrivalPos="67.38" arrivalSpeed="13.51" duration="92.00" routeLength="338.99" waitingTime="16.00" waitingCount="3" stopTime="0.00" timeLoss="69.34" rerouteNo="0" devices="tripinfo_flow_route_88_duration_20250327_2250.11" vType="car" speedFactor="0.88" vaporized=""/>
    <tripinfo id="flow_route_88_duration_20250327_2250.16" depart="40.00" departLane="430416184_0" departPos="64.53" departSpeed="0.00" departDelay="0.00" arrival="120.00" arrivalLane="186407684#0_1" arrivalPos="23.27" arrivalSpeed="12.00" duration="80.00" routeLength="276.38" waitingTime="12.00" waitingCount="1" stopTime="0.00" timeLoss="62.03" rerouteNo="0" devices="tripinfo_flow_route_88_duration_20250327_2250.16" vType="car" speedFactor="1.01" vaporized=""/>
    <tripinfo id="flow_route_88_duration_20250327_2250.12" depart="30.00" departLane="430416184_0" departPos="8.62" departSpeed="0.00" departDelay="0.00" arrival="123.00" arrivalLane="186407684#0_1" arrivalPos="84.30" arrivalSpeed="15.60" duration="93.00" routeLength="393.31" waitingTime="15.00" waitingCount="3" stopTime="0.00" timeLoss="67.26" rerouteNo="0" devices="tripinfo_flow_route_88_duration_20250327_2250.12" vType="car" speedFactor="0.94" vaporized=""/>
    <tripinfo id="flow_route_88_duration_20250327_2250.14" depart="35.00" departLane="430416184_0" departPos="36.26" departSpeed="0.00" departDelay="0.00" arrival="186.00" arrivalLane="186407684#0_1" arrivalPos="11.40" arrivalSpeed="8.17" duration="151.00" routeLength="292.77" waitingTime="69.00" waitingCount="2" stopTime="0.00" timeLoss="132.81" rerouteNo="0" devices="tripinfo_flow_route_88_duration_20250327_2250.14" vType="car" speedFactor="1.16" vaporized=""/>
    <tripinfo id="flow_route_88_duration_20250327_2250.21" depart="55.00" departLane="430416184_0" departPos="142.45" departSpeed="0.00" departDelay="2.50" arrival="189.00" arrivalLane="186407684#0_1" arrivalPos="60.95" arrivalSpeed="11.59" duration="134.00" routeLength="236.13" waitingTime="73.00" waitingCount="4" stopTime="0.00" timeLoss="118.24" rerouteNo="0" devices="tripinfo_flow_route_88_duration_20250327_2250.21" vType="car" speedFactor="0.92" vaporized=""/>
    <tripinfo id="flow_route_88_duration_20250327_2250.23" depart="59.00" departLane="430416184_0" departPos="53.03" departSpeed="0.00" departDelay="1.50" arrival="189.00" arrivalLane="186407684#0_1" arrivalPos="14.84" arrivalSpeed="9.08" duration="130.00" routeLength="279.45" waitingTime="61.00" waitingCount="2" stopTime="0.00" timeLoss="112.42" rerouteNo="0" devices="tripinfo_flow_route_88_duration_20250327_2250.23" vType="car" speedFactor="1.13" vaporized=""/>
</tripinfos>
