<?xml version="1.0" encoding="UTF-8"?>

<!-- generated on 2025-05-06 16:33:54 by Eclipse SUMO sumo Version 1.20.0
<configuration xmlns:xsi="http://www.w3.org/2001/XMLSchema-instance" xsi:noNamespaceSchemaLocation="http://sumo.dlr.de/xsd/sumoConfiguration.xsd">

    <input>
        <net-file value="osm.net.xml"/>
        <route-files value="xml/routes_ddpg_cluster3828547534_cluster_1507433914_2954854770_2954854771_2954854772_#9more.rou.xml"/>
    </input>

    <output>
        <tripinfo-output value="xml/tripinfo_42367.xml"/>
    </output>

    <traci_server>
        <remote-port value="53115"/>
    </traci_server>

</configuration>
-->

<tripinfos xmlns:xsi="http://www.w3.org/2001/XMLSchema-instance" xsi:noNamespaceSchemaLocation="http://sumo.dlr.de/xsd/tripinfo_file.xsd">
    <tripinfo id="flow_route_6_duration_20250327_2000.0" depart="0.00" departLane="1252820505#0_0" departPos="39.30" departSpeed="0.00" departDelay="0.00" arrival="18.00" arrivalLane="379698350#0_0" arrivalPos="9.38" arrivalSpeed="14.25" duration="18.00" routeLength="129.45" waitingTime="0.00" waitingCount="0" stopTime="0.00" timeLoss="9.81" rerouteNo="0" devices="tripinfo_flow_route_6_duration_20250327_2000.0" vType="car" speedFactor="1.01" vaporized=""/>
    <tripinfo id="flow_route_22_duration_20250327_2000.0" depart="0.00" departLane="137415945#0_0" departPos="8.70" departSpeed="0.00" departDelay="0.00" arrival="24.00" arrivalLane="1342054204_0" arrivalPos="47.56" arrivalSpeed="15.23" duration="24.00" routeLength="232.19" waitingTime="0.00" waitingCount="0" stopTime="0.00" timeLoss="8.92" rerouteNo="0" devices="tripinfo_flow_route_22_duration_20250327_2000.0" vType="car" speedFactor="0.94" vaporized=""/>
    <tripinfo id="flow_route_10_duration_20250327_2000.0" depart="0.00" departLane="1252820505#0_0" departPos="5.24" departSpeed="0.00" departDelay="0.00" arrival="28.00" arrivalLane="1235147073.116_0" arrivalPos="0.67" arrivalSpeed="13.54" duration="28.00" routeLength="263.17" waitingTime="0.00" waitingCount="0" stopTime="0.00" timeLoss="8.27" rerouteNo="0" devices="tripinfo_flow_route_10_duration_20250327_2000.0" vType="car" speedFactor="0.83" vaporized=""/>
    <tripinfo id="flow_route_8_duration_20250327_2000.1" depart="5.00" departLane="133000078#0_0" departPos="157.85" departSpeed="0.00" departDelay="0.00" arrival="37.00" arrivalLane="1235147073.116_0" arrivalPos="3.62" arrivalSpeed="15.76" duration="32.00" routeLength="205.95" waitingTime="0.00" waitingCount="0" stopTime="0.00" timeLoss="18.76" rerouteNo="0" devices="tripinfo_flow_route_8_duration_20250327_2000.1" vType="car" speedFactor="1.12" vaporized=""/>
    <tripinfo id="flow_route_6_duration_20250327_2000.1" depart="15.00" departLane="1252820505#0_0" departPos="7.48" departSpeed="0.00" departDelay="0.00" arrival="37.00" arrivalLane="379698350#0_0" arrivalPos="36.91" arrivalSpeed="16.27" duration="22.00" routeLength="188.81" waitingTime="0.00" waitingCount="0" stopTime="0.00" timeLoss="10.05" rerouteNo="0" devices="tripinfo_flow_route_6_duration_20250327_2000.1" vType="car" speedFactor="1.18" vaporized=""/>
    <tripinfo id="flow_route_11_duration_20250327_2000.0" depart="0.00" departLane="1252820505#0_0" departPos="76.11" departSpeed="0.00" departDelay="0.00" arrival="38.00" arrivalLane="137406408#0_2" arrivalPos="68.60" arrivalSpeed="12.23" duration="38.00" routeLength="154.08" waitingTime="8.00" waitingCount="1" stopTime="0.00" timeLoss="28.38" rerouteNo="0" devices="tripinfo_flow_route_11_duration_20250327_2000.0" vType="car" speedFactor="1.05" vaporized=""/>
    <tripinfo id="flow_route_8_duration_20250327_2000.2" depart="10.00" departLane="133000078#0_0" departPos="137.95" departSpeed="0.00" departDelay="0.00" arrival="39.00" arrivalLane="1235147073.116_0" arrivalPos="8.75" arrivalSpeed="16.55" duration="29.00" routeLength="230.98" waitingTime="0.00" waitingCount="0" stopTime="0.00" timeLoss="14.30" rerouteNo="0" devices="tripinfo_flow_route_8_duration_20250327_2000.2" vType="car" speedFactor="1.16" vaporized=""/>
    <tripinfo id="flow_route_8_duration_20250327_2000.0" depart="0.00" departLane="133000078#0_0" departPos="54.62" departSpeed="0.00" departDelay="0.00" arrival="41.00" arrivalLane="1235147073.116_0" arrivalPos="9.03" arrivalSpeed="16.18" duration="41.00" routeLength="314.60" waitingTime="0.00" waitingCount="0" stopTime="0.00" timeLoss="20.45" rerouteNo="0" devices="tripinfo_flow_route_8_duration_20250327_2000.0" vType="car" speedFactor="1.03" vaporized=""/>
    <tripinfo id="flow_route_10_duration_20250327_2000.1" depart="12.00" departLane="1252820505#0_0" departPos="15.94" departSpeed="0.00" departDelay="0.00" arrival="43.00" arrivalLane="1235147073.116_0" arrivalPos="14.32" arrivalSpeed="13.60" duration="31.00" routeLength="266.12" waitingTime="0.00" waitingCount="0" stopTime="0.00" timeLoss="11.34" rerouteNo="0" devices="tripinfo_flow_route_10_duration_20250327_2000.1" vType="car" speedFactor="0.83" vaporized=""/>
    <tripinfo id="flow_route_8_duration_20250327_2000.3" depart="15.00" departLane="133000078#0_0" departPos="117.10" departSpeed="0.00" departDelay="0.00" arrival="46.00" arrivalLane="1235147073.116_0" arrivalPos="15.19" arrivalSpeed="16.26" duration="31.00" routeLength="258.27" waitingTime="0.00" waitingCount="0" stopTime="0.00" timeLoss="14.42" rerouteNo="0" devices="tripinfo_flow_route_8_duration_20250327_2000.3" vType="car" speedFactor="1.15" vaporized=""/>
    <tripinfo id="flow_route_6_duration_20250327_2000.2" depart="32.00" departLane="1252820505#0_0" departPos="85.26" departSpeed="0.00" departDelay="2.00" arrival="52.00" arrivalLane="379698350#0_0" arrivalPos="71.06" arrivalSpeed="14.87" duration="20.00" routeLength="145.17" waitingTime="0.00" waitingCount="0" stopTime="0.00" timeLoss="11.01" rerouteNo="0" devices="tripinfo_flow_route_6_duration_20250327_2000.2" vType="car" speedFactor="1.10" vaporized=""/>
    <tripinfo id="flow_route_8_duration_20250327_2000.6" depart="31.00" departLane="133000078#0_0" departPos="169.54" departSpeed="0.00" departDelay="1.00" arrival="54.00" arrivalLane="1235147073.116_0" arrivalPos="10.16" arrivalSpeed="16.36" duration="23.00" routeLength="200.79" waitingTime="0.00" waitingCount="0" stopTime="0.00" timeLoss="9.39" rerouteNo="0" devices="tripinfo_flow_route_8_duration_20250327_2000.6" vType="car" speedFactor="1.00" vaporized=""/>
    <tripinfo id="flow_route_5_duration_20250327_2000.0" depart="0.00" departLane="291974733#0_0" departPos="43.68" departSpeed="0.00" departDelay="0.00" arrival="55.00" arrivalLane="1342054204_0" arrivalPos="62.15" arrivalSpeed="13.25" duration="55.00" routeLength="156.72" waitingTime="26.00" waitingCount="1" stopTime="0.00" timeLoss="43.38" rerouteNo="0" devices="tripinfo_flow_route_5_duration_20250327_2000.0" vType="car" speedFactor="0.94" vaporized=""/>
    <tripinfo id="flow_route_5_duration_20250327_2000.1" depart="13.00" departLane="291974733#0_0" departPos="26.13" departSpeed="0.00" departDelay="1.00" arrival="57.00" arrivalLane="1342054204_0" arrivalPos="60.33" arrivalSpeed="13.62" duration="44.00" routeLength="172.45" waitingTime="13.00" waitingCount="1" stopTime="0.00" timeLoss="30.97" rerouteNo="0" devices="tripinfo_flow_route_5_duration_20250327_2000.1" vType="car" speedFactor="0.89" vaporized=""/>
    <tripinfo id="flow_route_8_duration_20250327_2000.4" depart="21.00" departLane="133000078#0_0" departPos="87.78" departSpeed="0.00" departDelay="1.00" arrival="57.00" arrivalLane="1235147073.116_0" arrivalPos="14.96" arrivalSpeed="14.87" duration="36.00" routeLength="287.36" waitingTime="0.00" waitingCount="0" stopTime="0.00" timeLoss="15.31" rerouteNo="0" devices="tripinfo_flow_route_8_duration_20250327_2000.4" vType="car" speedFactor="0.90" vaporized=""/>
    <tripinfo id="flow_route_4_duration_20250327_2000.2" depart="24.00" departLane="291974733#0_0" departPos="62.01" departSpeed="0.00" departDelay="0.00" arrival="60.00" arrivalLane="379698350#0_2" arrivalPos="118.31" arrivalSpeed="16.17" duration="36.00" routeLength="247.20" waitingTime="1.00" waitingCount="1" stopTime="0.00" timeLoss="21.09" rerouteNo="0" devices="tripinfo_flow_route_4_duration_20250327_2000.2" vType="car" speedFactor="1.09" vaporized=""/>
    <tripinfo id="flow_route_5_duration_20250327_2000.2" depart="25.00" departLane="291974733#0_0" departPos="13.23" departSpeed="0.00" departDelay="1.00" arrival="60.00" arrivalLane="1342054204_0" arrivalPos="84.74" arrivalSpeed="15.29" duration="35.00" routeLength="209.77" waitingTime="0.00" waitingCount="0" stopTime="0.00" timeLoss="21.48" rerouteNo="0" devices="tripinfo_flow_route_5_duration_20250327_2000.2" vType="car" speedFactor="1.04" vaporized=""/>
    <tripinfo id="flow_route_4_duration_20250327_2000.1" depart="12.00" departLane="291974733#0_0" departPos="15.78" departSpeed="0.00" departDelay="0.00" arrival="61.00" arrivalLane="379698350#0_1" arrivalPos="122.97" arrivalSpeed="15.80" duration="49.00" routeLength="298.09" waitingTime="7.00" waitingCount="1" stopTime="0.00" timeLoss="29.78" rerouteNo="0" devices="tripinfo_flow_route_4_duration_20250327_2000.1" vType="car" speedFactor="0.97" vaporized=""/>
    <tripinfo id="flow_route_8_duration_20250327_2000.5" depart="25.00" departLane="133000078#0_0" departPos="76.73" departSpeed="0.00" departDelay="0.00" arrival="61.00" arrivalLane="1235147073.116_0" arrivalPos="1.90" arrivalSpeed="13.78" duration="36.00" routeLength="285.35" waitingTime="0.00" waitingCount="0" stopTime="0.00" timeLoss="14.44" rerouteNo="0" devices="tripinfo_flow_route_8_duration_20250327_2000.5" vType="car" speedFactor="0.85" vaporized=""/>
    <tripinfo id="flow_route_5_duration_20250327_2000.3" depart="40.00" departLane="291974733#0_0" departPos="34.34" departSpeed="0.00" departDelay="4.00" arrival="62.00" arrivalLane="1342054204_0" arrivalPos="57.45" arrivalSpeed="13.38" duration="22.00" routeLength="161.36" waitingTime="0.00" waitingCount="0" stopTime="0.00" timeLoss="10.81" rerouteNo="0" devices="tripinfo_flow_route_5_duration_20250327_2000.3" vType="car" speedFactor="0.94" vaporized=""/>
    <tripinfo id="flow_route_4_duration_20250327_2000.0" depart="0.00" departLane="291974733#0_0" departPos="63.06" departSpeed="0.00" departDelay="0.00" arrival="64.00" arrivalLane="379698350#0_0" arrivalPos="183.76" arrivalSpeed="16.12" duration="64.00" routeLength="311.60" waitingTime="26.00" waitingCount="1" stopTime="0.00" timeLoss="45.10" rerouteNo="0" devices="tripinfo_flow_route_4_duration_20250327_2000.0" vType="car" speedFactor="1.06" vaporized=""/>
    <tripinfo id="flow_route_23_duration_20250327_2000.1" depart="18.00" departLane="137415945#0_0" departPos="5.39" departSpeed="0.00" departDelay="13.39" arrival="65.00" arrivalLane="379698350#0_2" arrivalPos="6.69" arrivalSpeed="8.52" duration="47.00" routeLength="193.65" waitingTime="5.00" waitingCount="2" stopTime="0.00" timeLoss="34.52" rerouteNo="0" devices="tripinfo_flow_route_23_duration_20250327_2000.1" vType="car" speedFactor="0.99" vaporized=""/>
    <tripinfo id="flow_route_8_duration_20250327_2000.8" depart="41.00" departLane="133000078#0_0" departPos="163.02" departSpeed="0.00" departDelay="1.00" arrival="65.00" arrivalLane="1235147073.116_0" arrivalPos="4.95" arrivalSpeed="15.46" duration="24.00" routeLength="202.11" waitingTime="0.00" waitingCount="0" stopTime="0.00" timeLoss="9.25" rerouteNo="0" devices="tripinfo_flow_route_8_duration_20250327_2000.8" vType="car" speedFactor="0.94" vaporized=""/>
    <tripinfo id="flow_route_8_duration_20250327_2000.7" depart="35.00" departLane="133000078#0_0" departPos="69.97" departSpeed="0.00" departDelay="0.00" arrival="69.00" arrivalLane="1235147073.116_0" arrivalPos="12.22" arrivalSpeed="16.17" duration="34.00" routeLength="302.43" waitingTime="0.00" waitingCount="0" stopTime="0.00" timeLoss="14.15" rerouteNo="0" devices="tripinfo_flow_route_8_duration_20250327_2000.7" vType="car" speedFactor="1.02" vaporized=""/>
    <tripinfo id="flow_route_12_duration_20250327_2000.0" depart="0.00" departLane="133000078#0_0" departPos="66.48" departSpeed="0.00" departDelay="0.00" arrival="75.00" arrivalLane="1342054204_3" arrivalPos="21.59" arrivalSpeed="13.80" duration="75.00" routeLength="252.91" waitingTime="35.00" waitingCount="2" stopTime="0.00" timeLoss="57.44" rerouteNo="0" devices="tripinfo_flow_route_12_duration_20250327_2000.0" vType="car" speedFactor="0.89" vaporized=""/>
    <tripinfo id="flow_route_23_duration_20250327_2000.0" depart="0.00" departLane="137415945#0_0" departPos="0.59" departSpeed="0.00" departDelay="0.00" arrival="75.00" arrivalLane="379698350#0_2" arrivalPos="153.67" arrivalSpeed="13.88" duration="75.00" routeLength="345.44" waitingTime="21.00" waitingCount="2" stopTime="0.00" timeLoss="50.03" rerouteNo="0" devices="tripinfo_flow_route_23_duration_20250327_2000.0" vType="car" speedFactor="0.86" vaporized=""/>
    <tripinfo id="flow_route_8_duration_20250327_2000.11" depart="55.00" departLane="133000078#0_0" departPos="193.57" departSpeed="0.00" departDelay="0.00" arrival="76.00" arrivalLane="1235147073.116_0" arrivalPos="12.68" arrivalSpeed="15.11" duration="21.00" routeLength="179.29" waitingTime="0.00" waitingCount="0" stopTime="0.00" timeLoss="8.17" rerouteNo="0" devices="tripinfo_flow_route_8_duration_20250327_2000.11" vType="car" speedFactor="0.91" vaporized=""/>
    <tripinfo id="flow_route_7_duration_20250327_2000.0" depart="0.00" departLane="133000078#0_0" departPos="116.92" departSpeed="0.00" departDelay="0.00" arrival="78.00" arrivalLane="137406408#0_1" arrivalPos="45.36" arrivalSpeed="15.02" duration="78.00" routeLength="233.24" waitingTime="39.00" waitingCount="2" stopTime="0.00" timeLoss="63.24" rerouteNo="0" devices="tripinfo_flow_route_7_duration_20250327_2000.0" vType="car" speedFactor="1.08" vaporized=""/>
    <tripinfo id="flow_route_12_duration_20250327_2000.1" depart="8.00" departLane="133000078#0_0" departPos="46.07" departSpeed="0.00" departDelay="2.00" arrival="79.00" arrivalLane="1342054204_3" arrivalPos="13.88" arrivalSpeed="11.89" duration="71.00" routeLength="265.61" waitingTime="28.00" waitingCount="2" stopTime="0.00" timeLoss="53.61" rerouteNo="0" devices="tripinfo_flow_route_12_duration_20250327_2000.1" vType="car" speedFactor="0.93" vaporized=""/>
    <tripinfo id="flow_route_8_duration_20250327_2000.10" depart="50.00" departLane="133000078#0_0" departPos="112.68" departSpeed="0.00" departDelay="0.00" arrival="81.00" arrivalLane="1235147073.116_0" arrivalPos="0.18" arrivalSpeed="15.77" duration="31.00" routeLength="247.68" waitingTime="0.00" waitingCount="0" stopTime="0.00" timeLoss="14.55" rerouteNo="0" devices="tripinfo_flow_route_8_duration_20250327_2000.10" vType="car" speedFactor="1.02" vaporized=""/>
    <tripinfo id="flow_route_12_duration_20250327_2000.2" depart="12.00" departLane="133000078#0_0" departPos="132.49" departSpeed="0.00" departDelay="0.00" arrival="82.00" arrivalLane="1342054204_3" arrivalPos="83.74" arrivalSpeed="14.40" duration="70.00" routeLength="249.05" waitingTime="29.00" waitingCount="2" stopTime="0.00" timeLoss="52.79" rerouteNo="0" devices="tripinfo_flow_route_12_duration_20250327_2000.2" vType="car" speedFactor="0.87" vaporized=""/>
    <tripinfo id="flow_route_8_duration_20250327_2000.9" depart="46.00" departLane="133000078#0_0" departPos="7.15" departSpeed="0.00" departDelay="1.00" arrival="83.00" arrivalLane="1235147073.116_0" arrivalPos="14.40" arrivalSpeed="16.38" duration="37.00" routeLength="367.43" waitingTime="0.00" waitingCount="0" stopTime="0.00" timeLoss="13.75" rerouteNo="0" devices="tripinfo_flow_route_8_duration_20250327_2000.9" vType="car" speedFactor="1.03" vaporized=""/>
    <tripinfo id="flow_route_7_duration_20250327_2000.1" depart="21.00" departLane="133000078#0_0" departPos="101.73" departSpeed="0.00" departDelay="1.00" arrival="84.00" arrivalLane="137406408#0_1" arrivalPos="33.71" arrivalSpeed="14.99" duration="63.00" routeLength="236.78" waitingTime="27.00" waitingCount="1" stopTime="0.00" timeLoss="48.62" rerouteNo="0" devices="tripinfo_flow_route_7_duration_20250327_2000.1" vType="car" speedFactor="1.10" vaporized=""/>
    <tripinfo id="flow_route_12_duration_20250327_2000.5" depart="31.00" departLane="133000078#0_0" departPos="195.08" departSpeed="0.00" departDelay="1.00" arrival="86.00" arrivalLane="1342054204_3" arrivalPos="51.39" arrivalSpeed="14.58" duration="55.00" routeLength="154.11" waitingTime="31.00" waitingCount="2" stopTime="0.00" timeLoss="44.19" rerouteNo="0" devices="tripinfo_flow_route_12_duration_20250327_2000.5" vType="car" speedFactor="0.90" vaporized=""/>
    <tripinfo id="flow_route_12_duration_20250327_2000.4" depart="25.00" departLane="133000078#0_0" departPos="182.11" departSpeed="0.00" departDelay="1.00" arrival="87.00" arrivalLane="1342054204_3" arrivalPos="35.86" arrivalSpeed="13.83" duration="62.00" routeLength="151.54" waitingTime="34.00" waitingCount="1" stopTime="0.00" timeLoss="52.64" rerouteNo="0" devices="tripinfo_flow_route_12_duration_20250327_2000.4" vType="car" speedFactor="1.09" vaporized=""/>
    <tripinfo id="flow_route_7_duration_20250327_2000.2" depart="41.00" departLane="133000078#0_0" departPos="26.74" departSpeed="0.00" departDelay="1.00" arrival="87.00" arrivalLane="137406408#0_1" arrivalPos="41.21" arrivalSpeed="15.31" duration="46.00" routeLength="319.28" waitingTime="2.00" waitingCount="1" stopTime="0.00" timeLoss="25.70" rerouteNo="0" devices="tripinfo_flow_route_7_duration_20250327_2000.2" vType="car" speedFactor="0.97" vaporized=""/>
    <tripinfo id="flow_route_12_duration_20250327_2000.3" depart="18.00" departLane="133000078#0_0" departPos="105.89" departSpeed="0.00" departDelay="0.00" arrival="88.00" arrivalLane="1342054204_3" arrivalPos="25.30" arrivalSpeed="14.51" duration="70.00" routeLength="217.21" waitingTime="28.00" waitingCount="1" stopTime="0.00" timeLoss="56.76" rerouteNo="0" devices="tripinfo_flow_route_12_duration_20250327_2000.3" vType="car" speedFactor="0.99" vaporized=""/>
    <tripinfo id="flow_route_12_duration_20250327_2000.6" depart="36.00" departLane="133000078#0_0" departPos="81.24" departSpeed="0.00" departDelay="0.00" arrival="88.00" arrivalLane="1342054204_3" arrivalPos="1.02" arrivalSpeed="12.91" duration="52.00" routeLength="217.57" waitingTime="13.00" waitingCount="1" stopTime="0.00" timeLoss="37.51" rerouteNo="0" devices="tripinfo_flow_route_12_duration_20250327_2000.6" vType="car" speedFactor="0.91" vaporized=""/>
    <tripinfo id="flow_route_24_duration_20250327_2000.0" depart="4.00" departLane="137415945#0_0" departPos="5.05" departSpeed="0.00" departDelay="4.00" arrival="93.00" arrivalLane="137406408#0_0" arrivalPos="0.56" arrivalSpeed="8.56" duration="89.00" routeLength="164.51" waitingTime="59.00" waitingCount="1" stopTime="0.00" timeLoss="78.66" rerouteNo="0" devices="tripinfo_flow_route_24_duration_20250327_2000.0" vType="car" speedFactor="1.09" vaporized=""/>
    <tripinfo id="flow_route_24_duration_20250327_2000.1" depart="26.00" departLane="137415945#0_0" departPos="0.54" departSpeed="0.00" departDelay="20.00" arrival="97.00" arrivalLane="137406408#0_0" arrivalPos="2.75" arrivalSpeed="9.36" duration="71.00" routeLength="171.21" waitingTime="40.00" waitingCount="1" stopTime="0.00" timeLoss="59.69" rerouteNo="0" devices="tripinfo_flow_route_24_duration_20250327_2000.1" vType="car" speedFactor="0.94" vaporized=""/>
    <tripinfo id="flow_route_22_duration_20250327_2000.1" depart="7.00" departLane="137415945#0_0" departPos="1.65" departSpeed="0.00" departDelay="5.00" arrival="101.00" arrivalLane="1342054204_1" arrivalPos="55.26" arrivalSpeed="12.70" duration="94.00" routeLength="246.94" waitingTime="54.00" waitingCount="1" stopTime="0.00" timeLoss="79.02" rerouteNo="0" devices="tripinfo_flow_route_22_duration_20250327_2000.1" vType="car" speedFactor="1.03" vaporized=""/>
    <tripinfo id="flow_route_6_duration_20250327_2000.3" depart="45.00" departLane="1252820505#0_0" departPos="49.42" departSpeed="0.00" departDelay="0.00" arrival="102.00" arrivalLane="379698350#0_0" arrivalPos="49.17" arrivalSpeed="13.49" duration="57.00" routeLength="159.12" waitingTime="29.00" waitingCount="1" stopTime="0.00" timeLoss="47.36" rerouteNo="0" devices="tripinfo_flow_route_6_duration_20250327_2000.3" vType="car" speedFactor="1.09" vaporized=""/>
    <tripinfo id="flow_route_22_duration_20250327_2000.2" depart="13.00" departLane="137415945#0_0" departPos="1.93" departSpeed="0.00" departDelay="9.00" arrival="103.00" arrivalLane="1342054204_0" arrivalPos="77.43" arrivalSpeed="14.62" duration="90.00" routeLength="268.82" waitingTime="51.00" waitingCount="1" stopTime="0.00" timeLoss="73.64" rerouteNo="0" devices="tripinfo_flow_route_22_duration_20250327_2000.2" vType="car" speedFactor="1.05" vaporized=""/>
    <tripinfo id="flow_route_22_duration_20250327_2000.5" depart="36.00" departLane="137415945#0_0" departPos="5.24" departSpeed="0.00" departDelay="26.00" arrival="104.00" arrivalLane="1342054204_0" arrivalPos="21.06" arrivalSpeed="13.58" duration="68.00" routeLength="209.14" waitingTime="31.00" waitingCount="1" stopTime="0.00" timeLoss="54.66" rerouteNo="0" devices="tripinfo_flow_route_22_duration_20250327_2000.5" vType="car" speedFactor="1.02" vaporized=""/>
    <tripinfo id="flow_route_22_duration_20250327_2000.6" depart="44.00" departLane="137415945#0_0" departPos="5.93" departSpeed="0.00" departDelay="32.00" arrival="104.00" arrivalLane="1342054204_1" arrivalPos="26.85" arrivalSpeed="11.71" duration="60.00" routeLength="214.25" waitingTime="23.00" waitingCount="1" stopTime="0.00" timeLoss="45.93" rerouteNo="0" devices="tripinfo_flow_route_22_duration_20250327_2000.6" vType="car" speedFactor="0.92" vaporized=""/>
    <tripinfo id="flow_route_10_duration_20250327_2000.2" depart="24.00" departLane="1252820505#0_0" departPos="24.44" departSpeed="0.00" departDelay="0.00" arrival="104.00" arrivalLane="1235147073.116_1" arrivalPos="4.54" arrivalSpeed="16.25" duration="80.00" routeLength="247.83" waitingTime="44.00" waitingCount="1" stopTime="0.00" timeLoss="64.57" rerouteNo="0" devices="tripinfo_flow_route_10_duration_20250327_2000.2" vType="car" speedFactor="1.04" vaporized=""/>
    <tripinfo id="flow_route_22_duration_20250327_2000.3" depart="21.00" departLane="137415945#0_0" departPos="7.96" departSpeed="0.00" departDelay="15.00" arrival="105.00" arrivalLane="1342054204_1" arrivalPos="83.44" arrivalSpeed="14.21" duration="84.00" routeLength="268.81" waitingTime="42.00" waitingCount="1" stopTime="0.00" timeLoss="65.22" rerouteNo="0" devices="tripinfo_flow_route_22_duration_20250327_2000.3" vType="car" speedFactor="0.88" vaporized=""/>
    <tripinfo id="flow_route_24_duration_20250327_2000.2" depart="48.00" departLane="137415945#0_0" departPos="5.48" departSpeed="0.00" departDelay="36.00" arrival="105.00" arrivalLane="137406408#0_0" arrivalPos="45.46" arrivalSpeed="13.16" duration="57.00" routeLength="208.99" waitingTime="20.00" waitingCount="1" stopTime="0.00" timeLoss="43.38" rerouteNo="0" devices="tripinfo_flow_route_24_duration_20250327_2000.2" vType="car" speedFactor="0.95" vaporized=""/>
    <tripinfo id="flow_route_10_duration_20250327_2000.3" depart="36.00" departLane="1252820505#0_0" departPos="71.22" departSpeed="0.00" departDelay="0.00" arrival="105.00" arrivalLane="1235147073.116_0" arrivalPos="14.06" arrivalSpeed="14.23" duration="69.00" routeLength="210.59" waitingTime="40.00" waitingCount="1" stopTime="0.00" timeLoss="54.32" rerouteNo="0" devices="tripinfo_flow_route_10_duration_20250327_2000.3" vType="car" speedFactor="0.88" vaporized=""/>
    <tripinfo id="flow_route_22_duration_20250327_2000.8" depart="62.00" departLane="137415945#0_0" departPos="3.62" departSpeed="0.00" departDelay="46.00" arrival="106.00" arrivalLane="1342054204_0" arrivalPos="15.76" arrivalSpeed="13.35" duration="44.00" routeLength="205.46" waitingTime="9.00" waitingCount="1" stopTime="0.00" timeLoss="31.54" rerouteNo="0" devices="tripinfo_flow_route_22_duration_20250327_2000.8" vType="car" speedFactor="1.17" vaporized=""/>
    <tripinfo id="flow_route_10_duration_20250327_2000.4" depart="49.00" departLane="1252820505#0_0" departPos="45.92" departSpeed="0.00" departDelay="1.00" arrival="106.00" arrivalLane="1235147073.116_1" arrivalPos="6.98" arrivalSpeed="16.25" duration="57.00" routeLength="228.79" waitingTime="24.00" waitingCount="1" stopTime="0.00" timeLoss="42.49" rerouteNo="0" devices="tripinfo_flow_route_10_duration_20250327_2000.4" vType="car" speedFactor="1.00" vaporized=""/>
    <tripinfo id="flow_route_22_duration_20250327_2000.4" depart="31.00" departLane="137415945#0_0" departPos="1.31" departSpeed="0.00" departDelay="23.00" arrival="107.00" arrivalLane="1342054204_1" arrivalPos="84.14" arrivalSpeed="15.42" duration="76.00" routeLength="276.16" waitingTime="34.00" waitingCount="1" stopTime="0.00" timeLoss="57.56" rerouteNo="0" devices="tripinfo_flow_route_22_duration_20250327_2000.4" vType="car" speedFactor="0.94" vaporized=""/>
    <tripinfo id="flow_route_22_duration_20250327_2000.7" depart="53.00" departLane="137415945#0_0" departPos="2.94" departSpeed="0.00" departDelay="39.00" arrival="108.00" arrivalLane="1342054204_1" arrivalPos="47.69" arrivalSpeed="14.95" duration="55.00" routeLength="238.08" waitingTime="15.00" waitingCount="1" stopTime="0.00" timeLoss="39.82" rerouteNo="0" devices="tripinfo_flow_route_22_duration_20250327_2000.7" vType="car" speedFactor="1.13" vaporized=""/>
    <tripinfo id="flow_route_22_duration_20250327_2000.9" depart="67.00" departLane="137415945#0_0" departPos="6.06" departSpeed="0.00" departDelay="49.00" arrival="108.00" arrivalLane="1342054204_1" arrivalPos="18.52" arrivalSpeed="13.14" duration="41.00" routeLength="205.79" waitingTime="3.00" waitingCount="1" stopTime="0.00" timeLoss="28.48" rerouteNo="0" devices="tripinfo_flow_route_22_duration_20250327_2000.9" vType="car" speedFactor="1.02" vaporized=""/>
    <tripinfo id="flow_route_22_duration_20250327_2000.10" depart="81.00" departLane="137415945#0_0" departPos="11.67" departSpeed="0.00" departDelay="61.00" arrival="109.00" arrivalLane="1342054204_1" arrivalPos="2.08" arrivalSpeed="13.36" duration="28.00" routeLength="183.74" waitingTime="0.00" waitingCount="0" stopTime="0.00" timeLoss="16.33" rerouteNo="0" devices="tripinfo_flow_route_22_duration_20250327_2000.10" vType="car" speedFactor="1.03" vaporized=""/>
    <tripinfo id="flow_route_24_duration_20250327_2000.3" depart="73.00" departLane="137415945#0_0" departPos="3.74" departSpeed="0.00" departDelay="55.00" arrival="110.00" arrivalLane="137406408#0_0" arrivalPos="62.64" arrivalSpeed="16.04" duration="37.00" routeLength="227.91" waitingTime="0.00" waitingCount="0" stopTime="0.00" timeLoss="21.83" rerouteNo="0" devices="tripinfo_flow_route_24_duration_20250327_2000.3" vType="car" speedFactor="0.97" vaporized=""/>
    <tripinfo id="flow_route_22_duration_20250327_2000.11" depart="82.00" departLane="137415945#0_0" departPos="0.14" departSpeed="0.00" departDelay="60.00" arrival="113.00" arrivalLane="1342054204_0" arrivalPos="62.00" arrivalSpeed="15.53" duration="31.00" routeLength="255.19" waitingTime="0.00" waitingCount="0" stopTime="0.00" timeLoss="14.41" rerouteNo="0" devices="tripinfo_flow_route_22_duration_20250327_2000.11" vType="car" speedFactor="0.96" vaporized=""/>
    <tripinfo id="flow_route_11_duration_20250327_2000.1" depart="20.00" departLane="1252820505#0_0" departPos="9.10" departSpeed="0.00" departDelay="5.00" arrival="120.00" arrivalLane="137406408#0_2" arrivalPos="28.97" arrivalSpeed="10.63" duration="100.00" routeLength="181.45" waitingTime="57.00" waitingCount="2" stopTime="0.00" timeLoss="88.55" rerouteNo="0" devices="tripinfo_flow_route_11_duration_20250327_2000.1" vType="car" speedFactor="1.01" vaporized=""/>
    <tripinfo id="flow_route_11_duration_20250327_2000.2" depart="32.00" departLane="1252820505#0_0" departPos="77.12" departSpeed="0.00" departDelay="2.00" arrival="123.00" arrivalLane="137406408#0_2" arrivalPos="39.77" arrivalSpeed="12.12" duration="91.00" routeLength="124.23" waitingTime="60.00" waitingCount="2" stopTime="0.00" timeLoss="82.80" rerouteNo="0" devices="tripinfo_flow_route_11_duration_20250327_2000.2" vType="car" speedFactor="1.00" vaporized=""/>
    <tripinfo id="flow_route_11_duration_20250327_2000.3" depart="45.00" departLane="1252820505#0_0" departPos="35.06" departSpeed="0.00" departDelay="0.00" arrival="124.00" arrivalLane="137406408#0_2" arrivalPos="20.36" arrivalSpeed="10.92" duration="79.00" routeLength="146.89" waitingTime="33.00" waitingCount="3" stopTime="0.00" timeLoss="69.30" rerouteNo="0" devices="tripinfo_flow_route_11_duration_20250327_2000.3" vType="car" speedFactor="1.00" vaporized=""/>
    <tripinfo id="flow_route_5_duration_20250327_2000.4" depart="49.00" departLane="291974733#0_0" departPos="10.28" departSpeed="0.00" departDelay="1.00" arrival="133.00" arrivalLane="1342054204_0" arrivalPos="10.42" arrivalSpeed="9.88" duration="84.00" routeLength="138.39" waitingTime="56.00" waitingCount="1" stopTime="0.00" timeLoss="74.49" rerouteNo="0" devices="tripinfo_flow_route_5_duration_20250327_2000.4" vType="car" speedFactor="0.98" vaporized=""/>
    <tripinfo id="flow_route_4_duration_20250327_2000.3" depart="39.00" departLane="291974733#0_0" departPos="19.44" departSpeed="0.00" departDelay="3.00" arrival="135.00" arrivalLane="379698350#0_1" arrivalPos="0.18" arrivalSpeed="12.32" duration="96.00" routeLength="171.63" waitingTime="63.00" waitingCount="1" stopTime="0.00" timeLoss="84.98" rerouteNo="0" devices="tripinfo_flow_route_4_duration_20250327_2000.3" vType="car" speedFactor="0.99" vaporized=""/>