<?xml version="1.0" encoding="UTF-8"?>

<!-- generated on 2025-05-06 21:08:37 by Eclipse SUMO sumo Version 1.20.0
<configuration xmlns:xsi="http://www.w3.org/2001/XMLSchema-instance" xsi:noNamespaceSchemaLocation="http://sumo.dlr.de/xsd/sumoConfiguration.xsd">

    <input>
        <net-file value="osm.net.xml"/>
        <route-files value="xml/route_static_cluster3839130731_cluster_11644940326_11644940327_11648561426_5.rou.xml"/>
    </input>

    <output>
        <tripinfo-output value="xml/tripinfo_static_cluster3839130731_cluster_11644940326_11644940327_11648561426_5.xml"/>
    </output>

    <traci_server>
        <remote-port value="34977"/>
    </traci_server>

</configuration>
-->

<tripinfos xmlns:xsi="http://www.w3.org/2001/XMLSchema-instance" xsi:noNamespaceSchemaLocation="http://sumo.dlr.de/xsd/tripinfo_file.xsd">
    <tripinfo id="flow_route_123_duration_20250327_1950.0" depart="0.00" departLane="189240000#0-AddedOnRampEdge_0" departPos="5.69" departSpeed="0.00" departDelay="0.00" arrival="22.00" arrivalLane="1254519229#0_1" arrivalPos="19.69" arrivalSpeed="11.13" duration="22.00" routeLength="159.84" waitingTime="0.00" waitingCount="0" stopTime="0.00" timeLoss="10.58" rerouteNo="0" devices="tripinfo_flow_route_123_duration_20250327_1950.0" vType="car" speedFactor="0.89" vaporized=""/>
    <tripinfo id="flow_route_96_duration_20250327_1950.0" depart="0.00" departLane="1341093416#0_0" departPos="184.53" departSpeed="0.00" departDelay="0.00" arrival="26.00" arrivalLane="1254519229#0_1" arrivalPos="3.62" arrivalSpeed="3.48" duration="26.00" routeLength="114.10" waitingTime="3.00" waitingCount="1" stopTime="0.00" timeLoss="17.85" rerouteNo="0" devices="tripinfo_flow_route_96_duration_20250327_1950.0" vType="car" speedFactor="1.01" vaporized=""/>
    <tripinfo id="flow_route_94_duration_20250327_1950.2" depart="15.00" departLane="1341093416#0_0" departPos="272.07" departSpeed="0.00" departDelay="0.00" arrival="26.00" arrivalLane="799091563#0_0" arrivalPos="10.57" arrivalSpeed="8.20" duration="11.00" routeLength="44.85" waitingTime="0.00" waitingCount="0" stopTime="0.00" timeLoss="8.02" rerouteNo="0" devices="tripinfo_flow_route_94_duration_20250327_1950.2" vType="car" speedFactor="1.13" vaporized=""/>
    <tripinfo id="flow_route_94_duration_20250327_1950.0" depart="0.00" departLane="1341093416#0_0" departPos="204.30" departSpeed="0.00" departDelay="0.00" arrival="37.00" arrivalLane="799091563#0_0" arrivalPos="338.33" arrivalSpeed="16.40" duration="37.00" routeLength="440.38" waitingTime="0.00" waitingCount="0" stopTime="0.00" timeLoss="10.46" rerouteNo="0" devices="tripinfo_flow_route_94_duration_20250327_1950.0" vType="car" speedFactor="1.06" vaporized=""/>
    <tripinfo id="flow_route_111_duration_20250327_1950.0" depart="0.00" departLane="1253188486#8_0" departPos="138.93" departSpeed="0.00" departDelay="0.00" arrival="38.00" arrivalLane="1254519229#0_1" arrivalPos="3.47" arrivalSpeed="7.66" duration="38.00" routeLength="140.76" waitingTime="5.00" waitingCount="1" stopTime="0.00" timeLoss="29.10" rerouteNo="0" devices="tripinfo_flow_route_111_duration_20250327_1950.0" vType="car" speedFactor="0.83" vaporized=""/>
    <tripinfo id="flow_route_104_duration_20250327_1950.0" depart="0.00" departLane="189240001_0" departPos="36.52" departSpeed="0.00" departDelay="0.00" arrival="43.00" arrivalLane="1254519225#0.109_1" arrivalPos="30.66" arrivalSpeed="16.18" duration="43.00" routeLength="198.30" waitingTime="11.00" waitingCount="1" stopTime="0.00" timeLoss="30.18" rerouteNo="0" devices="tripinfo_flow_route_104_duration_20250327_1950.0" vType="car" speedFactor="1.08" vaporized=""/>
    <tripinfo id="flow_route_124_duration_20250327_1950.0" depart="0.00" departLane="189240000#0-AddedOnRampEdge_0" departPos="82.66" departSpeed="0.00" departDelay="0.00" arrival="43.00" arrivalLane="1254519225#0.109_3" arrivalPos="34.02" arrivalSpeed="14.68" duration="43.00" routeLength="196.39" waitingTime="11.00" waitingCount="1" stopTime="0.00" timeLoss="29.08" rerouteNo="0" devices="tripinfo_flow_route_124_duration_20250327_1950.0" vType="car" speedFactor="0.94" vaporized=""/>
    <tripinfo id="flow_route_104_duration_20250327_1950.2" depart="14.00" departLane="189240001_0" departPos="11.90" departSpeed="0.00" departDelay="0.67" arrival="43.00" arrivalLane="1254519225#0.109_0" arrivalPos="11.44" arrivalSpeed="14.66" duration="29.00" routeLength="203.70" waitingTime="0.00" waitingCount="0" stopTime="0.00" timeLoss="15.82" rerouteNo="0" devices="tripinfo_flow_route_104_duration_20250327_1950.2" vType="car" speedFactor="0.95" vaporized=""/>
    <tripinfo id="flow_route_111_duration_20250327_1950.11" depart="25.00" departLane="1253188486#8_0" departPos="191.61" departSpeed="0.00" departDelay="1.44" arrival="43.00" arrivalLane="1254519229#0_0" arrivalPos="23.58" arrivalSpeed="9.77" duration="18.00" routeLength="108.19" waitingTime="0.00" waitingCount="0" stopTime="0.00" timeLoss="11.31" rerouteNo="0" devices="tripinfo_flow_route_111_duration_20250327_1950.11" vType="car" speedFactor="1.04" vaporized=""/>
    <tripinfo id="flow_route_111_duration_20250327_1950.1" depart="3.00" departLane="1253188486#8_0" departPos="125.85" departSpeed="0.00" departDelay="0.86" arrival="44.00" arrivalLane="1254519229#0_0" arrivalPos="54.39" arrivalSpeed="10.84" duration="41.00" routeLength="204.76" waitingTime="2.00" waitingCount="1" stopTime="0.00" timeLoss="28.58" rerouteNo="0" devices="tripinfo_flow_route_111_duration_20250327_1950.1" vType="car" speedFactor="0.86" vaporized=""/>
    <tripinfo id="flow_route_111_duration_20250327_1950.2" depart="5.00" departLane="1253188486#8_0" departPos="217.77" departSpeed="0.00" departDelay="0.72" arrival="44.00" arrivalLane="1254519229#0_0" arrivalPos="74.72" arrivalSpeed="12.40" duration="39.00" routeLength="133.17" waitingTime="8.00" waitingCount="1" stopTime="0.00" timeLoss="30.71" rerouteNo="0" devices="tripinfo_flow_route_111_duration_20250327_1950.2" vType="car" speedFactor="1.05" vaporized=""/>
    <tripinfo id="flow_route_104_duration_20250327_1950.1" depart="7.00" departLane="189240001_0" departPos="74.95" departSpeed="0.00" departDelay="0.33" arrival="44.00" arrivalLane="1254519225#0.109_0" arrivalPos="47.70" arrivalSpeed="15.10" duration="37.00" routeLength="176.91" waitingTime="14.00" waitingCount="1" stopTime="0.00" timeLoss="24.84" rerouteNo="0" devices="tripinfo_flow_route_104_duration_20250327_1950.1" vType="car" speedFactor="0.93" vaporized=""/>
    <tripinfo id="flow_route_111_duration_20250327_1950.4" depart="9.00" departLane="1253188486#8_0" departPos="59.22" departSpeed="0.00" departDelay="0.43" arrival="44.00" arrivalLane="1254519229#0_1" arrivalPos="21.01" arrivalSpeed="9.44" duration="35.00" routeLength="238.01" waitingTime="0.00" waitingCount="0" stopTime="0.00" timeLoss="20.59" rerouteNo="0" devices="tripinfo_flow_route_111_duration_20250327_1950.4" vType="car" speedFactor="1.02" vaporized=""/>
    <tripinfo id="flow_route_111_duration_20250327_1950.3" depart="8.00" departLane="1253188486#8_0" departPos="31.74" departSpeed="0.00" departDelay="1.57" arrival="45.00" arrivalLane="1254519229#0_1" arrivalPos="12.66" arrivalSpeed="9.02" duration="37.00" routeLength="257.14" waitingTime="0.00" waitingCount="0" stopTime="0.00" timeLoss="21.50" rerouteNo="0" devices="tripinfo_flow_route_111_duration_20250327_1950.3" vType="car" speedFactor="0.88" vaporized=""/>
    <tripinfo id="flow_route_111_duration_20250327_1950.5" depart="11.00" departLane="1253188486#8_0" departPos="146.28" departSpeed="0.00" departDelay="0.29" arrival="46.00" arrivalLane="1254519229#0_1" arrivalPos="56.94" arrivalSpeed="12.31" duration="35.00" routeLength="186.88" waitingTime="0.00" waitingCount="0" stopTime="0.00" timeLoss="23.09" rerouteNo="0" devices="tripinfo_flow_route_111_duration_20250327_1950.5" vType="car" speedFactor="0.97" vaporized=""/>
    <tripinfo id="flow_route_104_duration_20250327_1950.3" depart="21.00" departLane="189240001_0" departPos="23.72" departSpeed="0.00" departDelay="1.00" arrival="46.00" arrivalLane="1254519225#0.109_0" arrivalPos="36.50" arrivalSpeed="16.23" duration="25.00" routeLength="216.94" waitingTime="0.00" waitingCount="0" stopTime="0.00" timeLoss="11.75" rerouteNo="0" devices="tripinfo_flow_route_104_duration_20250327_1950.3" vType="car" speedFactor="1.18" vaporized=""/>
    <tripinfo id="flow_route_111_duration_20250327_1950.8" depart="19.00" departLane="1253188486#8_0" departPos="125.82" departSpeed="0.00" departDelay="1.86" arrival="47.00" arrivalLane="1254519229#0_1" arrivalPos="6.37" arrivalSpeed="9.68" duration="28.00" routeLength="156.77" waitingTime="0.00" waitingCount="0" stopTime="0.00" timeLoss="18.13" rerouteNo="0" devices="tripinfo_flow_route_111_duration_20250327_1950.8" vType="car" speedFactor="0.99" vaporized=""/>
    <tripinfo id="flow_route_112_duration_20250327_1950.2" depart="12.00" departLane="1253188486#8_0" departPos="235.51" departSpeed="0.00" departDelay="0.00" arrival="51.00" arrivalLane="799091563#0_0" arrivalPos="262.62" arrivalSpeed="14.47" duration="39.00" routeLength="281.82" waitingTime="5.00" waitingCount="1" stopTime="0.00" timeLoss="18.41" rerouteNo="0" devices="tripinfo_flow_route_112_duration_20250327_1950.2" vType="car" speedFactor="0.89" vaporized=""/>
    <tripinfo id="flow_route_111_duration_20250327_1950.6" depart="19.00" departLane="1253188486#8_0" departPos="103.83" departSpeed="0.00" departDelay="6.15" arrival="52.00" arrivalLane="1254519229#0_1" arrivalPos="46.16" arrivalSpeed="12.96" duration="33.00" routeLength="218.54" waitingTime="0.00" waitingCount="0" stopTime="0.00" timeLoss="19.45" rerouteNo="0" devices="tripinfo_flow_route_111_duration_20250327_1950.6" vType="car" speedFactor="0.92" vaporized=""/>
    <tripinfo id="flow_route_112_duration_20250327_1950.3" depart="19.00" departLane="1253188486#8_0" departPos="202.54" departSpeed="0.00" departDelay="1.00" arrival="53.00" arrivalLane="799091563#0_0" arrivalPos="274.11" arrivalSpeed="16.36" duration="34.00" routeLength="326.28" waitingTime="0.00" waitingCount="0" stopTime="0.00" timeLoss="12.73" rerouteNo="0" devices="tripinfo_flow_route_112_duration_20250327_1950.3" vType="car" speedFactor="1.02" vaporized=""/>
    <tripinfo id="flow_route_111_duration_20250327_1950.16" depart="37.00" departLane="1253188486#8_0" departPos="229.68" departSpeed="0.00" departDelay="2.73" arrival="54.00" arrivalLane="1254519229#0_0" arrivalPos="73.10" arrivalSpeed="13.21" duration="17.00" routeLength="119.63" waitingTime="0.00" waitingCount="0" stopTime="0.00" timeLoss="9.56" rerouteNo="0" devices="tripinfo_flow_route_111_duration_20250327_1950.16" vType="car" speedFactor="0.99" vaporized=""/>
    <tripinfo id="flow_route_104_duration_20250327_1950.4" depart="27.00" departLane="189240001_0" departPos="3.34" departSpeed="0.00" departDelay="0.34" arrival="55.00" arrivalLane="1254519225#0.109_0" arrivalPos="55.03" arrivalSpeed="13.97" duration="28.00" routeLength="255.85" waitingTime="0.00" waitingCount="0" stopTime="0.00" timeLoss="9.07" rerouteNo="0" devices="tripinfo_flow_route_104_duration_20250327_1950.4" vType="car" speedFactor="0.85" vaporized=""/>
    <tripinfo id="flow_route_112_duration_20250327_1950.0" depart="0.00" departLane="1253188486#8_0" departPos="64.90" departSpeed="0.00" departDelay="0.00" arrival="56.00" arrivalLane="799091563#0_0" arrivalPos="282.23" arrivalSpeed="16.47" duration="56.00" routeLength="472.04" waitingTime="0.00" waitingCount="0" stopTime="0.00" timeLoss="26.86" rerouteNo="0" devices="tripinfo_flow_route_112_duration_20250327_1950.0" vType="car" speedFactor="1.05" vaporized=""/>
    <tripinfo id="flow_route_111_duration_20250327_1950.9" depart="21.00" departLane="1253188486#8_0" departPos="25.69" departSpeed="0.00" departDelay="1.72" arrival="56.00" arrivalLane="1254519229#0_1" arrivalPos="33.19" arrivalSpeed="13.73" duration="35.00" routeLength="283.72" waitingTime="0.00" waitingCount="0" stopTime="0.00" timeLoss="17.25" rerouteNo="0" devices="tripinfo_flow_route_111_duration_20250327_1950.9" vType="car" speedFactor="1.10" vaporized=""/>
    <tripinfo id="flow_route_111_duration_20250327_1950.12" depart="30.00" departLane="1253188486#8_0" departPos="93.10" departSpeed="0.00" departDelay="4.30" arrival="56.00" arrivalLane="1254519229#0_1" arrivalPos="9.89" arrivalSpeed="12.54" duration="26.00" routeLength="193.01" waitingTime="0.00" waitingCount="0" stopTime="0.00" timeLoss="13.72" rerouteNo="0" devices="tripinfo_flow_route_111_duration_20250327_1950.12" vType="car" speedFactor="0.88" vaporized=""/>
    <tripinfo id="flow_route_111_duration_20250327_1950.13" depart="31.00" departLane="1253188486#8_0" departPos="210.15" departSpeed="0.00" departDelay="3.15" arrival="56.00" arrivalLane="1254519229#0_0" arrivalPos="53.74" arrivalSpeed="12.47" duration="25.00" routeLength="119.81" waitingTime="2.00" waitingCount="2" stopTime="0.00" timeLoss="17.40" rerouteNo="0" devices="tripinfo_flow_route_111_duration_20250327_1950.13" vType="car" speedFactor="1.17" vaporized=""/>
    <tripinfo id="flow_route_111_duration_20250327_1950.10" depart="24.00" departLane="1253188486#8_0" departPos="171.61" departSpeed="0.00" departDelay="2.58" arrival="57.00" arrivalLane="1254519229#0_1" arrivalPos="73.59" arrivalSpeed="15.71" duration="33.00" routeLength="178.20" waitingTime="0.00" waitingCount="0" stopTime="0.00" timeLoss="21.58" rerouteNo="0" devices="tripinfo_flow_route_111_duration_20250327_1950.10" vType="car" speedFactor="0.96" vaporized=""/>
    <tripinfo id="flow_route_111_duration_20250327_1950.14" depart="31.00" departLane="1253188486#8_0" departPos="201.45" departSpeed="0.00" departDelay="1.01" arrival="58.00" arrivalLane="1254519229#0_0" arrivalPos="52.78" arrivalSpeed="12.79" duration="27.00" routeLength="127.55" waitingTime="1.00" waitingCount="1" stopTime="0.00" timeLoss="18.75" rerouteNo="0" devices="tripinfo_flow_route_111_duration_20250327_1950.14" vType="car" speedFactor="1.00" vaporized=""/>
    <tripinfo id="flow_route_111_duration_20250327_1950.7" depart="19.00" departLane="1253188486#8_0" departPos="150.91" departSpeed="0.00" departDelay="4.01" arrival="59.00" arrivalLane="1254519229#0_0" arrivalPos="43.51" arrivalSpeed="12.95" duration="40.00" routeLength="168.81" waitingTime="3.00" waitingCount="1" stopTime="0.00" timeLoss="29.19" rerouteNo="0" devices="tripinfo_flow_route_111_duration_20250327_1950.7" vType="car" speedFactor="1.18" vaporized=""/>
    <tripinfo id="flow_route_112_duration_20250327_1950.1" depart="6.00" departLane="1253188486#8_0" departPos="7.95" departSpeed="0.00" departDelay="0.00" arrival="62.00" arrivalLane="799091563#0_0" arrivalPos="150.59" arrivalSpeed="16.12" duration="56.00" routeLength="397.35" waitingTime="0.00" waitingCount="0" stopTime="0.00" timeLoss="30.81" rerouteNo="0" devices="tripinfo_flow_route_112_duration_20250327_1950.1" vType="car" speedFactor="1.12" vaporized=""/>
    <tripinfo id="flow_route_104_duration_20250327_1950.6" depart="42.00" departLane="189240001_0" departPos="73.70" departSpeed="0.00" departDelay="2.00" arrival="63.00" arrivalLane="1254519225#0.109_0" arrivalPos="36.16" arrivalSpeed="15.64" duration="21.00" routeLength="166.61" waitingTime="0.00" waitingCount="0" stopTime="0.00" timeLoss="10.00" rerouteNo="0" devices="tripinfo_flow_route_104_duration_20250327_1950.6" vType="car" speedFactor="0.94" vaporized=""/>
    <tripinfo id="flow_route_104_duration_20250327_1950.5" depart="34.00" departLane="189240001_0" departPos="0.07" departSpeed="0.00" departDelay="0.67" arrival="65.00" arrivalLane="1254519225#0.109_0" arrivalPos="29.34" arrivalSpeed="15.16" duration="31.00" routeLength="233.43" waitingTime="0.00" waitingCount="0" stopTime="0.00" timeLoss="16.34" rerouteNo="0" devices="tripinfo_flow_route_104_duration_20250327_1950.5" vType="car" speedFactor="1.12" vaporized=""/>
    <tripinfo id="flow_route_123_duration_20250327_1950.1" depart="9.00" departLane="189240000#0-AddedOnRampEdge_0" departPos="53.97" departSpeed="0.00" departDelay="1.50" arrival="66.00" arrivalLane="1254519229#0_0" arrivalPos="26.36" arrivalSpeed="8.08" duration="57.00" routeLength="114.73" waitingTime="32.00" waitingCount="1" stopTime="0.00" timeLoss="49.14" rerouteNo="0" devices="tripinfo_flow_route_123_duration_20250327_1950.1" vType="car" speedFactor="0.94" vaporized=""/>
    <tripinfo id="flow_route_112_duration_20250327_1950.4" depart="25.00" departLane="1253188486#8_0" departPos="68.99" departSpeed="0.00" departDelay="1.00" arrival="68.00" arrivalLane="799091563#0_0" arrivalPos="156.10" arrivalSpeed="16.55" duration="43.00" routeLength="341.81" waitingTime="0.00" waitingCount="0" stopTime="0.00" timeLoss="20.61" rerouteNo="0" devices="tripinfo_flow_route_112_duration_20250327_1950.4" vType="car" speedFactor="1.09" vaporized=""/>
    <tripinfo id="flow_route_96_duration_20250327_1950.1" depart="16.00" departLane="1341093416#0_0" departPos="56.80" departSpeed="0.00" departDelay="1.00" arrival="69.00" arrivalLane="1254519229#0_1" arrivalPos="22.19" arrivalSpeed="7.29" duration="53.00" routeLength="260.39" waitingTime="5.00" waitingCount="1" stopTime="0.00" timeLoss="35.91" rerouteNo="0" devices="tripinfo_flow_route_96_duration_20250327_1950.1" vType="car" speedFactor="0.93" vaporized=""/>
    <tripinfo id="flow_route_123_duration_20250327_1950.3" depart="23.00" departLane="189240000#0-AddedOnRampEdge_0" departPos="91.72" departSpeed="0.00" departDelay="0.50" arrival="69.00" arrivalLane="1254519229#0_0" arrivalPos="36.27" arrivalSpeed="9.88" duration="46.00" routeLength="86.88" waitingTime="23.00" waitingCount="2" stopTime="0.00" timeLoss="40.09" rerouteNo="0" devices="tripinfo_flow_route_123_duration_20250327_1950.3" vType="car" speedFactor="1.04" vaporized=""/>
    <tripinfo id="flow_route_123_duration_20250327_1950.2" depart="15.00" departLane="189240000#0-AddedOnRampEdge_0" departPos="32.01" departSpeed="0.00" departDelay="0.00" arrival="70.00" arrivalLane="1254519229#0_1" arrivalPos="73.85" arrivalSpeed="11.97" duration="55.00" routeLength="187.68" waitingTime="23.00" waitingCount="1" stopTime="0.00" timeLoss="43.44" rerouteNo="0" devices="tripinfo_flow_route_123_duration_20250327_1950.2" vType="car" speedFactor="1.15" vaporized=""/>
    <tripinfo id="flow_route_94_duration_20250327_1950.4" depart="33.00" departLane="1341093416#0_0" departPos="132.35" departSpeed="0.00" departDelay="3.00" arrival="72.00" arrivalLane="799091563#0_1" arrivalPos="58.31" arrivalSpeed="12.29" duration="39.00" routeLength="232.31" waitingTime="0.00" waitingCount="0" stopTime="0.00" timeLoss="24.36" rerouteNo="0" devices="tripinfo_flow_route_94_duration_20250327_1950.4" vType="car" speedFactor="1.02" vaporized=""/>
    <tripinfo id="flow_route_96_duration_20250327_1950.2" depart="33.00" departLane="1341093416#0_0" departPos="45.93" departSpeed="0.00" departDelay="3.00" arrival="72.00" arrivalLane="1254519229#0_1" arrivalPos="27.42" arrivalSpeed="8.17" duration="39.00" routeLength="276.50" waitingTime="0.00" waitingCount="0" stopTime="0.00" timeLoss="21.12" rerouteNo="0" devices="tripinfo_flow_route_96_duration_20250327_1950.2" vType="car" speedFactor="1.00" vaporized=""/>
    <tripinfo id="flow_route_123_duration_20250327_1950.4" depart="30.00" departLane="189240000#0-AddedOnRampEdge_0" departPos="54.13" departSpeed="0.00" departDelay="0.00" arrival="72.00" arrivalLane="1254519229#0_0" arrivalPos="46.87" arrivalSpeed="10.61" duration="42.00" routeLength="135.08" waitingTime="13.00" waitingCount="1" stopTime="0.00" timeLoss="33.44" rerouteNo="0" devices="tripinfo_flow_route_123_duration_20250327_1950.4" vType="car" speedFactor="1.14" vaporized=""/>
    <tripinfo id="flow_route_95_duration_20250327_1950.2" depart="10.00" departLane="1341093416#0_0" departPos="183.19" departSpeed="0.00" departDelay="1.43" arrival="75.00" arrivalLane="1254519225#0.109_0" arrivalPos="60.18" arrivalSpeed="15.70" duration="65.00" routeLength="259.35" waitingTime="26.00" waitingCount="1" stopTime="0.00" timeLoss="48.67" rerouteNo="0" devices="tripinfo_flow_route_95_duration_20250327_1950.2" vType="car" speedFactor="1.16" vaporized=""/>
    <tripinfo id="flow_route_95_duration_20250327_1950.1" depart="6.00" departLane="1341093416#0_0" departPos="64.91" departSpeed="0.00" departDelay="1.72" arrival="76.00" arrivalLane="1254519225#0.109_0" arrivalPos="39.52" arrivalSpeed="14.93" duration="70.00" routeLength="356.99" waitingTime="25.00" waitingCount="1" stopTime="0.00" timeLoss="46.94" rerouteNo="0" devices="tripinfo_flow_route_95_duration_20250327_1950.1" vType="car" speedFactor="1.03" vaporized=""/>
    <tripinfo id="flow_route_95_duration_20250327_1950.0" depart="0.00" departLane="1341093416#0_0" departPos="1.65" departSpeed="0.00" departDelay="0.00" arrival="78.00" arrivalLane="1254519225#0.109_0" arrivalPos="44.45" arrivalSpeed="15.42" duration="78.00" routeLength="425.17" waitingTime="23.00" waitingCount="1" stopTime="0.00" timeLoss="50.34" rerouteNo="0" devices="tripinfo_flow_route_95_duration_20250327_1950.0" vType="car" speedFactor="0.94" vaporized=""/>
    <tripinfo id="flow_route_95_duration_20250327_1950.7" depart="33.00" departLane="1341093416#0_0" departPos="247.69" departSpeed="0.00" departDelay="3.01" arrival="81.00" arrivalLane="1254519225#0.109_0" arrivalPos="56.43" arrivalSpeed="16.25" duration="48.00" routeLength="191.10" waitingTime="21.00" waitingCount="1" stopTime="0.00" timeLoss="35.41" rerouteNo="0" devices="tripinfo_flow_route_95_duration_20250327_1950.7" vType="car" speedFactor="1.10" vaporized=""/>
    <tripinfo id="flow_route_94_duration_20250327_1950.5" depart="41.00" departLane="1341093416#0_0" departPos="53.56" departSpeed="0.00" departDelay="3.50" arrival="81.00" arrivalLane="799091563#0_1" arrivalPos="175.77" arrivalSpeed="15.20" duration="40.00" routeLength="428.56" waitingTime="0.00" waitingCount="0" stopTime="0.00" timeLoss="13.22" rerouteNo="0" devices="tripinfo_flow_route_94_duration_20250327_1950.5" vType="car" speedFactor="0.91" vaporized=""/>
    <tripinfo id="flow_route_105_duration_20250327_1950.0" depart="1.00" departLane="189240001_0" departPos="25.23" departSpeed="0.00" departDelay="1.00" arrival="82.00" arrivalLane="799091563#0_2" arrivalPos="224.02" arrivalSpeed="16.60" duration="81.00" routeLength="308.35" waitingTime="34.00" waitingCount="2" stopTime="0.00" timeLoss="61.57" rerouteNo="0" devices="tripinfo_flow_route_105_duration_20250327_1950.0" vType="car" speedFactor="1.03" vaporized=""/>
    <tripinfo id="flow_route_95_duration_20250327_1950.6" depart="26.00" departLane="1341093416#0_0" departPos="195.57" departSpeed="0.00" departDelay="0.29" arrival="82.00" arrivalLane="1254519225#0.109_0" arrivalPos="44.44" arrivalSpeed="15.00" duration="56.00" routeLength="231.23" waitingTime="19.00" waitingCount="1" stopTime="0.00" timeLoss="40.44" rerouteNo="0" devices="tripinfo_flow_route_95_duration_20250327_1950.6" vType="car" speedFactor="0.90" vaporized=""/>
    <tripinfo id="flow_route_96_duration_20250327_1950.3" depart="50.00" departLane="1341093416#0_0" departPos="51.55" departSpeed="0.00" departDelay="5.00" arrival="82.00" arrivalLane="1254519229#0_1" arrivalPos="58.97" arrivalSpeed="13.88" duration="32.00" routeLength="302.43" waitingTime="0.00" waitingCount="0" stopTime="0.00" timeLoss="12.80" rerouteNo="0" devices="tripinfo_flow_route_96_duration_20250327_1950.3" vType="car" speedFactor="1.09" vaporized=""/>
    <tripinfo id="flow_route_94_duration_20250327_1950.1" depart="10.00" departLane="1341093416#0_0" departPos="24.41" departSpeed="0.00" departDelay="2.50" arrival="83.00" arrivalLane="799091563#0_0" arrivalPos="260.14" arrivalSpeed="15.45" duration="73.00" routeLength="542.08" waitingTime="11.00" waitingCount="1" stopTime="0.00" timeLoss="39.22" rerouteNo="0" devices="tripinfo_flow_route_94_duration_20250327_1950.1" vType="car" speedFactor="0.94" vaporized=""/>
    <tripinfo id="flow_route_95_duration_20250327_1950.3" depart="13.00" departLane="1341093416#0_0" departPos="46.17" departSpeed="0.00" departDelay="0.15" arrival="84.00" arrivalLane="1254519225#0.109_0" arrivalPos="30.73" arrivalSpeed="14.39" duration="71.00" routeLength="366.93" waitingTime="20.00" waitingCount="1" stopTime="0.00" timeLoss="46.63" rerouteNo="0" devices="tripinfo_flow_route_95_duration_20250327_1950.3" vType="car" speedFactor="0.87" vaporized=""/>
    <tripinfo id="flow_route_95_duration_20250327_1950.4" depart="19.00" departLane="1341093416#0_0" departPos="106.87" departSpeed="0.00" departDelay="1.86" arrival="86.00" arrivalLane="1254519225#0.109_0" arrivalPos="2.92" arrivalSpeed="14.23" duration="67.00" routeLength="278.43" waitingTime="19.00" waitingCount="1" stopTime="0.00" timeLoss="48.98" rerouteNo="0" devices="tripinfo_flow_route_95_duration_20250327_1950.4" vType="car" speedFactor="1.17" vaporized=""/>
    <tripinfo id="flow_route_94_duration_20250327_1950.3" depart="24.00" departLane="1341093416#0_0" departPos="27.84" departSpeed="0.00" departDelay="1.50" arrival="86.00" arrivalLane="799091563#0_2" arrivalPos="269.89" arrivalSpeed="16.16" duration="62.00" routeLength="548.40" waitingTime="0.00" waitingCount="0" stopTime="0.00" timeLoss="28.81" rerouteNo="0" devices="tripinfo_flow_route_94_duration_20250327_1950.3" vType="car" speedFactor="1.09" vaporized=""/>
    <tripinfo id="flow_route_95_duration_20250327_1950.5" depart="22.00" departLane="1341093416#0_0" departPos="135.09" departSpeed="0.00" departDelay="0.58" arrival="87.00" arrivalLane="1254519225#0.109_0" arrivalPos="39.01" arrivalSpeed="15.56" duration="65.00" routeLength="286.29" waitingTime="19.00" waitingCount="1" stopTime="0.00" timeLoss="46.12" rerouteNo="0" devices="tripinfo_flow_route_95_duration_20250327_1950.5" vType="car" speedFactor="1.03" vaporized=""/>
    <tripinfo id="flow_route_94_duration_20250327_1950.6" depart="45.00" departLane="1341093416#0_0" departPos="2.01" departSpeed="0.00" departDelay="0.00" arrival="92.00" arrivalLane="799091563#0_1" arrivalPos="284.63" arrivalSpeed="16.55" duration="47.00" routeLength="588.97" waitingTime="0.00" waitingCount="0" stopTime="0.00" timeLoss="11.22" rerouteNo="0" devices="tripinfo_flow_route_94_duration_20250327_1950.6" vType="car" speedFactor="1.01" vaporized=""/>
    <tripinfo id="flow_route_124_duration_20250327_1950.1" depart="3.00" departLane="189240000#0-AddedOnRampEdge_0" departPos="28.99" departSpeed="0.00" departDelay="0.00" arrival="94.00" arrivalLane="1254519225#0.109_3" arrivalPos="2.88" arrivalSpeed="12.87" duration="91.00" routeLength="218.92" waitingTime="48.00" waitingCount="2" stopTime="0.00" timeLoss="76.88" rerouteNo="0" devices="tripinfo_flow_route_124_duration_20250327_1950.1" vType="car" speedFactor="1.09" vaporized=""/>
    <tripinfo id="flow_route_124_duration_20250327_1950.3" depart="9.00" departLane="189240000#0-AddedOnRampEdge_0" departPos="76.63" departSpeed="0.00" departDelay="0.00" arrival="94.00" arrivalLane="1254519225#0.109_3" arrivalPos="13.92" arrivalSpeed="14.09" duration="85.00" routeLength="182.32" waitingTime="49.00" waitingCount="2" stopTime="0.00" timeLoss="72.27" rerouteNo="0" devices="tripinfo_flow_route_124_duration_20250327_1950.3" vType="car" speedFactor="1.01" vaporized=""/>
    <tripinfo id="flow_route_104_duration_20250327_1950.7" depart="47.00" departLane="189240001_0" departPos="30.90" departSpeed="0.00" departDelay="0.34" arrival="97.00" arrivalLane="1254519225#0.109_0" arrivalPos="11.89" arrivalSpeed="14.90" duration="50.00" routeLength="185.15" waitingTime="17.00" waitingCount="1" stopTime="0.00" timeLoss="37.83" rerouteNo="0" devices="tripinfo_flow_route_104_duration_20250327_1950.7" vType="car" speedFactor="0.97" vaporized=""/>
    <tripinfo id="flow_route_111_duration_20250327_1950.23" depart="50.00" departLane="1253188486#8_0" departPos="109.66" departSpeed="0.00" departDelay="0.73" arrival="97.00" arrivalLane="1254519229#0_1" arrivalPos="18.38" arrivalSpeed="9.16" duration="47.00" routeLength="184.94" waitingTime="9.00" waitingCount="1" stopTime="0.00" timeLoss="35.75" rerouteNo="0" devices="tripinfo_flow_route_111_duration_20250327_1950.23" vType="car" speedFactor="1.01" vaporized=""/>
    <tripinfo id="flow_route_111_duration_20250327_1950.27" depart="58.00" departLane="1253188486#8_0" departPos="244.01" departSpeed="0.00" departDelay="0.17" arrival="97.00" arrivalLane="1254519229#0_0" arrivalPos="19.22" arrivalSpeed="9.21" duration="39.00" routeLength="51.43" waitingTime="24.00" waitingCount="1" stopTime="0.00" timeLoss="35.37" rerouteNo="0" devices="tripinfo_flow_route_111_duration_20250327_1950.27" vType="car" speedFactor="0.96" vaporized=""/>
    <tripinfo id="flow_route_111_duration_20250327_1950.15" depart="36.00" departLane="1253188486#8_0" departPos="28.05" departSpeed="0.00" departDelay="3.87" arrival="98.00" arrivalLane="1254519229#0_1" arrivalPos="78.05" arrivalSpeed="12.62" duration="62.00" routeLength="326.22" waitingTime="16.00" waitingCount="1" stopTime="0.00" timeLoss="42.19" rerouteNo="0" devices="tripinfo_flow_route_111_duration_20250327_1950.15" vType="car" speedFactor="0.97" vaporized=""/>
    <tripinfo id="flow_route_111_duration_20250327_1950.17" depart="40.00" departLane="1253188486#8_0" departPos="193.70" departSpeed="0.00" departDelay="3.59" arrival="99.00" arrivalLane="1254519229#0_0" arrivalPos="79.31" arrivalSpeed="12.98" duration="59.00" routeLength="161.83" waitingTime="24.00" waitingCount="1" stopTime="0.00" timeLoss="48.73" rerouteNo="0" devices="tripinfo_flow_route_111_duration_20250327_1950.17" vType="car" speedFactor="0.91" vaporized=""/>