<?xml version="1.0" encoding="UTF-8"?>

<!-- generated on 2025-05-06 21:01:11 by Eclipse SUMO sumo Version 1.20.0
<configuration xmlns:xsi="http://www.w3.org/2001/XMLSchema-instance" xsi:noNamespaceSchemaLocation="http://sumo.dlr.de/xsd/sumoConfiguration.xsd">

    <input>
        <net-file value="osm.net.xml"/>
        <route-files value="xml/routes_sac2_cluster_3839031475_3839031476_4110471700_4234582615.rou.xml"/>
    </input>

    <output>
        <tripinfo-output value="xml/tripinfo_9788.xml"/>
    </output>

    <traci_server>
        <remote-port value="44753"/>
    </traci_server>

</configuration>
-->

<tripinfos xmlns:xsi="http://www.w3.org/2001/XMLSchema-instance" xsi:noNamespaceSchemaLocation="http://sumo.dlr.de/xsd/tripinfo_file.xsd">
    <tripinfo id="flow_route_85_duration_20250327_2250.0" depart="0.00" departLane="1091883842_0" departPos="162.60" departSpeed="0.00" departDelay="0.00" arrival="16.00" arrivalLane="133000063_0" arrivalPos="42.63" arrivalSpeed="9.42" duration="16.00" routeLength="74.77" waitingTime="0.00" waitingCount="0" stopTime="0.00" timeLoss="9.16" rerouteNo="0" devices="tripinfo_flow_route_85_duration_20250327_2250.0" vType="car" speedFactor="0.89" vaporized=""/>
    <tripinfo id="flow_route_79_duration_20250327_2250.0" depart="0.00" departLane="380344611#0_0" departPos="128.21" departSpeed="0.00" departDelay="0.00" arrival="28.00" arrivalLane="423956929_1" arrivalPos="91.18" arrivalSpeed="16.55" duration="28.00" routeLength="278.79" waitingTime="0.00" waitingCount="0" stopTime="0.00" timeLoss="10.93" rerouteNo="0" devices="tripinfo_flow_route_79_duration_20250327_2250.0" vType="car" speedFactor="1.08" vaporized=""/>
    <tripinfo id="flow_route_81_duration_20250327_2250.0" depart="0.00" departLane="380344611#0_0" departPos="75.01" departSpeed="0.00" departDelay="0.00" arrival="30.00" arrivalLane="133000063_2" arrivalPos="7.51" arrivalSpeed="9.62" duration="30.00" routeLength="248.37" waitingTime="0.00" waitingCount="0" stopTime="0.00" timeLoss="10.90" rerouteNo="0" devices="tripinfo_flow_route_81_duration_20250327_2250.0" vType="car" speedFactor="0.83" vaporized=""/>
    <tripinfo id="flow_route_80_duration_20250327_2250.0" depart="0.00" departLane="380344611#0_0" departPos="160.58" departSpeed="0.00" departDelay="0.00" arrival="31.00" arrivalLane="380593307#0_0" arrivalPos="102.42" arrivalSpeed="13.82" duration="31.00" routeLength="234.46" waitingTime="0.00" waitingCount="0" stopTime="0.00" timeLoss="16.05" rerouteNo="0" devices="tripinfo_flow_route_80_duration_20250327_2250.0" vType="car" speedFactor="1.03" vaporized=""/>
    <tripinfo id="flow_route_90_duration_20250327_2250.0" depart="0.00" departLane="380585338#0_0" departPos="118.71" departSpeed="0.00" departDelay="0.00" arrival="33.00" arrivalLane="136617981_0" arrivalPos="211.18" arrivalSpeed="13.95" duration="33.00" routeLength="279.54" waitingTime="0.00" waitingCount="0" stopTime="0.00" timeLoss="11.71" rerouteNo="0" devices="tripinfo_flow_route_90_duration_20250327_2250.0" vType="car" speedFactor="0.86" vaporized=""/>
    <tripinfo id="flow_route_81_duration_20250327_2250.1" depart="9.00" departLane="380344611#0_0" departPos="145.46" departSpeed="0.00" departDelay="0.43" arrival="35.00" arrivalLane="133000063_2" arrivalPos="7.96" arrivalSpeed="8.05" duration="26.00" routeLength="178.37" waitingTime="0.00" waitingCount="0" stopTime="0.00" timeLoss="14.27" rerouteNo="0" devices="tripinfo_flow_route_81_duration_20250327_2250.1" vType="car" speedFactor="1.09" vaporized=""/>
    <tripinfo id="flow_route_84_duration_20250327_2250.0" depart="0.00" departLane="1091883842_0" departPos="11.19" departSpeed="0.00" departDelay="0.00" arrival="36.00" arrivalLane="136617981_1" arrivalPos="210.65" arrivalSpeed="16.28" duration="36.00" routeLength="417.75" waitingTime="0.00" waitingCount="0" stopTime="0.00" timeLoss="10.61" rerouteNo="0" devices="tripinfo_flow_route_84_duration_20250327_2250.0" vType="car" speedFactor="1.05" vaporized=""/>
    <tripinfo id="flow_route_84_duration_20250327_2250.1" depart="15.00" departLane="1091883842_0" departPos="164.84" departSpeed="0.00" departDelay="0.00" arrival="41.00" arrivalLane="136617981_0" arrivalPos="179.54" arrivalSpeed="16.14" duration="26.00" routeLength="232.99" waitingTime="0.00" waitingCount="0" stopTime="0.00" timeLoss="11.29" rerouteNo="0" devices="tripinfo_flow_route_84_duration_20250327_2250.1" vType="car" speedFactor="1.05" vaporized=""/>
    <tripinfo id="flow_route_81_duration_20250327_2250.2" depart="18.00" departLane="380344611#0_0" departPos="67.13" departSpeed="0.00" departDelay="0.86" arrival="56.00" arrivalLane="133000063_2" arrivalPos="93.75" arrivalSpeed="14.09" duration="38.00" routeLength="342.50" waitingTime="0.00" waitingCount="0" stopTime="0.00" timeLoss="16.42" rerouteNo="0" devices="tripinfo_flow_route_81_duration_20250327_2250.2" vType="car" speedFactor="0.99" vaporized=""/>
    <tripinfo id="flow_route_81_duration_20250327_2250.4" depart="35.00" departLane="380344611#0_0" departPos="189.46" departSpeed="0.00" departDelay="0.72" arrival="56.00" arrivalLane="133000063_2" arrivalPos="15.33" arrivalSpeed="11.19" duration="21.00" routeLength="141.74" waitingTime="0.00" waitingCount="0" stopTime="0.00" timeLoss="11.33" rerouteNo="0" devices="tripinfo_flow_route_81_duration_20250327_2250.4" vType="car" speedFactor="0.97" vaporized=""/>
    <tripinfo id="flow_route_81_duration_20250327_2250.3" depart="26.00" departLane="380344611#0_0" departPos="85.57" departSpeed="0.00" departDelay="0.29" arrival="57.00" arrivalLane="133000063_2" arrivalPos="5.58" arrivalSpeed="10.17" duration="31.00" routeLength="235.88" waitingTime="0.00" waitingCount="0" stopTime="0.00" timeLoss="14.90" rerouteNo="0" devices="tripinfo_flow_route_81_duration_20250327_2250.3" vType="car" speedFactor="0.93" vaporized=""/>
    <tripinfo id="flow_route_81_duration_20250327_2250.6" depart="52.00" departLane="380344611#0_0" departPos="270.78" departSpeed="0.00" departDelay="0.57" arrival="66.00" arrivalLane="133000063_2" arrivalPos="29.01" arrivalSpeed="10.79" duration="14.00" routeLength="74.09" waitingTime="0.00" waitingCount="0" stopTime="0.00" timeLoss="8.02" rerouteNo="0" devices="tripinfo_flow_route_81_duration_20250327_2250.6" vType="car" speedFactor="0.95" vaporized=""/>
    <tripinfo id="flow_route_81_duration_20250327_2250.5" depart="43.00" departLane="380344611#0_0" departPos="169.07" departSpeed="0.00" departDelay="0.15" arrival="74.00" arrivalLane="133000063_2" arrivalPos="123.25" arrivalSpeed="14.74" duration="31.00" routeLength="270.05" waitingTime="0.00" waitingCount="0" stopTime="0.00" timeLoss="11.82" rerouteNo="0" devices="tripinfo_flow_route_81_duration_20250327_2250.5" vType="car" speedFactor="0.89" vaporized=""/>
    <tripinfo id="flow_route_77_duration_20250327_2250.1" depart="31.00" departLane="133342692#0_0" departPos="45.28" departSpeed="0.00" departDelay="1.00" arrival="76.00" arrivalLane="423956929_0" arrivalPos="29.52" arrivalSpeed="8.89" duration="45.00" routeLength="166.77" waitingTime="13.00" waitingCount="1" stopTime="0.00" timeLoss="33.16" rerouteNo="0" devices="tripinfo_flow_route_77_duration_20250327_2250.1" vType="car" speedFactor="0.94" vaporized=""/>
    <tripinfo id="flow_route_77_duration_20250327_2250.0" depart="0.00" departLane="133342692#0_0" departPos="115.39" departSpeed="0.00" departDelay="0.00" arrival="82.00" arrivalLane="423956929_0" arrivalPos="132.19" arrivalSpeed="15.17" duration="82.00" routeLength="199.33" waitingTime="51.00" waitingCount="1" stopTime="0.00" timeLoss="67.82" rerouteNo="0" devices="tripinfo_flow_route_77_duration_20250327_2250.0" vType="car" speedFactor="0.94" vaporized=""/>
    <tripinfo id="flow_route_89_duration_20250327_2250.0" depart="0.00" departLane="380585338#0_0" departPos="55.91" departSpeed="0.00" departDelay="0.00" arrival="82.00" arrivalLane="380593307#0_0" arrivalPos="94.67" arrivalSpeed="13.86" duration="82.00" routeLength="249.03" waitingTime="44.00" waitingCount="1" stopTime="0.00" timeLoss="65.31" rerouteNo="0" devices="tripinfo_flow_route_89_duration_20250327_2250.0" vType="car" speedFactor="0.94" vaporized=""/>
    <tripinfo id="flow_route_90_duration_20250327_2250.1" depart="31.00" departLane="380585338#0_0" departPos="99.26" departSpeed="0.00" departDelay="1.00" arrival="82.00" arrivalLane="136617981_0" arrivalPos="93.90" arrivalSpeed="13.35" duration="51.00" routeLength="181.71" waitingTime="20.00" waitingCount="1" stopTime="0.00" timeLoss="38.59" rerouteNo="0" devices="tripinfo_flow_route_90_duration_20250327_2250.1" vType="car" speedFactor="1.01" vaporized=""/>
    <tripinfo id="flow_route_78_duration_20250327_2250.0" depart="0.00" departLane="133342692#0_0" departPos="79.92" departSpeed="0.00" departDelay="0.00" arrival="83.00" arrivalLane="136617981_2" arrivalPos="12.89" arrivalSpeed="6.22" duration="83.00" routeLength="138.43" waitingTime="49.00" waitingCount="2" stopTime="0.00" timeLoss="73.95" rerouteNo="0" devices="tripinfo_flow_route_78_duration_20250327_2250.0" vType="car" speedFactor="1.01" vaporized=""/>
    <tripinfo id="flow_route_89_duration_20250327_2250.2" depart="31.00" departLane="380585338#0_0" departPos="29.16" departSpeed="0.00" departDelay="1.00" arrival="84.00" arrivalLane="380593307#0_2" arrivalPos="118.94" arrivalSpeed="15.07" duration="53.00" routeLength="300.04" waitingTime="11.00" waitingCount="1" stopTime="0.00" timeLoss="34.28" rerouteNo="0" devices="tripinfo_flow_route_89_duration_20250327_2250.2" vType="car" speedFactor="1.02" vaporized=""/>
    <tripinfo id="flow_route_89_duration_20250327_2250.1" depart="15.00" departLane="380585338#0_0" departPos="68.87" departSpeed="0.00" departDelay="0.00" arrival="85.00" arrivalLane="380593307#0_0" arrivalPos="163.03" arrivalSpeed="16.55" duration="70.00" routeLength="304.43" waitingTime="30.00" waitingCount="1" stopTime="0.00" timeLoss="51.37" rerouteNo="0" devices="tripinfo_flow_route_89_duration_20250327_2250.1" vType="car" speedFactor="1.12" vaporized=""/>
    <tripinfo id="flow_route_76_duration_20250327_2250.0" depart="0.00" departLane="133342692#0_0" departPos="1.03" departSpeed="0.00" departDelay="0.00" arrival="86.00" arrivalLane="133000063_0" arrivalPos="153.47" arrivalSpeed="16.14" duration="86.00" routeLength="359.35" waitingTime="41.00" waitingCount="1" stopTime="0.00" timeLoss="63.62" rerouteNo="0" devices="tripinfo_flow_route_76_duration_20250327_2250.0" vType="car" speedFactor="1.06" vaporized=""/>
    <tripinfo id="flow_route_76_duration_20250327_2250.1" depart="30.00" departLane="133342692#0_0" departPos="22.18" departSpeed="0.00" departDelay="0.00" arrival="86.00" arrivalLane="133000063_1" arrivalPos="131.68" arrivalSpeed="14.26" duration="56.00" routeLength="316.42" waitingTime="11.00" waitingCount="1" stopTime="0.00" timeLoss="34.02" rerouteNo="0" devices="tripinfo_flow_route_76_duration_20250327_2250.1" vType="car" speedFactor="0.88" vaporized=""/>
    <tripinfo id="flow_route_89_duration_20250327_2250.3" depart="45.00" departLane="380585338#0_0" departPos="100.73" departSpeed="0.00" departDelay="0.00" arrival="88.00" arrivalLane="380593307#0_1" arrivalPos="166.66" arrivalSpeed="14.93" duration="43.00" routeLength="276.20" waitingTime="4.00" waitingCount="1" stopTime="0.00" timeLoss="24.51" rerouteNo="0" devices="tripinfo_flow_route_89_duration_20250327_2250.3" vType="car" speedFactor="0.92" vaporized=""/>
    <tripinfo id="flow_route_78_duration_20250327_2250.1" depart="15.00" departLane="133342692#0_0" departPos="141.33" departSpeed="0.00" departDelay="0.00" arrival="93.00" arrivalLane="136617981_2" arrivalPos="87.03" arrivalSpeed="12.92" duration="78.00" routeLength="151.16" waitingTime="44.00" waitingCount="2" stopTime="0.00" timeLoss="67.58" rerouteNo="0" devices="tripinfo_flow_route_78_duration_20250327_2250.1" vType="car" speedFactor="1.03" vaporized=""/>
    <tripinfo id="flow_route_78_duration_20250327_2250.3" depart="45.00" departLane="133342692#0_0" departPos="52.77" departSpeed="0.00" departDelay="0.00" arrival="104.00" arrivalLane="136617981_2" arrivalPos="196.02" arrivalSpeed="13.74" duration="59.00" routeLength="348.71" waitingTime="6.00" waitingCount="2" stopTime="0.00" timeLoss="32.71" rerouteNo="0" devices="tripinfo_flow_route_78_duration_20250327_2250.3" vType="car" speedFactor="0.83" vaporized=""/>
    <tripinfo id="flow_route_78_duration_20250327_2250.2" depart="33.00" departLane="133342692#0_0" departPos="139.17" departSpeed="0.00" departDelay="3.00" arrival="107.00" arrivalLane="136617981_2" arrivalPos="271.12" arrivalSpeed="15.44" duration="74.00" routeLength="337.41" waitingTime="28.00" waitingCount="2" stopTime="0.00" timeLoss="50.77" rerouteNo="0" devices="tripinfo_flow_route_78_duration_20250327_2250.2" vType="car" speedFactor="0.94" vaporized=""/>
    <tripinfo id="flow_route_84_duration_20250327_2250.2" depart="30.00" departLane="1091883842_0" departPos="76.39" departSpeed="0.00" departDelay="0.00" arrival="139.00" arrivalLane="136617981_0" arrivalPos="8.45" arrivalSpeed="8.53" duration="109.00" routeLength="150.35" waitingTime="80.00" waitingCount="1" stopTime="0.00" timeLoss="99.45" rerouteNo="0" devices="tripinfo_flow_route_84_duration_20250327_2250.2" vType="car" speedFactor="1.16" vaporized=""/>
    <tripinfo id="flow_route_84_duration_20250327_2250.3" depart="45.00" departLane="1091883842_0" departPos="91.48" departSpeed="0.00" departDelay="0.00" arrival="158.00" arrivalLane="136617981_0" arrivalPos="265.01" arrivalSpeed="14.18" duration="113.00" routeLength="391.83" waitingTime="67.00" waitingCount="1" stopTime="0.00" timeLoss="85.44" rerouteNo="0" devices="tripinfo_flow_route_84_duration_20250327_2250.3" vType="car" speedFactor="0.87" vaporized=""/>
</tripinfos>
