<?xml version="1.0" encoding="UTF-8"?>

<!-- generated on 2025-05-06 21:08:36 by Eclipse SUMO sumo Version 1.20.0
<configuration xmlns:xsi="http://www.w3.org/2001/XMLSchema-instance" xsi:noNamespaceSchemaLocation="http://sumo.dlr.de/xsd/sumoConfiguration.xsd">

    <input>
        <net-file value="osm.net.xml"/>
        <route-files value="xml/route_static_cluster7571105647_7571105653_cluster_1141265322_11869698130_256036890_4227138136_#4more_5.rou.xml"/>
    </input>

    <output>
        <tripinfo-output value="xml/tripinfo_static_cluster7571105647_7571105653_cluster_1141265322_11869698130_256036890_4227138136_#4more_5.xml"/>
    </output>

    <traci_server>
        <remote-port value="39397"/>
    </traci_server>

</configuration>
-->

<tripinfos xmlns:xsi="http://www.w3.org/2001/XMLSchema-instance" xsi:noNamespaceSchemaLocation="http://sumo.dlr.de/xsd/tripinfo_file.xsd">
    <tripinfo id="flow_route_143_duration_20250327_2100.0" depart="0.00" departLane="1253222187#0_0" departPos="157.10" departSpeed="0.00" departDelay="0.00" arrival="28.00" arrivalLane="1310781056_0" arrivalPos="55.73" arrivalSpeed="16.37" duration="28.00" routeLength="267.13" waitingTime="0.00" waitingCount="0" stopTime="0.00" timeLoss="11.65" rerouteNo="0" devices="tripinfo_flow_route_143_duration_20250327_2100.0" vType="car" speedFactor="1.08" vaporized=""/>
    <tripinfo id="flow_route_140_duration_20250327_2100.1" depart="6.00" departLane="809719540#0_0" departPos="183.62" departSpeed="0.00" departDelay="0.00" arrival="47.00" arrivalLane="-809772643#1_1" arrivalPos="66.57" arrivalSpeed="13.24" duration="41.00" routeLength="193.23" waitingTime="7.00" waitingCount="1" stopTime="0.00" timeLoss="27.08" rerouteNo="0" devices="tripinfo_flow_route_140_duration_20250327_2100.1" vType="car" speedFactor="0.89" vaporized=""/>
    <tripinfo id="flow_route_142_duration_20250327_2100.1" depart="4.00" departLane="1253222187#0_0" departPos="184.61" departSpeed="0.00" departDelay="0.67" arrival="52.00" arrivalLane="683079388#0_0" arrivalPos="6.83" arrivalSpeed="16.28" duration="48.00" routeLength="620.53" waitingTime="0.00" waitingCount="0" stopTime="0.00" timeLoss="10.59" rerouteNo="0" devices="tripinfo_flow_route_142_duration_20250327_2100.1" vType="car" speedFactor="1.05" vaporized=""/>
    <tripinfo id="flow_route_140_duration_20250327_2100.2" depart="12.00" departLane="809719540#0_0" departPos="63.58" departSpeed="0.00" departDelay="0.00" arrival="52.00" arrivalLane="-809772643#1_1" arrivalPos="112.54" arrivalSpeed="15.88" duration="40.00" routeLength="359.24" waitingTime="0.00" waitingCount="0" stopTime="0.00" timeLoss="18.08" rerouteNo="0" devices="tripinfo_flow_route_140_duration_20250327_2100.2" vType="car" speedFactor="1.05" vaporized=""/>
    <tripinfo id="flow_route_140_duration_20250327_2100.0" depart="0.00" departLane="809719540#0_0" departPos="199.64" departSpeed="0.00" departDelay="0.00" arrival="54.00" arrivalLane="-809772643#1_0" arrivalPos="184.22" arrivalSpeed="16.16" duration="54.00" routeLength="292.04" waitingTime="15.00" waitingCount="1" stopTime="0.00" timeLoss="35.65" rerouteNo="0" devices="tripinfo_flow_route_140_duration_20250327_2100.0" vType="car" speedFactor="1.06" vaporized=""/>
    <tripinfo id="flow_route_142_duration_20250327_2100.0" depart="0.00" departLane="1253222187#0_0" departPos="114.97" departSpeed="0.00" departDelay="0.00" arrival="54.00" arrivalLane="683079388#0_2" arrivalPos="1.17" arrivalSpeed="16.26" duration="54.00" routeLength="684.52" waitingTime="0.00" waitingCount="0" stopTime="0.00" timeLoss="11.80" rerouteNo="0" devices="tripinfo_flow_route_142_duration_20250327_2100.0" vType="car" speedFactor="1.01" vaporized=""/>
    <tripinfo id="flow_route_140_duration_20250327_2100.4" depart="24.00" departLane="809719540#0_0" departPos="179.46" departSpeed="0.00" departDelay="0.00" arrival="54.00" arrivalLane="-809772643#1_0" arrivalPos="167.83" arrivalSpeed="16.11" duration="30.00" routeLength="295.82" waitingTime="0.00" waitingCount="0" stopTime="0.00" timeLoss="12.01" rerouteNo="0" devices="tripinfo_flow_route_140_duration_20250327_2100.4" vType="car" speedFactor="1.01" vaporized=""/>
    <tripinfo id="flow_route_142_duration_20250327_2100.3" depart="10.00" departLane="1253222187#0_0" departPos="187.15" departSpeed="0.00" departDelay="0.00" arrival="59.00" arrivalLane="683079388#0_0" arrivalPos="24.25" arrivalSpeed="16.14" duration="49.00" routeLength="635.41" waitingTime="0.00" waitingCount="0" stopTime="0.00" timeLoss="10.56" rerouteNo="0" devices="tripinfo_flow_route_142_duration_20250327_2100.3" vType="car" speedFactor="1.09" vaporized=""/>
    <tripinfo id="flow_route_142_duration_20250327_2100.2" depart="7.00" departLane="1253222187#0_0" departPos="108.15" departSpeed="0.00" departDelay="0.33" arrival="62.00" arrivalLane="683079388#0_0" arrivalPos="1.19" arrivalSpeed="15.39" duration="55.00" routeLength="691.35" waitingTime="0.00" waitingCount="0" stopTime="0.00" timeLoss="10.59" rerouteNo="0" devices="tripinfo_flow_route_142_duration_20250327_2100.2" vType="car" speedFactor="0.94" vaporized=""/>
    <tripinfo id="flow_route_140_duration_20250327_2100.3" depart="19.00" departLane="809719540#0_0" departPos="34.75" departSpeed="0.00" departDelay="1.00" arrival="63.00" arrivalLane="-809772643#1_0" arrivalPos="141.65" arrivalSpeed="14.47" duration="44.00" routeLength="414.34" waitingTime="0.00" waitingCount="0" stopTime="0.00" timeLoss="15.25" rerouteNo="0" devices="tripinfo_flow_route_140_duration_20250327_2100.3" vType="car" speedFactor="0.88" vaporized=""/>
    <tripinfo id="flow_route_146_duration_20250327_2100.1" depart="10.00" departLane="683079387#1_0" departPos="4.05" departSpeed="0.00" departDelay="0.00" arrival="75.00" arrivalLane="-809772643#1_1" arrivalPos="170.43" arrivalSpeed="16.51" duration="65.00" routeLength="779.35" waitingTime="0.00" waitingCount="0" stopTime="0.00" timeLoss="17.80" rerouteNo="0" devices="tripinfo_flow_route_146_duration_20250327_2100.1" vType="car" speedFactor="1.03" vaporized=""/>
    <tripinfo id="flow_route_147_duration_20250327_2100.0" depart="4.00" departLane="683079387#1_0" departPos="0.62" departSpeed="0.00" departDelay="4.00" arrival="77.00" arrivalLane="1310781056_0" arrivalPos="4.95" arrivalSpeed="14.29" duration="73.00" routeLength="684.16" waitingTime="1.00" waitingCount="1" stopTime="0.00" timeLoss="23.00" rerouteNo="0" devices="tripinfo_flow_route_147_duration_20250327_2100.0" vType="car" speedFactor="0.83" vaporized=""/>
    <tripinfo id="flow_route_146_duration_20250327_2100.0" depart="0.00" departLane="683079387#1_0" departPos="0.06" departSpeed="0.00" departDelay="0.00" arrival="78.00" arrivalLane="-809772643#1_0" arrivalPos="121.98" arrivalSpeed="16.14" duration="78.00" routeLength="734.89" waitingTime="10.00" waitingCount="1" stopTime="0.00" timeLoss="33.69" rerouteNo="0" devices="tripinfo_flow_route_146_duration_20250327_2100.0" vType="car" speedFactor="1.03" vaporized=""/>
    <tripinfo id="flow_route_146_duration_20250327_2100.2" depart="20.00" departLane="683079387#1_0" departPos="1.71" departSpeed="0.00" departDelay="0.00" arrival="80.00" arrivalLane="-809772643#1_1" arrivalPos="199.43" arrivalSpeed="16.60" duration="60.00" routeLength="810.68" waitingTime="0.00" waitingCount="0" stopTime="0.00" timeLoss="10.80" rerouteNo="0" devices="tripinfo_flow_route_146_duration_20250327_2100.2" vType="car" speedFactor="1.16" vaporized=""/>
    <tripinfo id="flow_route_141_duration_20250327_2100.0" depart="0.00" departLane="809719540#0_0" departPos="66.48" departSpeed="0.00" departDelay="0.00" arrival="84.00" arrivalLane="683079387#1_1" arrivalPos="7.27" arrivalSpeed="6.50" duration="84.00" routeLength="836.36" waitingTime="4.00" waitingCount="1" stopTime="0.00" timeLoss="27.39" rerouteNo="0" devices="tripinfo_flow_route_141_duration_20250327_2100.0" vType="car" speedFactor="0.94" vaporized=""/>
    <tripinfo id="flow_route_146_duration_20250327_2100.3" depart="30.00" departLane="683079387#1_0" departPos="6.55" departSpeed="0.00" departDelay="0.00" arrival="85.00" arrivalLane="-809772643#1_0" arrivalPos="101.84" arrivalSpeed="15.80" duration="55.00" routeLength="708.26" waitingTime="0.00" waitingCount="0" stopTime="0.00" timeLoss="10.14" rerouteNo="0" devices="tripinfo_flow_route_146_duration_20250327_2100.3" vType="car" speedFactor="0.95" vaporized=""/>
    <tripinfo id="flow_route_146_duration_20250327_2100.4" depart="40.00" departLane="683079387#1_0" departPos="2.96" departSpeed="0.00" departDelay="0.00" arrival="89.00" arrivalLane="-809772643#1_0" arrivalPos="16.54" arrivalSpeed="16.38" duration="49.00" routeLength="626.55" waitingTime="0.00" waitingCount="0" stopTime="0.00" timeLoss="10.47" rerouteNo="0" devices="tripinfo_flow_route_146_duration_20250327_2100.4" vType="car" speedFactor="1.02" vaporized=""/>
    <tripinfo id="flow_route_141_duration_20250327_2100.4" depart="30.00" departLane="809719540#0_0" departPos="256.49" departSpeed="0.00" departDelay="0.00" arrival="90.00" arrivalLane="683079387#1_1" arrivalPos="9.80" arrivalSpeed="6.78" duration="60.00" routeLength="655.89" waitingTime="0.00" waitingCount="0" stopTime="0.00" timeLoss="11.58" rerouteNo="0" devices="tripinfo_flow_route_141_duration_20250327_2100.4" vType="car" speedFactor="0.87" vaporized=""/>
    <tripinfo id="flow_route_141_duration_20250327_2100.1" depart="8.00" departLane="809719540#0_0" departPos="170.15" departSpeed="0.00" departDelay="0.50" arrival="91.00" arrivalLane="683079387#1_1" arrivalPos="3.14" arrivalSpeed="4.74" duration="83.00" routeLength="728.54" waitingTime="6.00" waitingCount="1" stopTime="0.00" timeLoss="28.22" rerouteNo="0" devices="tripinfo_flow_route_141_duration_20250327_2100.1" vType="car" speedFactor="0.86" vaporized=""/>
    <tripinfo id="flow_route_141_duration_20250327_2100.2" depart="15.00" departLane="809719540#0_0" departPos="42.74" departSpeed="0.00" departDelay="0.00" arrival="94.00" arrivalLane="683079387#1_1" arrivalPos="7.81" arrivalSpeed="6.32" duration="79.00" routeLength="860.63" waitingTime="0.00" waitingCount="0" stopTime="0.00" timeLoss="24.16" rerouteNo="0" devices="tripinfo_flow_route_141_duration_20250327_2100.2" vType="car" speedFactor="0.99" vaporized=""/>
    <tripinfo id="flow_route_147_duration_20250327_2100.1" depart="34.00" departLane="683079387#1_0" departPos="0.68" departSpeed="0.00" departDelay="4.00" arrival="94.00" arrivalLane="1310781056_0" arrivalPos="65.78" arrivalSpeed="16.54" duration="60.00" routeLength="744.93" waitingTime="0.00" waitingCount="0" stopTime="0.00" timeLoss="13.38" rerouteNo="0" devices="tripinfo_flow_route_147_duration_20250327_2100.1" vType="car" speedFactor="1.13" vaporized=""/>
    <tripinfo id="flow_route_141_duration_20250327_2100.3" depart="23.00" departLane="809719540#0_0" departPos="64.84" departSpeed="0.00" departDelay="0.50" arrival="97.00" arrivalLane="683079387#1_1" arrivalPos="5.84" arrivalSpeed="6.79" duration="74.00" routeLength="843.58" waitingTime="0.00" waitingCount="0" stopTime="0.00" timeLoss="19.69" rerouteNo="0" devices="tripinfo_flow_route_141_duration_20250327_2100.3" vType="car" speedFactor="1.02" vaporized=""/>
    <tripinfo id="flow_route_142_duration_20250327_2100.4" depart="14.00" departLane="1253222187#0_0" departPos="63.62" departSpeed="0.00" departDelay="0.67" arrival="103.00" arrivalLane="683079388#0_2" arrivalPos="0.84" arrivalSpeed="16.52" duration="89.00" routeLength="735.52" waitingTime="21.00" waitingCount="1" stopTime="0.00" timeLoss="44.16" rerouteNo="0" devices="tripinfo_flow_route_142_duration_20250327_2100.4" vType="car" speedFactor="1.12" vaporized=""/>
    <tripinfo id="flow_route_142_duration_20250327_2100.7" depart="24.00" departLane="1253222187#0_0" departPos="150.87" departSpeed="0.00" departDelay="0.67" arrival="104.00" arrivalLane="683079388#0_0" arrivalPos="2.30" arrivalSpeed="16.15" duration="80.00" routeLength="649.74" waitingTime="19.00" waitingCount="1" stopTime="0.00" timeLoss="39.61" rerouteNo="0" devices="tripinfo_flow_route_142_duration_20250327_2100.7" vType="car" speedFactor="0.97" vaporized=""/>
    <tripinfo id="flow_route_142_duration_20250327_2100.5" depart="17.00" departLane="1253222187#0_0" departPos="6.29" departSpeed="0.00" departDelay="0.34" arrival="108.00" arrivalLane="683079388#0_0" arrivalPos="24.70" arrivalSpeed="15.24" duration="91.00" routeLength="816.72" waitingTime="14.00" waitingCount="1" stopTime="0.00" timeLoss="37.90" rerouteNo="0" devices="tripinfo_flow_route_142_duration_20250327_2100.5" vType="car" speedFactor="0.93" vaporized=""/>
    <tripinfo id="flow_route_142_duration_20250327_2100.12" depart="40.00" departLane="1253222187#0_0" departPos="152.20" departSpeed="0.00" departDelay="0.00" arrival="108.00" arrivalLane="683079388#0_2" arrivalPos="4.66" arrivalSpeed="16.23" duration="68.00" routeLength="650.77" waitingTime="7.00" waitingCount="1" stopTime="0.00" timeLoss="27.99" rerouteNo="0" devices="tripinfo_flow_route_142_duration_20250327_2100.12" vType="car" speedFactor="1.17" vaporized=""/>
    <tripinfo id="flow_route_140_duration_20250327_2100.7" depart="42.00" departLane="809719540#0_0" departPos="113.68" departSpeed="0.00" departDelay="0.00" arrival="108.00" arrivalLane="-809772643#1_0" arrivalPos="140.32" arrivalSpeed="15.94" duration="66.00" routeLength="334.10" waitingTime="21.00" waitingCount="1" stopTime="0.00" timeLoss="44.80" rerouteNo="0" devices="tripinfo_flow_route_140_duration_20250327_2100.7" vType="car" speedFactor="0.97" vaporized=""/>
    <tripinfo id="flow_route_142_duration_20250327_2100.8" depart="27.00" departLane="1253222187#0_0" departPos="145.82" departSpeed="0.00" departDelay="0.34" arrival="109.00" arrivalLane="683079388#0_0" arrivalPos="15.39" arrivalSpeed="14.46" duration="82.00" routeLength="667.89" waitingTime="17.00" waitingCount="1" stopTime="0.00" timeLoss="36.89" rerouteNo="0" devices="tripinfo_flow_route_142_duration_20250327_2100.8" vType="car" speedFactor="0.89" vaporized=""/>
    <tripinfo id="flow_route_140_duration_20250327_2100.9" depart="55.00" departLane="809719540#0_0" departPos="79.59" departSpeed="0.00" departDelay="1.00" arrival="109.00" arrivalLane="-809772643#1_0" arrivalPos="94.24" arrivalSpeed="14.58" duration="54.00" routeLength="322.09" waitingTime="12.00" waitingCount="1" stopTime="0.00" timeLoss="34.49" rerouteNo="0" devices="tripinfo_flow_route_140_duration_20250327_2100.9" vType="car" speedFactor="1.04" vaporized=""/>
    <tripinfo id="flow_route_142_duration_20250327_2100.6" depart="20.00" departLane="1253222187#0_0" departPos="55.68" departSpeed="0.00" departDelay="0.00" arrival="110.00" arrivalLane="683079388#0_0" arrivalPos="3.24" arrivalSpeed="15.23" duration="90.00" routeLength="745.87" waitingTime="16.00" waitingCount="1" stopTime="0.00" timeLoss="42.10" rerouteNo="0" devices="tripinfo_flow_route_142_duration_20250327_2100.6" vType="car" speedFactor="0.94" vaporized=""/>
    <tripinfo id="flow_route_143_duration_20250327_2100.1" depart="20.00" departLane="1253222187#0_0" departPos="47.05" departSpeed="0.00" departDelay="0.00" arrival="110.00" arrivalLane="1310781056_0" arrivalPos="46.65" arrivalSpeed="16.30" duration="90.00" routeLength="368.10" waitingTime="39.00" waitingCount="2" stopTime="0.00" timeLoss="66.23" rerouteNo="0" devices="tripinfo_flow_route_143_duration_20250327_2100.1" vType="car" speedFactor="0.94" vaporized=""/>
    <tripinfo id="flow_route_142_duration_20250327_2100.9" depart="30.00" departLane="1253222187#0_0" departPos="38.66" departSpeed="0.00" departDelay="0.00" arrival="111.00" arrivalLane="683079388#0_2" arrivalPos="7.95" arrivalSpeed="15.16" duration="81.00" routeLength="767.60" waitingTime="6.00" waitingCount="1" stopTime="0.00" timeLoss="30.21" rerouteNo="0" devices="tripinfo_flow_route_142_duration_20250327_2100.9" vType="car" speedFactor="0.92" vaporized=""/>
    <tripinfo id="flow_route_142_duration_20250327_2100.13" depart="45.00" departLane="1253222187#0_0" departPos="174.06" departSpeed="0.00" departDelay="1.67" arrival="112.00" arrivalLane="683079388#0_0" arrivalPos="15.88" arrivalSpeed="16.43" duration="67.00" routeLength="640.14" waitingTime="7.00" waitingCount="1" stopTime="0.00" timeLoss="28.33" rerouteNo="0" devices="tripinfo_flow_route_142_duration_20250327_2100.13" vType="car" speedFactor="1.18" vaporized=""/>
    <tripinfo id="flow_route_142_duration_20250327_2100.14" depart="47.00" departLane="1253222187#0_0" departPos="76.99" departSpeed="0.00" departDelay="0.34" arrival="114.00" arrivalLane="683079388#0_2" arrivalPos="10.77" arrivalSpeed="14.57" duration="67.00" routeLength="732.09" waitingTime="0.00" waitingCount="0" stopTime="0.00" timeLoss="17.71" rerouteNo="0" devices="tripinfo_flow_route_142_duration_20250327_2100.14" vType="car" speedFactor="0.90" vaporized=""/>
    <tripinfo id="flow_route_142_duration_20250327_2100.10" depart="34.00" departLane="1253222187#0_0" departPos="37.74" departSpeed="0.00" departDelay="0.67" arrival="115.00" arrivalLane="683079388#0_0" arrivalPos="23.96" arrivalSpeed="15.18" duration="81.00" routeLength="784.54" waitingTime="4.00" waitingCount="1" stopTime="0.00" timeLoss="29.58" rerouteNo="0" devices="tripinfo_flow_route_142_duration_20250327_2100.10" vType="car" speedFactor="0.93" vaporized=""/>
    <tripinfo id="flow_route_140_duration_20250327_2100.6" depart="36.00" departLane="809719540#0_0" departPos="84.30" departSpeed="0.00" departDelay="0.00" arrival="115.00" arrivalLane="-809772643#1_0" arrivalPos="205.16" arrivalSpeed="16.20" duration="79.00" routeLength="428.31" waitingTime="21.00" waitingCount="1" stopTime="0.00" timeLoss="52.40" rerouteNo="0" devices="tripinfo_flow_route_140_duration_20250327_2100.6" vType="car" speedFactor="1.18" vaporized=""/>
    <tripinfo id="flow_route_142_duration_20250327_2100.11" depart="37.00" departLane="1253222187#0_0" departPos="18.14" departSpeed="0.00" departDelay="0.34" arrival="115.00" arrivalLane="683079388#0_2" arrivalPos="8.75" arrivalSpeed="15.60" duration="78.00" routeLength="788.93" waitingTime="0.00" waitingCount="0" stopTime="0.00" timeLoss="30.34" rerouteNo="0" devices="tripinfo_flow_route_142_duration_20250327_2100.11" vType="car" speedFactor="1.15" vaporized=""/>
    <tripinfo id="flow_route_142_duration_20250327_2100.17" depart="57.00" departLane="1253222187#0_0" departPos="147.48" departSpeed="0.00" departDelay="0.34" arrival="115.00" arrivalLane="683079388#0_0" arrivalPos="8.85" arrivalSpeed="15.63" duration="58.00" routeLength="659.68" waitingTime="0.00" waitingCount="0" stopTime="0.00" timeLoss="17.93" rerouteNo="0" devices="tripinfo_flow_route_142_duration_20250327_2100.17" vType="car" speedFactor="1.00" vaporized=""/>
    <tripinfo id="flow_route_142_duration_20250327_2100.15" depart="52.00" departLane="1253222187#0_0" departPos="103.88" departSpeed="0.00" departDelay="2.01" arrival="117.00" arrivalLane="683079388#0_0" arrivalPos="7.82" arrivalSpeed="15.50" duration="65.00" routeLength="702.25" waitingTime="0.00" waitingCount="0" stopTime="0.00" timeLoss="20.13" rerouteNo="0" devices="tripinfo_flow_route_142_duration_20250327_2100.15" vType="car" speedFactor="0.96" vaporized=""/>
    <tripinfo id="flow_route_140_duration_20250327_2100.5" depart="30.00" departLane="809719540#0_0" departPos="45.23" departSpeed="0.00" departDelay="0.00" arrival="118.00" arrivalLane="-809772643#1_0" arrivalPos="193.33" arrivalSpeed="13.49" duration="88.00" routeLength="458.38" waitingTime="17.00" waitingCount="1" stopTime="0.00" timeLoss="54.52" rerouteNo="0" devices="tripinfo_flow_route_140_duration_20250327_2100.5" vType="car" speedFactor="0.83" vaporized=""/>
    <tripinfo id="flow_route_142_duration_20250327_2100.16" depart="55.00" departLane="1253222187#0_0" departPos="86.67" departSpeed="0.00" departDelay="1.67" arrival="118.00" arrivalLane="683079388#0_2" arrivalPos="22.56" arrivalSpeed="16.34" duration="63.00" routeLength="734.20" waitingTime="0.00" waitingCount="0" stopTime="0.00" timeLoss="18.00" rerouteNo="0" devices="tripinfo_flow_route_142_duration_20250327_2100.16" vType="car" speedFactor="1.09" vaporized=""/>
    <tripinfo id="flow_route_140_duration_20250327_2100.8" depart="48.00" departLane="809719540#0_0" departPos="6.40" departSpeed="0.00" departDelay="0.00" arrival="120.00" arrivalLane="-809772643#1_1" arrivalPos="201.97" arrivalSpeed="15.41" duration="72.00" routeLength="505.84" waitingTime="12.00" waitingCount="1" stopTime="0.00" timeLoss="41.43" rerouteNo="0" devices="tripinfo_flow_route_140_duration_20250327_2100.8" vType="car" speedFactor="1.03" vaporized=""/>
    <tripinfo id="flow_route_146_duration_20250327_2100.5" depart="50.00" departLane="683079387#1_0" departPos="6.38" departSpeed="0.00" departDelay="0.00" arrival="128.00" arrivalLane="-809772643#1_0" arrivalPos="21.65" arrivalSpeed="10.88" duration="78.00" routeLength="628.24" waitingTime="16.00" waitingCount="1" stopTime="0.00" timeLoss="39.62" rerouteNo="0" devices="tripinfo_flow_route_146_duration_20250327_2100.5" vType="car" speedFactor="1.09" vaporized=""/>
    <tripinfo id="flow_route_141_duration_20250327_2100.6" depart="45.00" departLane="809719540#0_0" departPos="157.14" departSpeed="0.00" departDelay="0.00" arrival="143.00" arrivalLane="683079387#1_1" arrivalPos="5.24" arrivalSpeed="7.57" duration="98.00" routeLength="750.68" waitingTime="23.00" waitingCount="1" stopTime="0.00" timeLoss="51.00" rerouteNo="0" devices="tripinfo_flow_route_141_duration_20250327_2100.6" vType="car" speedFactor="1.10" vaporized=""/>
    <tripinfo id="flow_route_143_duration_20250327_2100.2" depart="41.00" departLane="1253222187#0_0" departPos="44.78" departSpeed="0.00" departDelay="1.00" arrival="144.00" arrivalLane="1310781056_0" arrivalPos="5.31" arrivalSpeed="14.56" duration="103.00" routeLength="329.04" waitingTime="52.00" waitingCount="3" stopTime="0.00" timeLoss="82.85" rerouteNo="0" devices="tripinfo_flow_route_143_duration_20250327_2100.2" vType="car" speedFactor="0.99" vaporized=""/>
    <tripinfo id="flow_route_141_duration_20250327_2100.5" depart="38.00" departLane="809719540#0_0" departPos="55.65" departSpeed="0.00" departDelay="0.50" arrival="146.00" arrivalLane="683079387#1_1" arrivalPos="5.79" arrivalSpeed="6.32" duration="108.00" routeLength="845.70" waitingTime="23.00" waitingCount="1" stopTime="0.00" timeLoss="54.01" rerouteNo="0" devices="tripinfo_flow_route_141_duration_20250327_2100.5" vType="car" speedFactor="1.01" vaporized=""/>
    <tripinfo id="flow_route_141_duration_20250327_2100.7" depart="53.00" departLane="809719540#0_0" departPos="190.91" departSpeed="0.00" departDelay="0.50" arrival="148.00" arrivalLane="683079387#1_1" arrivalPos="4.34" arrivalSpeed="7.00" duration="95.00" routeLength="708.99" waitingTime="20.00" waitingCount="1" stopTime="0.00" timeLoss="49.44" rerouteNo="0" devices="tripinfo_flow_route_141_duration_20250327_2100.7" vType="car" speedFactor="1.04" vaporized=""/>
</tripinfos>
