<?xml version="1.0" encoding="UTF-8"?>

<!-- generated on 2025-05-06 21:08:11 by Eclipse SUMO sumo Version 1.20.0
<configuration xmlns:xsi="http://www.w3.org/2001/XMLSchema-instance" xsi:noNamespaceSchemaLocation="http://sumo.dlr.de/xsd/sumoConfiguration.xsd">

    <input>
        <net-file value="osm.net.xml"/>
        <route-files value="xml/route_rl_cluster_356722183_3828703848_3.rou.xml"/>
    </input>

    <output>
        <tripinfo-output value="xml/tripinfo_rl_cluster_356722183_3828703848_3.xml"/>
    </output>

    <traci_server>
        <remote-port value="46763"/>
    </traci_server>

</configuration>
-->

<tripinfos xmlns:xsi="http://www.w3.org/2001/XMLSchema-instance" xsi:noNamespaceSchemaLocation="http://sumo.dlr.de/xsd/tripinfo_file.xsd">
    <tripinfo id="flow_route_18_duration_20250327_1920.0" depart="0.00" departLane="133126040#0_0" departPos="80.59" departSpeed="0.00" departDelay="0.00" arrival="13.00" arrivalLane="1318893695#0_0" arrivalPos="9.11" arrivalSpeed="10.20" duration="13.00" routeLength="59.37" waitingTime="0.00" waitingCount="0" stopTime="0.00" timeLoss="8.82" rerouteNo="0" devices="tripinfo_flow_route_18_duration_20250327_1920.0" vType="car" speedFactor="1.01" vaporized=""/>
    <tripinfo id="flow_route_1_duration_20250327_1920.0" depart="5.00" departLane="1318793176#1_0" departPos="3.90" departSpeed="0.00" departDelay="5.00" arrival="28.00" arrivalLane="1318793173#0_1" arrivalPos="77.00" arrivalSpeed="15.48" duration="23.00" routeLength="197.00" waitingTime="0.00" waitingCount="0" stopTime="0.00" timeLoss="10.08" rerouteNo="0" devices="tripinfo_flow_route_1_duration_20250327_1920.0" vType="car" speedFactor="0.94" vaporized=""/>
    <tripinfo id="flow_route_19_duration_20250327_1920.2" depart="7.00" departLane="133126040#0_0" departPos="91.45" departSpeed="0.00" departDelay="0.69" arrival="31.00" arrivalLane="133126031#0_1" arrivalPos="159.63" arrivalSpeed="16.28" duration="24.00" routeLength="197.05" waitingTime="0.00" waitingCount="0" stopTime="0.00" timeLoss="10.42" rerouteNo="0" devices="tripinfo_flow_route_19_duration_20250327_1920.2" vType="car" speedFactor="1.10" vaporized=""/>
    <tripinfo id="flow_route_0_duration_20250327_1920.0" depart="0.00" departLane="1318793176#1_0" departPos="2.64" departSpeed="0.00" departDelay="0.00" arrival="36.00" arrivalLane="133126031#0_0" arrivalPos="296.30" arrivalSpeed="16.29" duration="36.00" routeLength="414.08" waitingTime="0.00" waitingCount="0" stopTime="0.00" timeLoss="10.46" rerouteNo="0" devices="tripinfo_flow_route_0_duration_20250327_1920.0" vType="car" speedFactor="1.06" vaporized=""/>
    <tripinfo id="flow_route_0_duration_20250327_1920.1" depart="10.00" departLane="1318793176#1_0" departPos="4.77" departSpeed="0.00" departDelay="9.88" arrival="39.00" arrivalLane="133126031#0_0" arrivalPos="150.35" arrivalSpeed="16.28" duration="29.00" routeLength="266.00" waitingTime="0.00" waitingCount="0" stopTime="0.00" timeLoss="10.78" rerouteNo="0" devices="tripinfo_flow_route_0_duration_20250327_1920.1" vType="car" speedFactor="0.89" vaporized=""/>
    <tripinfo id="flow_route_19_duration_20250327_1920.3" depart="10.00" departLane="133126040#0_0" departPos="39.64" departSpeed="0.00" departDelay="0.53" arrival="42.00" arrivalLane="133126031#0_1" arrivalPos="69.01" arrivalSpeed="12.32" duration="32.00" routeLength="158.23" waitingTime="0.00" waitingCount="0" stopTime="0.00" timeLoss="20.57" rerouteNo="0" devices="tripinfo_flow_route_19_duration_20250327_1920.3" vType="car" speedFactor="0.94" vaporized=""/>
    <tripinfo id="flow_route_0_duration_20250327_1920.4" depart="24.00" departLane="1318793176#1_0" departPos="2.03" departSpeed="0.00" departDelay="23.54" arrival="43.00" arrivalLane="133126031#0_0" arrivalPos="20.04" arrivalSpeed="13.16" duration="19.00" routeLength="138.43" waitingTime="0.00" waitingCount="0" stopTime="0.00" timeLoss="9.94" rerouteNo="0" devices="tripinfo_flow_route_0_duration_20250327_1920.4" vType="car" speedFactor="1.09" vaporized=""/>
    <tripinfo id="flow_route_19_duration_20250327_1920.0" depart="0.00" departLane="133126040#0_0" departPos="0.65" departSpeed="0.00" departDelay="0.00" arrival="45.00" arrivalLane="133126031#0_1" arrivalPos="163.43" arrivalSpeed="16.13" duration="45.00" routeLength="291.65" waitingTime="4.00" waitingCount="1" stopTime="0.00" timeLoss="25.45" rerouteNo="0" devices="tripinfo_flow_route_19_duration_20250327_1920.0" vType="car" speedFactor="1.08" vaporized=""/>
    <tripinfo id="flow_route_0_duration_20250327_1920.2" depart="14.00" departLane="1318793176#1_0" departPos="0.14" departSpeed="0.00" departDelay="13.77" arrival="46.00" arrivalLane="133126031#0_0" arrivalPos="188.31" arrivalSpeed="16.57" duration="32.00" routeLength="308.59" waitingTime="0.00" waitingCount="0" stopTime="0.00" timeLoss="11.55" rerouteNo="0" devices="tripinfo_flow_route_0_duration_20250327_1920.2" vType="car" speedFactor="0.94" vaporized=""/>
    <tripinfo id="flow_route_0_duration_20250327_1920.3" depart="21.00" departLane="1318793176#1_0" departPos="6.79" departSpeed="0.00" departDelay="20.65" arrival="46.00" arrivalLane="133126031#0_0" arrivalPos="87.96" arrivalSpeed="15.82" duration="25.00" routeLength="201.60" waitingTime="0.00" waitingCount="0" stopTime="0.00" timeLoss="10.27" rerouteNo="0" devices="tripinfo_flow_route_0_duration_20250327_1920.3" vType="car" speedFactor="0.86" vaporized=""/>
    <tripinfo id="flow_route_19_duration_20250327_1920.1" depart="4.00" departLane="133126040#0_0" departPos="19.54" departSpeed="0.00" departDelay="0.84" arrival="48.00" arrivalLane="133126031#0_1" arrivalPos="104.37" arrivalSpeed="14.66" duration="44.00" routeLength="213.70" waitingTime="2.00" waitingCount="2" stopTime="0.00" timeLoss="30.22" rerouteNo="0" devices="tripinfo_flow_route_19_duration_20250327_1920.1" vType="car" speedFactor="1.14" vaporized=""/>
    <tripinfo id="flow_route_19_duration_20250327_1920.10" depart="32.00" departLane="133126040#0_0" departPos="61.70" departSpeed="0.00" departDelay="0.43" arrival="51.00" arrivalLane="133126031#0_1" arrivalPos="26.40" arrivalSpeed="9.42" duration="19.00" routeLength="93.57" waitingTime="0.00" waitingCount="0" stopTime="0.00" timeLoss="11.16" rerouteNo="0" devices="tripinfo_flow_route_19_duration_20250327_1920.10" vType="car" speedFactor="0.88" vaporized=""/>
    <tripinfo id="flow_route_19_duration_20250327_1920.6" depart="19.00" departLane="133126040#0_0" departPos="64.47" departSpeed="0.00" departDelay="0.06" arrival="54.00" arrivalLane="133126031#0_1" arrivalPos="227.04" arrivalSpeed="16.27" duration="35.00" routeLength="291.44" waitingTime="0.00" waitingCount="0" stopTime="0.00" timeLoss="16.05" rerouteNo="0" devices="tripinfo_flow_route_19_duration_20250327_1920.6" vType="car" speedFactor="0.98" vaporized=""/>
    <tripinfo id="flow_route_19_duration_20250327_1920.5" depart="16.00" departLane="133126040#0_0" departPos="83.75" departSpeed="0.00" departDelay="0.22" arrival="55.00" arrivalLane="133126031#0_1" arrivalPos="304.89" arrivalSpeed="16.42" duration="39.00" routeLength="350.01" waitingTime="0.00" waitingCount="0" stopTime="0.00" timeLoss="17.19" rerouteNo="0" devices="tripinfo_flow_route_19_duration_20250327_1920.5" vType="car" speedFactor="1.24" vaporized=""/>
    <tripinfo id="flow_route_19_duration_20250327_1920.4" depart="13.00" departLane="133126040#0_0" departPos="24.00" departSpeed="0.00" departDelay="0.37" arrival="58.00" arrivalLane="133126031#0_1" arrivalPos="192.61" arrivalSpeed="16.35" duration="45.00" routeLength="297.47" waitingTime="0.00" waitingCount="0" stopTime="0.00" timeLoss="25.10" rerouteNo="0" devices="tripinfo_flow_route_19_duration_20250327_1920.4" vType="car" speedFactor="0.94" vaporized=""/>
    <tripinfo id="flow_route_19_duration_20250327_1920.9" depart="29.00" departLane="133126040#0_0" departPos="14.06" departSpeed="0.00" departDelay="0.59" arrival="58.00" arrivalLane="133126031#0_1" arrivalPos="53.06" arrivalSpeed="11.24" duration="29.00" routeLength="167.87" waitingTime="0.00" waitingCount="0" stopTime="0.00" timeLoss="16.24" rerouteNo="0" devices="tripinfo_flow_route_19_duration_20250327_1920.9" vType="car" speedFactor="0.86" vaporized=""/>
    <tripinfo id="flow_route_19_duration_20250327_1920.7" depart="23.00" departLane="133126040#0_0" departPos="28.02" departSpeed="0.00" departDelay="0.90" arrival="59.00" arrivalLane="133126031#0_1" arrivalPos="172.60" arrivalSpeed="16.22" duration="36.00" routeLength="273.44" waitingTime="0.00" waitingCount="0" stopTime="0.00" timeLoss="16.43" rerouteNo="0" devices="tripinfo_flow_route_19_duration_20250327_1920.7" vType="car" speedFactor="0.87" vaporized=""/>
    <tripinfo id="flow_route_0_duration_20250327_1920.6" depart="37.00" departLane="1318793176#1_0" departPos="9.34" departSpeed="0.00" departDelay="36.30" arrival="61.00" arrivalLane="133126031#0_0" arrivalPos="107.07" arrivalSpeed="16.53" duration="24.00" routeLength="218.15" waitingTime="0.00" waitingCount="0" stopTime="0.00" timeLoss="10.14" rerouteNo="0" devices="tripinfo_flow_route_0_duration_20250327_1920.6" vType="car" speedFactor="1.05" vaporized=""/>
    <tripinfo id="flow_route_19_duration_20250327_1920.8" depart="26.00" departLane="133126040#0_0" departPos="21.47" departSpeed="0.00" departDelay="0.74" arrival="61.00" arrivalLane="133126031#0_1" arrivalPos="132.61" arrivalSpeed="15.73" duration="35.00" routeLength="240.00" waitingTime="0.00" waitingCount="0" stopTime="0.00" timeLoss="18.85" rerouteNo="0" devices="tripinfo_flow_route_19_duration_20250327_1920.8" vType="car" speedFactor="1.12" vaporized=""/>
    <tripinfo id="flow_route_0_duration_20250327_1920.8" depart="44.00" departLane="1318793176#1_0" departPos="5.18" departSpeed="0.00" departDelay="43.07" arrival="63.00" arrivalLane="133126031#0_0" arrivalPos="15.36" arrivalSpeed="12.15" duration="19.00" routeLength="130.60" waitingTime="0.00" waitingCount="0" stopTime="0.00" timeLoss="10.14" rerouteNo="0" devices="tripinfo_flow_route_0_duration_20250327_1920.8" vType="car" speedFactor="0.99" vaporized=""/>
    <tripinfo id="flow_route_0_duration_20250327_1920.5" depart="30.00" departLane="1318793176#1_0" departPos="0.13" departSpeed="0.00" departDelay="29.42" arrival="67.00" arrivalLane="133126031#0_0" arrivalPos="291.18" arrivalSpeed="16.28" duration="37.00" routeLength="411.46" waitingTime="0.00" waitingCount="0" stopTime="0.00" timeLoss="10.89" rerouteNo="0" devices="tripinfo_flow_route_0_duration_20250327_1920.5" vType="car" speedFactor="1.03" vaporized=""/>
    <tripinfo id="flow_route_19_duration_20250327_1920.14" depart="45.00" departLane="133126040#0_0" departPos="89.09" departSpeed="0.00" departDelay="0.80" arrival="69.00" arrivalLane="133126031#0_1" arrivalPos="174.48" arrivalSpeed="16.17" duration="24.00" routeLength="214.26" waitingTime="0.00" waitingCount="0" stopTime="0.00" timeLoss="9.78" rerouteNo="0" devices="tripinfo_flow_route_19_duration_20250327_1920.14" vType="car" speedFactor="1.03" vaporized=""/>
    <tripinfo id="flow_route_0_duration_20250327_1920.7" depart="38.00" departLane="1318793176#1_0" departPos="1.41" departSpeed="0.00" departDelay="37.19" arrival="71.00" arrivalLane="133126031#0_0" arrivalPos="227.33" arrivalSpeed="16.53" duration="33.00" routeLength="346.34" waitingTime="0.00" waitingCount="0" stopTime="0.00" timeLoss="10.97" rerouteNo="0" devices="tripinfo_flow_route_0_duration_20250327_1920.7" vType="car" speedFactor="1.12" vaporized=""/>
    <tripinfo id="flow_route_19_duration_20250327_1920.12" depart="38.00" departLane="133126040#0_0" departPos="64.23" departSpeed="0.00" departDelay="0.12" arrival="71.00" arrivalLane="133126031#0_1" arrivalPos="175.68" arrivalSpeed="16.43" duration="33.00" routeLength="240.31" waitingTime="2.00" waitingCount="2" stopTime="0.00" timeLoss="16.90" rerouteNo="0" devices="tripinfo_flow_route_19_duration_20250327_1920.12" vType="car" speedFactor="1.02" vaporized=""/>
    <tripinfo id="flow_route_19_duration_20250327_1920.13" depart="42.00" departLane="133126040#0_0" departPos="51.02" departSpeed="0.00" departDelay="0.96" arrival="71.00" arrivalLane="133126031#0_1" arrivalPos="119.18" arrivalSpeed="15.54" duration="29.00" routeLength="197.02" waitingTime="0.00" waitingCount="0" stopTime="0.00" timeLoss="15.09" rerouteNo="0" devices="tripinfo_flow_route_19_duration_20250327_1920.13" vType="car" speedFactor="0.95" vaporized=""/>
    <tripinfo id="flow_route_19_duration_20250327_1920.16" depart="51.00" departLane="133126040#0_0" departPos="76.99" departSpeed="0.00" departDelay="0.49" arrival="73.00" arrivalLane="133126031#0_1" arrivalPos="125.58" arrivalSpeed="16.21" duration="22.00" routeLength="177.46" waitingTime="0.00" waitingCount="0" stopTime="0.00" timeLoss="9.78" rerouteNo="0" devices="tripinfo_flow_route_19_duration_20250327_1920.16" vType="car" speedFactor="1.14" vaporized=""/>
    <tripinfo id="flow_route_19_duration_20250327_1920.15" depart="48.00" departLane="133126040#0_0" departPos="14.13" departSpeed="0.00" departDelay="0.65" arrival="78.00" arrivalLane="133126031#0_1" arrivalPos="55.97" arrivalSpeed="11.61" duration="30.00" routeLength="170.71" waitingTime="0.00" waitingCount="0" stopTime="0.00" timeLoss="17.57" rerouteNo="0" devices="tripinfo_flow_route_19_duration_20250327_1920.15" vType="car" speedFactor="0.88" vaporized=""/>
    <tripinfo id="flow_route_19_duration_20250327_1920.18" depart="57.00" departLane="133126040#0_0" departPos="95.73" departSpeed="0.00" departDelay="0.17" arrival="81.00" arrivalLane="133126031#0_1" arrivalPos="161.90" arrivalSpeed="16.34" duration="24.00" routeLength="195.05" waitingTime="0.00" waitingCount="0" stopTime="0.00" timeLoss="10.48" rerouteNo="0" devices="tripinfo_flow_route_19_duration_20250327_1920.18" vType="car" speedFactor="0.95" vaporized=""/>
    <tripinfo id="flow_route_48_duration_20250327_1920.0" depart="3.00" departLane="380351865#0_0" departPos="8.41" departSpeed="0.00" departDelay="3.00" arrival="84.00" arrivalLane="133126031#0_0" arrivalPos="14.50" arrivalSpeed="7.84" duration="81.00" routeLength="173.26" waitingTime="48.00" waitingCount="1" stopTime="0.00" timeLoss="64.12" rerouteNo="0" devices="tripinfo_flow_route_48_duration_20250327_1920.0" vType="car" speedFactor="0.83" vaporized=""/>
    <tripinfo id="flow_route_19_duration_20250327_1920.11" depart="35.00" departLane="133126040#0_0" departPos="7.21" departSpeed="0.00" departDelay="0.27" arrival="84.00" arrivalLane="133126031#0_1" arrivalPos="186.11" arrivalSpeed="16.23" duration="49.00" routeLength="307.77" waitingTime="1.00" waitingCount="1" stopTime="0.00" timeLoss="29.45" rerouteNo="0" devices="tripinfo_flow_route_19_duration_20250327_1920.11" vType="car" speedFactor="1.08" vaporized=""/>
    <tripinfo id="flow_route_0_duration_20250327_1920.10" depart="58.00" departLane="1318793176#1_0" departPos="0.58" departSpeed="0.00" departDelay="56.84" arrival="88.00" arrivalLane="133126031#0_0" arrivalPos="131.88" arrivalSpeed="16.47" duration="30.00" routeLength="251.72" waitingTime="0.00" waitingCount="0" stopTime="0.00" timeLoss="13.82" rerouteNo="0" devices="tripinfo_flow_route_0_duration_20250327_1920.10" vType="car" speedFactor="1.16" vaporized=""/>
    <tripinfo id="flow_route_47_duration_20250327_1920.0" depart="0.00" departLane="380351865#0_0" departPos="11.49" departSpeed="0.00" departDelay="0.00" arrival="89.00" arrivalLane="1318793173#0_1" arrivalPos="63.76" arrivalSpeed="11.72" duration="89.00" routeLength="213.71" waitingTime="54.00" waitingCount="1" stopTime="0.00" timeLoss="71.91" rerouteNo="0" devices="tripinfo_flow_route_47_duration_20250327_1920.0" vType="car" speedFactor="1.03" vaporized=""/>
    <tripinfo id="flow_route_48_duration_20250327_1920.2" depart="16.00" departLane="380351865#0_0" departPos="6.09" departSpeed="0.00" departDelay="14.65" arrival="89.00" arrivalLane="133126031#0_1" arrivalPos="43.02" arrivalSpeed="10.72" duration="73.00" routeLength="204.10" waitingTime="38.00" waitingCount="1" stopTime="0.00" timeLoss="58.52" rerouteNo="0" devices="tripinfo_flow_route_48_duration_20250327_1920.2" vType="car" speedFactor="1.18" vaporized=""/>
    <tripinfo id="flow_route_0_duration_20250327_1920.9" depart="53.00" departLane="1318793176#1_0" departPos="4.04" departSpeed="0.00" departDelay="51.96" arrival="90.00" arrivalLane="133126031#0_0" arrivalPos="295.18" arrivalSpeed="16.59" duration="37.00" routeLength="411.56" waitingTime="0.00" waitingCount="0" stopTime="0.00" timeLoss="10.65" rerouteNo="0" devices="tripinfo_flow_route_0_duration_20250327_1920.9" vType="car" speedFactor="0.94" vaporized=""/>
    <tripinfo id="flow_route_47_duration_20250327_1920.1" depart="29.00" departLane="380351865#0_0" departPos="0.55" departSpeed="0.00" departDelay="25.25" arrival="93.00" arrivalLane="1318793173#0_1" arrivalPos="36.64" arrivalSpeed="11.71" duration="64.00" routeLength="197.52" waitingTime="28.00" waitingCount="1" stopTime="0.00" timeLoss="47.68" rerouteNo="0" devices="tripinfo_flow_route_47_duration_20250327_1920.1" vType="car" speedFactor="1.02" vaporized=""/>
    <tripinfo id="flow_route_48_duration_20250327_1920.5" depart="35.00" departLane="380351865#0_0" departPos="16.43" departSpeed="0.00" departDelay="31.63" arrival="94.00" arrivalLane="133126031#0_1" arrivalPos="28.61" arrivalSpeed="11.73" duration="59.00" routeLength="179.35" waitingTime="25.00" waitingCount="1" stopTime="0.00" timeLoss="44.11" rerouteNo="0" devices="tripinfo_flow_route_48_duration_20250327_1920.5" vType="car" speedFactor="0.97" vaporized=""/>
    <tripinfo id="flow_route_48_duration_20250327_1920.9" depart="51.00" departLane="380351865#0_0" departPos="0.30" departSpeed="0.00" departDelay="44.93" arrival="97.00" arrivalLane="133126031#0_1" arrivalPos="14.16" arrivalSpeed="11.71" duration="46.00" routeLength="181.03" waitingTime="11.00" waitingCount="2" stopTime="0.00" timeLoss="31.39" rerouteNo="0" devices="tripinfo_flow_route_48_duration_20250327_1920.9" vType="car" speedFactor="1.06" vaporized=""/>
    <tripinfo id="flow_route_49_duration_20250327_1920.0" depart="9.00" departLane="380351865#0_0" departPos="0.20" departSpeed="0.00" departDelay="9.00" arrival="98.00" arrivalLane="1318893695#0_0" arrivalPos="148.83" arrivalSpeed="16.39" duration="89.00" routeLength="292.51" waitingTime="44.00" waitingCount="1" stopTime="0.00" timeLoss="65.82" rerouteNo="0" devices="tripinfo_flow_route_49_duration_20250327_1920.0" vType="car" speedFactor="1.05" vaporized=""/>
    <tripinfo id="flow_route_47_duration_20250327_1920.2" depart="59.00" departLane="380351865#0_0" departPos="12.85" departSpeed="0.00" departDelay="51.50" arrival="98.00" arrivalLane="1318793173#0_1" arrivalPos="11.12" arrivalSpeed="11.37" duration="39.00" routeLength="159.71" waitingTime="8.00" waitingCount="1" stopTime="0.00" timeLoss="25.12" rerouteNo="0" devices="tripinfo_flow_route_47_duration_20250327_1920.2" vType="car" speedFactor="1.01" vaporized=""/>
    <tripinfo id="flow_route_48_duration_20250327_1920.1" depart="10.00" departLane="380351865#0_0" departPos="12.34" departSpeed="0.00" departDelay="9.33" arrival="101.00" arrivalLane="133126031#0_0" arrivalPos="210.66" arrivalSpeed="16.24" duration="91.00" routeLength="365.49" waitingTime="45.00" waitingCount="1" stopTime="0.00" timeLoss="63.95" rerouteNo="0" devices="tripinfo_flow_route_48_duration_20250327_1920.1" vType="car" speedFactor="0.94" vaporized=""/>
    <tripinfo id="flow_route_48_duration_20250327_1920.3" depart="20.00" departLane="380351865#0_0" departPos="1.03" departSpeed="0.00" departDelay="17.98" arrival="103.00" arrivalLane="133126031#0_1" arrivalPos="229.99" arrivalSpeed="16.52" duration="83.00" routeLength="396.14" waitingTime="35.00" waitingCount="1" stopTime="0.00" timeLoss="56.16" rerouteNo="0" devices="tripinfo_flow_route_48_duration_20250327_1920.3" vType="car" speedFactor="1.09" vaporized=""/>
    <tripinfo id="flow_route_48_duration_20250327_1920.7" depart="40.00" departLane="380351865#0_0" departPos="1.17" departSpeed="0.00" departDelay="35.28" arrival="104.00" arrivalLane="133126031#0_1" arrivalPos="138.73" arrivalSpeed="16.59" duration="64.00" routeLength="304.73" waitingTime="22.00" waitingCount="1" stopTime="0.00" timeLoss="41.36" rerouteNo="0" devices="tripinfo_flow_route_48_duration_20250327_1920.7" vType="car" speedFactor="1.06" vaporized=""/>
    <tripinfo id="flow_route_48_duration_20250327_1920.14" depart="81.00" departLane="380351865#0_0" departPos="3.48" departSpeed="0.00" departDelay="71.56" arrival="106.00" arrivalLane="133126031#0_1" arrivalPos="51.00" arrivalSpeed="14.77" duration="25.00" routeLength="214.69" waitingTime="0.00" waitingCount="0" stopTime="0.00" timeLoss="9.47" rerouteNo="0" devices="tripinfo_flow_route_48_duration_20250327_1920.14" vType="car" speedFactor="1.13" vaporized=""/>
    <tripinfo id="flow_route_0_duration_20250327_1920.11" depart="63.00" departLane="1318793176#1_0" departPos="2.94" departSpeed="0.00" departDelay="61.72" arrival="107.00" arrivalLane="133126031#0_0" arrivalPos="181.01" arrivalSpeed="16.43" duration="44.00" routeLength="298.49" waitingTime="3.00" waitingCount="1" stopTime="0.00" timeLoss="25.18" rerouteNo="0" devices="tripinfo_flow_route_0_duration_20250327_1920.11" vType="car" speedFactor="1.02" vaporized=""/>
    <tripinfo id="flow_route_49_duration_20250327_1920.2" depart="50.00" departLane="380351865#0_0" departPos="7.19" departSpeed="0.00" departDelay="44.29" arrival="107.00" arrivalLane="1318893695#0_0" arrivalPos="59.34" arrivalSpeed="10.61" duration="57.00" routeLength="196.02" waitingTime="15.00" waitingCount="1" stopTime="0.00" timeLoss="39.86" rerouteNo="0" devices="tripinfo_flow_route_49_duration_20250327_1920.2" vType="car" speedFactor="1.00" vaporized=""/>
    <tripinfo id="flow_route_48_duration_20250327_1920.12" depart="67.00" departLane="380351865#0_0" departPos="10.21" departSpeed="0.00" departDelay="58.91" arrival="107.00" arrivalLane="133126031#0_0" arrivalPos="0.28" arrivalSpeed="8.74" duration="40.00" routeLength="157.25" waitingTime="3.00" waitingCount="1" stopTime="0.00" timeLoss="23.97" rerouteNo="0" devices="tripinfo_flow_route_48_duration_20250327_1920.12" vType="car" speedFactor="0.82" vaporized=""/>
    <tripinfo id="flow_route_48_duration_20250327_1920.10" depart="57.00" departLane="380351865#0_0" departPos="0.77" departSpeed="0.00" departDelay="50.26" arrival="108.00" arrivalLane="133126031#0_1" arrivalPos="129.91" arrivalSpeed="16.43" duration="51.00" routeLength="296.31" waitingTime="7.00" waitingCount="1" stopTime="0.00" timeLoss="27.96" rerouteNo="0" devices="tripinfo_flow_route_48_duration_20250327_1920.10" vType="car" speedFactor="0.96" vaporized=""/>
    <tripinfo id="flow_route_49_duration_20250327_1920.1" depart="26.00" departLane="380351865#0_0" departPos="12.52" departSpeed="0.00" departDelay="23.14" arrival="110.00" arrivalLane="1318893695#0_0" arrivalPos="192.22" arrivalSpeed="16.35" duration="84.00" routeLength="323.58" waitingTime="35.00" waitingCount="1" stopTime="0.00" timeLoss="59.95" rerouteNo="0" devices="tripinfo_flow_route_49_duration_20250327_1920.1" vType="car" speedFactor="1.04" vaporized=""/>
    <tripinfo id="flow_route_48_duration_20250327_1920.6" depart="35.00" departLane="380351865#0_0" departPos="0.43" departSpeed="0.00" departDelay="30.96" arrival="113.00" arrivalLane="133126031#0_0" arrivalPos="194.55" arrivalSpeed="16.15" duration="78.00" routeLength="361.29" waitingTime="24.00" waitingCount="1" stopTime="0.00" timeLoss="50.89" rerouteNo="0" devices="tripinfo_flow_route_48_duration_20250327_1920.6" vType="car" speedFactor="0.94" vaporized=""/>
    <tripinfo id="flow_route_48_duration_20250327_1920.15" depart="85.00" departLane="380351865#0_0" departPos="0.01" departSpeed="0.00" departDelay="74.89" arrival="113.00" arrivalLane="133126031#0_1" arrivalPos="106.69" arrivalSpeed="16.28" duration="28.00" routeLength="273.86" waitingTime="0.00" waitingCount="0" stopTime="0.00" timeLoss="8.38" rerouteNo="0" devices="tripinfo_flow_route_48_duration_20250327_1920.15" vType="car" speedFactor="1.12" vaporized=""/>
    <tripinfo id="flow_route_48_duration_20250327_1920.13" depart="71.00" departLane="380351865#0_0" departPos="4.15" departSpeed="0.00" departDelay="62.24" arrival="115.00" arrivalLane="133126031#0_1" arrivalPos="219.03" arrivalSpeed="16.30" duration="44.00" routeLength="382.05" waitingTime="0.00" waitingCount="0" stopTime="0.00" timeLoss="18.16" rerouteNo="0" devices="tripinfo_flow_route_48_duration_20250327_1920.13" vType="car" speedFactor="1.12" vaporized=""/>
    <tripinfo id="flow_route_0_duration_20250327_1920.13" depart="71.00" departLane="1318793176#1_0" departPos="0.64" departSpeed="0.00" departDelay="69.49" arrival="117.00" arrivalLane="133126031#0_0" arrivalPos="10.78" arrivalSpeed="7.56" duration="46.00" routeLength="130.56" waitingTime="11.00" waitingCount="2" stopTime="0.00" timeLoss="37.32" rerouteNo="0" devices="tripinfo_flow_route_0_duration_20250327_1920.13" vType="car" speedFactor="0.97" vaporized=""/>
    <tripinfo id="flow_route_48_duration_20250327_1920.4" depart="23.00" departLane="380351865#0_0" departPos="16.93" departSpeed="0.00" departDelay="20.30" arrival="117.00" arrivalLane="133126031#0_0" arrivalPos="310.95" arrivalSpeed="16.19" duration="94.00" routeLength="461.19" waitingTime="35.00" waitingCount="1" stopTime="0.00" timeLoss="62.41" rerouteNo="0" devices="tripinfo_flow_route_48_duration_20250327_1920.4" vType="car" speedFactor="1.04" vaporized=""/>
    <tripinfo id="flow_route_1_duration_20250327_1920.3" depart="93.00" departLane="1318793176#1_0" departPos="0.82" departSpeed="0.00" departDelay="91.98" arrival="121.00" arrivalLane="1318793173#0_1" arrivalPos="3.22" arrivalSpeed="6.75" duration="28.00" routeLength="126.30" waitingTime="0.00" waitingCount="0" stopTime="0.00" timeLoss="19.81" rerouteNo="0" devices="tripinfo_flow_route_1_duration_20250327_1920.3" vType="car" speedFactor="0.95" vaporized=""/>
    <tripinfo id="flow_route_0_duration_20250327_1920.12" depart="68.00" departLane="1318793176#1_0" departPos="5.10" departSpeed="0.00" departDelay="66.61" arrival="122.00" arrivalLane="133126031#0_0" arrivalPos="78.72" arrivalSpeed="11.97" duration="54.00" routeLength="194.04" waitingTime="14.00" waitingCount="3" stopTime="0.00" timeLoss="41.59" rerouteNo="0" devices="tripinfo_flow_route_0_duration_20250327_1920.12" vType="car" speedFactor="1.01" vaporized=""/>
    <tripinfo id="flow_route_1_duration_20250327_1920.1" depart="49.00" departLane="1318793176#1_0" departPos="9.71" departSpeed="0.00" departDelay="48.66" arrival="123.00" arrivalLane="1318793173#0_1" arrivalPos="55.44" arrivalSpeed="11.50" duration="74.00" routeLength="169.63" waitingTime="44.00" waitingCount="1" stopTime="0.00" timeLoss="62.96" rerouteNo="0" devices="tripinfo_flow_route_1_duration_20250327_1920.1" vType="car" speedFactor="0.93" vaporized=""/>
    <tripinfo id="flow_route_1_duration_20250327_1920.2" depart="49.00" departLane="1318793176#1_0" departPos="0.04" departSpeed="0.00" departDelay="48.32" arrival="123.00" arrivalLane="1318793173#0_2" arrivalPos="33.18" arrivalSpeed="9.67" duration="74.00" routeLength="157.04" waitingTime="40.00" waitingCount="1" stopTime="0.00" timeLoss="62.65" rerouteNo="0" devices="tripinfo_flow_route_1_duration_20250327_1920.2" vType="car" speedFactor="0.88" vaporized=""/>
    <tripinfo id="flow_route_48_duration_20250327_1920.8" depart="44.00" departLane="380351865#0_0" departPos="0.88" departSpeed="0.00" departDelay="38.61" arrival="123.00" arrivalLane="133126031#0_0" arrivalPos="323.07" arrivalSpeed="16.46" duration="79.00" routeLength="489.36" waitingTime="18.00" waitingCount="1" stopTime="0.00" timeLoss="44.35" rerouteNo="0" devices="tripinfo_flow_route_48_duration_20250327_1920.8" vType="car" speedFactor="0.98" vaporized=""/>
    <tripinfo id="flow_route_49_duration_20250327_1920.3" depart="77.00" departLane="380351865#0_0" departPos="6.80" departSpeed="0.00" departDelay="68.43" arrival="123.00" arrivalLane="1318893695#0_0" arrivalPos="183.95" arrivalSpeed="16.10" duration="46.00" routeLength="321.03" waitingTime="0.00" waitingCount="0" stopTime="0.00" timeLoss="21.39" rerouteNo="0" devices="tripinfo_flow_route_49_duration_20250327_1920.3" vType="car" speedFactor="1.01" vaporized=""/>
    <tripinfo id="flow_route_48_duration_20250327_1920.11" depart="61.00" departLane="380351865#0_0" departPos="3.63" departSpeed="0.00" departDelay="53.59" arrival="124.00" arrivalLane="133126031#0_0" arrivalPos="284.85" arrivalSpeed="16.52" duration="63.00" routeLength="448.39" waitingTime="6.00" waitingCount="1" stopTime="0.00" timeLoss="32.69" rerouteNo="0" devices="tripinfo_flow_route_48_duration_20250327_1920.11" vType="car" speedFactor="1.10" vaporized=""/>
    <tripinfo id="flow_route_1_duration_20250327_1920.5" depart="102.00" departLane="1318793176#1_0" departPos="3.28" departSpeed="0.00" departDelay="100.30" arrival="126.00" arrivalLane="1318793173#0_1" arrivalPos="35.80" arrivalSpeed="10.51" duration="24.00" routeLength="156.42" waitingTime="0.00" waitingCount="0" stopTime="0.00" timeLoss="13.90" rerouteNo="0" devices="tripinfo_flow_route_1_duration_20250327_1920.5" vType="car" speedFactor="0.93" vaporized=""/>
    <tripinfo id="flow_route_0_duration_20250327_1920.14" depart="77.00" departLane="1318793176#1_0" departPos="6.84" departSpeed="0.00" departDelay="75.38" arrival="127.00" arrivalLane="133126031#0_0" arrivalPos="100.35" arrivalSpeed="14.52" duration="50.00" routeLength="213.93" waitingTime="11.00" waitingCount="2" stopTime="0.00" timeLoss="35.11" rerouteNo="0" devices="tripinfo_flow_route_0_duration_20250327_1920.14" vType="car" speedFactor="0.89" vaporized=""/>