<?xml version="1.0" encoding="UTF-8"?>

<!-- generated on 2025-05-06 21:09:16 by Eclipse SUMO sumo Version 1.20.0
<configuration xmlns:xsi="http://www.w3.org/2001/XMLSchema-instance" xsi:noNamespaceSchemaLocation="http://sumo.dlr.de/xsd/sumoConfiguration.xsd">

    <input>
        <net-file value="osm.net.xml"/>
        <route-files value="xml/route_static_cluster_4110471701_632031939_9.rou.xml"/>
    </input>

    <output>
        <tripinfo-output value="xml/tripinfo_static_cluster_4110471701_632031939_9.xml"/>
    </output>

    <traci_server>
        <remote-port value="44725"/>
    </traci_server>

</configuration>
-->

<tripinfos xmlns:xsi="http://www.w3.org/2001/XMLSchema-instance" xsi:noNamespaceSchemaLocation="http://sumo.dlr.de/xsd/tripinfo_file.xsd">
    <tripinfo id="flow_route_83_duration_20250327_2010.0" depart="0.00" departLane="423956929_0" departPos="101.16" departSpeed="0.00" departDelay="0.00" arrival="17.00" arrivalLane="186407685_0" arrivalPos="8.05" arrivalSpeed="6.86" duration="17.00" routeLength="101.45" waitingTime="0.00" waitingCount="0" stopTime="0.00" timeLoss="10.18" rerouteNo="0" devices="tripinfo_flow_route_83_duration_20250327_2010.0" vType="car" speedFactor="1.01" vaporized=""/>
    <tripinfo id="flow_route_62_duration_20250327_2010.0" depart="0.00" departLane="409155823_0" departPos="65.43" departSpeed="0.00" departDelay="0.00" arrival="23.00" arrivalLane="1091883842_0" arrivalPos="165.47" arrivalSpeed="16.29" duration="23.00" routeLength="205.45" waitingTime="0.00" waitingCount="0" stopTime="0.00" timeLoss="10.50" rerouteNo="0" devices="tripinfo_flow_route_62_duration_20250327_2010.0" vType="car" speedFactor="1.06" vaporized=""/>
    <tripinfo id="flow_route_82_duration_20250327_2010.0" depart="0.00" departLane="423956929_0" departPos="45.92" departSpeed="0.00" departDelay="0.00" arrival="24.00" arrivalLane="186407684#0_0" arrivalPos="62.79" arrivalSpeed="15.18" duration="24.00" routeLength="219.95" waitingTime="0.00" waitingCount="0" stopTime="0.00" timeLoss="8.99" rerouteNo="0" devices="tripinfo_flow_route_82_duration_20250327_2010.0" vType="car" speedFactor="0.94" vaporized=""/>
    <tripinfo id="flow_route_62_duration_20250327_2010.1" depart="10.00" departLane="409155823_0" departPos="4.07" departSpeed="0.00" departDelay="0.00" arrival="32.00" arrivalLane="1091883842_1" arrivalPos="59.79" arrivalSpeed="14.27" duration="22.00" routeLength="161.14" waitingTime="0.00" waitingCount="0" stopTime="0.00" timeLoss="10.50" rerouteNo="0" devices="tripinfo_flow_route_62_duration_20250327_2010.1" vType="car" speedFactor="0.86" vaporized=""/>
    <tripinfo id="flow_route_62_duration_20250327_2010.2" depart="20.00" departLane="409155823_0" departPos="67.30" departSpeed="0.00" departDelay="0.00" arrival="35.00" arrivalLane="1091883842_0" arrivalPos="43.96" arrivalSpeed="11.42" duration="15.00" routeLength="82.07" waitingTime="0.00" waitingCount="0" stopTime="0.00" timeLoss="9.55" rerouteNo="0" devices="tripinfo_flow_route_62_duration_20250327_2010.2" vType="car" speedFactor="0.99" vaporized=""/>
    <tripinfo id="flow_route_88_duration_20250327_2010.2" depart="8.00" departLane="430416184_0" departPos="253.21" departSpeed="0.00" departDelay="0.00" arrival="46.00" arrivalLane="186407684#0_1" arrivalPos="23.31" arrivalSpeed="9.91" duration="38.00" routeLength="87.73" waitingTime="13.00" waitingCount="2" stopTime="0.00" timeLoss="31.33" rerouteNo="0" devices="tripinfo_flow_route_88_duration_20250327_2010.2" vType="car" speedFactor="0.94" vaporized=""/>
    <tripinfo id="flow_route_88_duration_20250327_2010.3" depart="12.00" departLane="430416184_0" departPos="271.56" departSpeed="0.00" departDelay="0.00" arrival="47.00" arrivalLane="186407684#0_1" arrivalPos="55.83" arrivalSpeed="11.13" duration="35.00" routeLength="101.90" waitingTime="13.00" waitingCount="1" stopTime="0.00" timeLoss="27.92" rerouteNo="0" devices="tripinfo_flow_route_88_duration_20250327_2010.3" vType="car" speedFactor="1.03" vaporized=""/>
    <tripinfo id="flow_route_86_duration_20250327_2010.0" depart="0.00" departLane="430416184_0" departPos="215.48" departSpeed="0.00" departDelay="0.00" arrival="48.00" arrivalLane="186407685_1" arrivalPos="87.02" arrivalSpeed="13.68" duration="48.00" routeLength="195.42" waitingTime="14.00" waitingCount="1" stopTime="0.00" timeLoss="35.94" rerouteNo="0" devices="tripinfo_flow_route_86_duration_20250327_2010.0" vType="car" speedFactor="1.08" vaporized=""/>
    <tripinfo id="flow_route_88_duration_20250327_2010.6" depart="25.00" departLane="430416184_0" departPos="278.94" departSpeed="0.00" departDelay="1.00" arrival="50.00" arrivalLane="186407684#0_1" arrivalPos="11.40" arrivalSpeed="8.54" duration="25.00" routeLength="50.10" waitingTime="10.00" waitingCount="2" stopTime="0.00" timeLoss="20.63" rerouteNo="0" devices="tripinfo_flow_route_88_duration_20250327_2010.6" vType="car" speedFactor="0.94" vaporized=""/>
    <tripinfo id="flow_route_88_duration_20250327_2010.0" depart="0.00" departLane="430416184_0" departPos="194.63" departSpeed="0.00" departDelay="0.00" arrival="51.00" arrivalLane="186407684#0_1" arrivalPos="3.84" arrivalSpeed="8.35" duration="51.00" routeLength="126.85" waitingTime="12.00" waitingCount="1" stopTime="0.00" timeLoss="41.49" rerouteNo="0" devices="tripinfo_flow_route_88_duration_20250327_2010.0" vType="car" speedFactor="0.83" vaporized=""/>
    <tripinfo id="flow_route_87_duration_20250327_2010.2" depart="15.00" departLane="430416184_0" departPos="256.69" departSpeed="0.00" departDelay="0.00" arrival="51.00" arrivalLane="1091883842_0" arrivalPos="153.08" arrivalSpeed="15.17" duration="36.00" routeLength="196.84" waitingTime="5.00" waitingCount="1" stopTime="0.00" timeLoss="23.16" rerouteNo="0" devices="tripinfo_flow_route_87_duration_20250327_2010.2" vType="car" speedFactor="1.05" vaporized=""/>
    <tripinfo id="flow_route_87_duration_20250327_2010.4" depart="32.00" departLane="430416184_0" departPos="200.01" departSpeed="0.00" departDelay="2.00" arrival="56.00" arrivalLane="1091883842_0" arrivalPos="44.83" arrivalSpeed="10.35" duration="24.00" routeLength="145.27" waitingTime="0.00" waitingCount="0" stopTime="0.00" timeLoss="14.65" rerouteNo="0" devices="tripinfo_flow_route_87_duration_20250327_2010.4" vType="car" speedFactor="0.97" vaporized=""/>
    <tripinfo id="flow_route_87_duration_20250327_2010.0" depart="0.00" departLane="430416184_0" departPos="1.75" departSpeed="0.00" departDelay="0.00" arrival="57.00" arrivalLane="1091883842_0" arrivalPos="109.56" arrivalSpeed="14.42" duration="57.00" routeLength="408.27" waitingTime="0.00" waitingCount="0" stopTime="0.00" timeLoss="31.32" rerouteNo="0" devices="tripinfo_flow_route_87_duration_20250327_2010.0" vType="car" speedFactor="1.03" vaporized=""/>
    <tripinfo id="flow_route_88_duration_20250327_2010.1" depart="4.00" departLane="430416184_0" departPos="130.75" departSpeed="0.00" departDelay="0.00" arrival="57.00" arrivalLane="186407684#0_1" arrivalPos="41.08" arrivalSpeed="11.36" duration="53.00" routeLength="227.97" waitingTime="10.00" waitingCount="1" stopTime="0.00" timeLoss="37.95" rerouteNo="0" devices="tripinfo_flow_route_88_duration_20250327_2010.1" vType="car" speedFactor="1.05" vaporized=""/>
    <tripinfo id="flow_route_88_duration_20250327_2010.4" depart="16.00" departLane="430416184_0" departPos="157.41" departSpeed="0.00" departDelay="0.00" arrival="58.00" arrivalLane="186407684#0_1" arrivalPos="34.95" arrivalSpeed="11.71" duration="42.00" routeLength="195.17" waitingTime="2.00" waitingCount="1" stopTime="0.00" timeLoss="29.19" rerouteNo="0" devices="tripinfo_flow_route_88_duration_20250327_2010.4" vType="car" speedFactor="1.12" vaporized=""/>
    <tripinfo id="flow_route_87_duration_20250327_2010.1" depart="8.00" departLane="430416184_0" departPos="17.43" departSpeed="0.00" departDelay="0.50" arrival="59.00" arrivalLane="1091883842_0" arrivalPos="105.16" arrivalSpeed="13.92" duration="51.00" routeLength="388.19" waitingTime="0.00" waitingCount="0" stopTime="0.00" timeLoss="25.62" rerouteNo="0" devices="tripinfo_flow_route_87_duration_20250327_2010.1" vType="car" speedFactor="0.89" vaporized=""/>
    <tripinfo id="flow_route_86_duration_20250327_2010.2" depart="20.00" departLane="430416184_0" departPos="46.01" departSpeed="0.00" departDelay="0.00" arrival="60.00" arrivalLane="186407685_1" arrivalPos="5.74" arrivalSpeed="11.31" duration="40.00" routeLength="283.61" waitingTime="0.00" waitingCount="0" stopTime="0.00" timeLoss="22.41" rerouteNo="0" devices="tripinfo_flow_route_86_duration_20250327_2010.2" vType="car" speedFactor="0.93" vaporized=""/>
    <tripinfo id="flow_route_86_duration_20250327_2010.1" depart="11.00" departLane="430416184_0" departPos="88.80" departSpeed="0.00" departDelay="1.00" arrival="66.00" arrivalLane="186407685_1" arrivalPos="121.05" arrivalSpeed="16.56" duration="55.00" routeLength="356.13" waitingTime="1.00" waitingCount="1" stopTime="0.00" timeLoss="33.19" rerouteNo="0" devices="tripinfo_flow_route_86_duration_20250327_2010.1" vType="car" speedFactor="1.09" vaporized=""/>
    <tripinfo id="flow_route_88_duration_20250327_2010.9" depart="38.00" departLane="430416184_0" departPos="185.56" departSpeed="0.00" departDelay="2.00" arrival="66.00" arrivalLane="186407684#0_1" arrivalPos="51.12" arrivalSpeed="11.88" duration="28.00" routeLength="183.20" waitingTime="0.00" waitingCount="0" stopTime="0.00" timeLoss="14.37" rerouteNo="0" devices="tripinfo_flow_route_88_duration_20250327_2010.9" vType="car" speedFactor="0.83" vaporized=""/>
    <tripinfo id="flow_route_87_duration_20250327_2010.3" depart="24.00" departLane="430416184_0" departPos="36.26" departSpeed="0.00" departDelay="1.50" arrival="68.00" arrivalLane="1091883842_0" arrivalPos="127.22" arrivalSpeed="15.65" duration="44.00" routeLength="391.42" waitingTime="0.00" waitingCount="0" stopTime="0.00" timeLoss="19.27" rerouteNo="0" devices="tripinfo_flow_route_87_duration_20250327_2010.3" vType="car" speedFactor="0.94" vaporized=""/>
    <tripinfo id="flow_route_88_duration_20250327_2010.14" depart="56.00" departLane="430416184_0" departPos="282.49" departSpeed="0.00" departDelay="0.00" arrival="69.00" arrivalLane="186407684#0_1" arrivalPos="32.18" arrivalSpeed="10.69" duration="13.00" routeLength="67.33" waitingTime="0.00" waitingCount="0" stopTime="0.00" timeLoss="7.48" rerouteNo="0" devices="tripinfo_flow_route_88_duration_20250327_2010.14" vType="car" speedFactor="0.97" vaporized=""/>
    <tripinfo id="flow_route_88_duration_20250327_2010.5" depart="21.00" departLane="430416184_0" departPos="8.62" departSpeed="0.00" departDelay="1.00" arrival="70.00" arrivalLane="186407684#0_1" arrivalPos="26.59" arrivalSpeed="10.07" duration="49.00" routeLength="335.60" waitingTime="0.00" waitingCount="0" stopTime="0.00" timeLoss="27.15" rerouteNo="0" devices="tripinfo_flow_route_88_duration_20250327_2010.5" vType="car" speedFactor="0.88" vaporized=""/>
    <tripinfo id="flow_route_62_duration_20250327_2010.4" depart="42.00" departLane="409155823_0" departPos="29.84" departSpeed="0.00" departDelay="2.00" arrival="75.00" arrivalLane="1091883842_1" arrivalPos="5.17" arrivalSpeed="6.08" duration="33.00" routeLength="80.74" waitingTime="10.00" waitingCount="1" stopTime="0.00" timeLoss="27.51" rerouteNo="0" devices="tripinfo_flow_route_62_duration_20250327_2010.4" vType="car" speedFactor="0.92" vaporized=""/>
    <tripinfo id="flow_route_62_duration_20250327_2010.3" depart="30.00" departLane="409155823_0" departPos="71.45" departSpeed="0.00" departDelay="0.00" arrival="78.00" arrivalLane="1091883842_0" arrivalPos="31.19" arrivalSpeed="9.14" duration="48.00" routeLength="65.15" waitingTime="30.00" waitingCount="1" stopTime="0.00" timeLoss="43.69" rerouteNo="0" devices="tripinfo_flow_route_62_duration_20250327_2010.3" vType="car" speedFactor="1.02" vaporized=""/>
    <tripinfo id="flow_route_62_duration_20250327_2010.5" depart="50.00" departLane="409155823_0" departPos="37.26" departSpeed="0.00" departDelay="0.00" arrival="83.00" arrivalLane="1091883842_0" arrivalPos="53.86" arrivalSpeed="10.94" duration="33.00" routeLength="122.02" waitingTime="5.00" waitingCount="1" stopTime="0.00" timeLoss="25.35" rerouteNo="0" devices="tripinfo_flow_route_62_duration_20250327_2010.5" vType="car" speedFactor="1.01" vaporized=""/>
    <tripinfo id="flow_route_87_duration_20250327_2010.5" depart="38.00" departLane="430416184_0" departPos="43.91" departSpeed="0.00" departDelay="0.50" arrival="86.00" arrivalLane="1091883842_0" arrivalPos="34.05" arrivalSpeed="8.32" duration="48.00" routeLength="290.59" waitingTime="4.00" waitingCount="1" stopTime="0.00" timeLoss="29.32" rerouteNo="0" devices="tripinfo_flow_route_87_duration_20250327_2010.5" vType="car" speedFactor="0.87" vaporized=""/>
    <tripinfo id="flow_route_87_duration_20250327_2010.6" depart="45.00" departLane="430416184_0" departPos="13.55" departSpeed="0.00" departDelay="0.00" arrival="92.00" arrivalLane="1091883842_0" arrivalPos="38.47" arrivalSpeed="9.60" duration="47.00" routeLength="325.38" waitingTime="1.00" waitingCount="1" stopTime="0.00" timeLoss="26.44" rerouteNo="0" devices="tripinfo_flow_route_87_duration_20250327_2010.6" vType="car" speedFactor="1.18" vaporized=""/>
    <tripinfo id="flow_route_87_duration_20250327_2010.7" depart="53.00" departLane="430416184_0" departPos="120.64" departSpeed="0.00" departDelay="0.50" arrival="99.00" arrivalLane="1091883842_0" arrivalPos="153.31" arrivalSpeed="15.00" duration="46.00" routeLength="333.12" waitingTime="1.00" waitingCount="1" stopTime="0.00" timeLoss="25.18" rerouteNo="0" devices="tripinfo_flow_route_87_duration_20250327_2010.7" vType="car" speedFactor="1.02" vaporized=""/>
    <tripinfo id="flow_route_88_duration_20250327_2010.7" depart="28.00" departLane="430416184_0" departPos="64.53" departSpeed="0.00" departDelay="0.00" arrival="112.00" arrivalLane="186407684#0_1" arrivalPos="23.27" arrivalSpeed="9.05" duration="84.00" routeLength="276.38" waitingTime="30.00" waitingCount="1" stopTime="0.00" timeLoss="66.52" rerouteNo="0" devices="tripinfo_flow_route_88_duration_20250327_2010.7" vType="car" speedFactor="1.16" vaporized=""/>
    <tripinfo id="flow_route_88_duration_20250327_2010.8" depart="35.00" departLane="430416184_0" departPos="142.45" departSpeed="0.00" departDelay="3.00" arrival="113.00" arrivalLane="186407684#0_1" arrivalPos="52.55" arrivalSpeed="11.91" duration="78.00" routeLength="227.73" waitingTime="31.00" waitingCount="1" stopTime="0.00" timeLoss="61.98" rerouteNo="0" devices="tripinfo_flow_route_88_duration_20250327_2010.8" vType="car" speedFactor="0.89" vaporized=""/>
    <tripinfo id="flow_route_88_duration_20250327_2010.12" depart="50.00" departLane="430416184_0" departPos="196.27" departSpeed="0.00" departDelay="2.00" arrival="115.00" arrivalLane="186407684#0_1" arrivalPos="7.05" arrivalSpeed="8.86" duration="65.00" routeLength="128.41" waitingTime="29.00" waitingCount="1" stopTime="0.00" timeLoss="56.30" rerouteNo="0" devices="tripinfo_flow_route_88_duration_20250327_2010.12" vType="car" speedFactor="1.15" vaporized=""/>
    <tripinfo id="flow_route_86_duration_20250327_2010.5" depart="50.00" departLane="430416184_0" departPos="177.89" departSpeed="0.00" departDelay="0.00" arrival="120.00" arrivalLane="186407685_1" arrivalPos="37.60" arrivalSpeed="12.84" duration="70.00" routeLength="183.60" waitingTime="29.00" waitingCount="1" stopTime="0.00" timeLoss="58.41" rerouteNo="0" devices="tripinfo_flow_route_86_duration_20250327_2010.5" vType="car" speedFactor="1.17" vaporized=""/>
    <tripinfo id="flow_route_86_duration_20250327_2010.3" depart="30.00" departLane="430416184_0" departPos="25.74" departSpeed="0.00" departDelay="0.00" arrival="121.00" arrivalLane="186407685_1" arrivalPos="101.21" arrivalSpeed="15.09" duration="91.00" routeLength="399.35" waitingTime="29.00" waitingCount="1" stopTime="0.00" timeLoss="66.60" rerouteNo="0" devices="tripinfo_flow_route_86_duration_20250327_2010.3" vType="car" speedFactor="1.01" vaporized=""/>
    <tripinfo id="flow_route_88_duration_20250327_2010.10" depart="41.00" departLane="430416184_0" departPos="90.77" departSpeed="0.00" departDelay="1.00" arrival="122.00" arrivalLane="186407684#0_1" arrivalPos="48.19" arrivalSpeed="12.77" duration="81.00" routeLength="275.05" waitingTime="30.00" waitingCount="1" stopTime="0.00" timeLoss="63.20" rerouteNo="0" devices="tripinfo_flow_route_88_duration_20250327_2010.10" vType="car" speedFactor="1.13" vaporized=""/>
    <tripinfo id="flow_route_88_duration_20250327_2010.13" depart="53.00" departLane="430416184_0" departPos="169.18" departSpeed="0.00" departDelay="1.00" arrival="123.00" arrivalLane="186407684#0_1" arrivalPos="34.35" arrivalSpeed="12.08" duration="70.00" routeLength="182.80" waitingTime="29.00" waitingCount="1" stopTime="0.00" timeLoss="57.63" rerouteNo="0" devices="tripinfo_flow_route_88_duration_20250327_2010.13" vType="car" speedFactor="0.99" vaporized=""/>
    <tripinfo id="flow_route_88_duration_20250327_2010.11" depart="45.00" departLane="430416184_0" departPos="52.25" departSpeed="0.00" departDelay="1.00" arrival="124.00" arrivalLane="186407684#0_1" arrivalPos="7.58" arrivalSpeed="9.94" duration="79.00" routeLength="272.96" waitingTime="27.00" waitingCount="1" stopTime="0.00" timeLoss="61.36" rerouteNo="0" devices="tripinfo_flow_route_88_duration_20250327_2010.11" vType="car" speedFactor="0.93" vaporized=""/>
    <tripinfo id="flow_route_86_duration_20250327_2010.4" depart="40.00" departLane="430416184_0" departPos="19.37" departSpeed="0.00" departDelay="0.00" arrival="126.00" arrivalLane="186407685_1" arrivalPos="49.37" arrivalSpeed="14.54" duration="86.00" routeLength="353.89" waitingTime="27.00" waitingCount="1" stopTime="0.00" timeLoss="64.26" rerouteNo="0" devices="tripinfo_flow_route_86_duration_20250327_2010.4" vType="car" speedFactor="0.95" vaporized=""/>
</tripinfos>
