<?xml version="1.0" encoding="UTF-8"?>

<!-- generated on 2025-05-06 21:08:26 by Eclipse SUMO sumo Version 1.20.0
<configuration xmlns:xsi="http://www.w3.org/2001/XMLSchema-instance" xsi:noNamespaceSchemaLocation="http://sumo.dlr.de/xsd/sumoConfiguration.xsd">

    <input>
        <net-file value="osm.net.xml"/>
        <route-files value="xml/route_static_J7_4.rou.xml"/>
    </input>

    <output>
        <tripinfo-output value="xml/tripinfo_static_J7_4.xml"/>
    </output>

    <traci_server>
        <remote-port value="38625"/>
    </traci_server>

</configuration>
-->

<tripinfos xmlns:xsi="http://www.w3.org/2001/XMLSchema-instance" xsi:noNamespaceSchemaLocation="http://sumo.dlr.de/xsd/tripinfo_file.xsd">
    <tripinfo id="flow_route_127_duration_20250327_2150.1" depart="5.00" departLane="-138000461_0" departPos="187.58" departSpeed="0.00" departDelay="0.72" arrival="25.00" arrivalLane="189240000#0-AddedOnRampEdge_0" arrivalPos="88.65" arrivalSpeed="15.33" duration="20.00" routeLength="160.18" waitingTime="0.00" waitingCount="0" stopTime="0.00" timeLoss="9.83" rerouteNo="0" devices="tripinfo_flow_route_127_duration_20250327_2150.1" vType="car" speedFactor="1.05" vaporized=""/>
    <tripinfo id="flow_route_131_duration_20250327_2150.0" depart="0.00" departLane="714011134#0_0" departPos="6.35" departSpeed="0.00" departDelay="0.00" arrival="26.00" arrivalLane="134194079#0_1" arrivalPos="73.02" arrivalSpeed="14.32" duration="26.00" routeLength="232.63" waitingTime="0.00" waitingCount="0" stopTime="0.00" timeLoss="10.08" rerouteNo="0" devices="tripinfo_flow_route_131_duration_20250327_2150.0" vType="car" speedFactor="0.89" vaporized=""/>
    <tripinfo id="flow_route_127_duration_20250327_2150.0" depart="0.00" departLane="-138000461_0" departPos="55.90" departSpeed="0.00" departDelay="0.00" arrival="31.00" arrivalLane="189240000#0-AddedOnRampEdge_0" arrivalPos="70.17" arrivalSpeed="13.91" duration="31.00" routeLength="273.38" waitingTime="0.00" waitingCount="0" stopTime="0.00" timeLoss="14.02" rerouteNo="0" devices="tripinfo_flow_route_127_duration_20250327_2150.0" vType="car" speedFactor="1.05" vaporized=""/>
    <tripinfo id="flow_route_132_duration_20250327_2150.0" depart="0.00" departLane="714011134#0_0" departPos="92.28" departSpeed="0.00" departDelay="0.00" arrival="35.00" arrivalLane="189240000#0-AddedOnRampEdge_1" arrivalPos="51.48" arrivalSpeed="15.31" duration="35.00" routeLength="375.34" waitingTime="0.00" waitingCount="0" stopTime="0.00" timeLoss="10.23" rerouteNo="0" devices="tripinfo_flow_route_132_duration_20250327_2150.0" vType="car" speedFactor="0.94" vaporized=""/>
    <tripinfo id="flow_route_121_duration_20250327_2150.0" depart="1.00" departLane="799091563#0_0" departPos="259.58" departSpeed="0.00" departDelay="1.00" arrival="36.00" arrivalLane="134194079#0_0" arrivalPos="144.99" arrivalSpeed="15.73" duration="35.00" routeLength="274.57" waitingTime="0.00" waitingCount="0" stopTime="0.00" timeLoss="17.50" rerouteNo="0" devices="tripinfo_flow_route_121_duration_20250327_2150.0" vType="car" speedFactor="1.08" vaporized=""/>
    <tripinfo id="flow_route_121_duration_20250327_2150.1" depart="5.00" departLane="799091563#0_0" departPos="313.01" departSpeed="0.00" departDelay="0.00" arrival="36.00" arrivalLane="134194079#0_0" arrivalPos="186.89" arrivalSpeed="16.51" duration="31.00" routeLength="263.04" waitingTime="0.00" waitingCount="0" stopTime="0.00" timeLoss="13.44" rerouteNo="0" devices="tripinfo_flow_route_121_duration_20250327_2150.1" vType="car" speedFactor="1.03" vaporized=""/>
    <tripinfo id="flow_route_116_duration_20250327_2150.0" depart="0.00" departLane="177211987#1_0" departPos="0.88" departSpeed="0.00" departDelay="0.00" arrival="38.00" arrivalLane="688883939#0_0" arrivalPos="93.94" arrivalSpeed="16.57" duration="38.00" routeLength="448.08" waitingTime="0.00" waitingCount="0" stopTime="0.00" timeLoss="10.65" rerouteNo="0" devices="tripinfo_flow_route_116_duration_20250327_2150.0" vType="car" speedFactor="1.06" vaporized=""/>
    <tripinfo id="flow_route_127_duration_20250327_2150.4" depart="18.00" departLane="-138000461_0" departPos="171.54" departSpeed="0.00" departDelay="0.86" arrival="39.00" arrivalLane="189240000#0-AddedOnRampEdge_0" arrivalPos="22.79" arrivalSpeed="11.29" duration="21.00" routeLength="110.36" waitingTime="0.00" waitingCount="0" stopTime="0.00" timeLoss="13.48" rerouteNo="0" devices="tripinfo_flow_route_127_duration_20250327_2150.4" vType="car" speedFactor="0.97" vaporized=""/>
    <tripinfo id="flow_route_127_duration_20250327_2150.5" depart="22.00" departLane="-138000461_0" departPos="201.80" departSpeed="0.00" departDelay="0.58" arrival="39.00" arrivalLane="189240000#0-AddedOnRampEdge_0" arrivalPos="54.76" arrivalSpeed="12.60" duration="17.00" routeLength="112.07" waitingTime="0.00" waitingCount="0" stopTime="0.00" timeLoss="9.45" rerouteNo="0" devices="tripinfo_flow_route_127_duration_20250327_2150.5" vType="car" speedFactor="0.95" vaporized=""/>
    <tripinfo id="flow_route_127_duration_20250327_2150.2" depart="9.00" departLane="-138000461_0" departPos="6.85" departSpeed="0.00" departDelay="0.43" arrival="42.00" arrivalLane="189240000#0-AddedOnRampEdge_0" arrivalPos="22.35" arrivalSpeed="10.50" duration="33.00" routeLength="274.61" waitingTime="0.00" waitingCount="0" stopTime="0.00" timeLoss="16.07" rerouteNo="0" devices="tripinfo_flow_route_127_duration_20250327_2150.2" vType="car" speedFactor="0.99" vaporized=""/>
    <tripinfo id="flow_route_121_duration_20250327_2150.5" depart="26.00" departLane="799091563#0_0" departPos="352.42" departSpeed="0.00" departDelay="1.00" arrival="43.00" arrivalLane="134194079#0_0" arrivalPos="44.79" arrivalSpeed="9.11" duration="17.00" routeLength="81.53" waitingTime="0.00" waitingCount="0" stopTime="0.00" timeLoss="10.19" rerouteNo="0" devices="tripinfo_flow_route_121_duration_20250327_2150.5" vType="car" speedFactor="0.93" vaporized=""/>
    <tripinfo id="flow_route_132_duration_20250327_2150.2" depart="7.00" departLane="714011134#0_0" departPos="57.37" departSpeed="0.00" departDelay="0.33" arrival="44.00" arrivalLane="189240000#0-AddedOnRampEdge_2" arrivalPos="37.44" arrivalSpeed="16.11" duration="37.00" routeLength="396.22" waitingTime="0.00" waitingCount="0" stopTime="0.00" timeLoss="12.32" rerouteNo="0" devices="tripinfo_flow_route_132_duration_20250327_2150.2" vType="car" speedFactor="1.12" vaporized=""/>
    <tripinfo id="flow_route_127_duration_20250327_2150.3" depart="13.00" departLane="-138000461_0" departPos="70.02" departSpeed="0.00" departDelay="0.15" arrival="44.00" arrivalLane="189240000#0-AddedOnRampEdge_0" arrivalPos="64.68" arrivalSpeed="13.73" duration="31.00" routeLength="253.77" waitingTime="0.00" waitingCount="0" stopTime="0.00" timeLoss="14.26" rerouteNo="0" devices="tripinfo_flow_route_127_duration_20250327_2150.3" vType="car" speedFactor="0.94" vaporized=""/>
    <tripinfo id="flow_route_132_duration_20250327_2150.1" depart="4.00" departLane="714011134#0_0" departPos="32.36" departSpeed="0.00" departDelay="0.67" arrival="46.00" arrivalLane="189240000#0-AddedOnRampEdge_1" arrivalPos="48.43" arrivalSpeed="15.23" duration="42.00" routeLength="432.21" waitingTime="0.00" waitingCount="0" stopTime="0.00" timeLoss="15.48" rerouteNo="0" devices="tripinfo_flow_route_132_duration_20250327_2150.1" vType="car" speedFactor="1.09" vaporized=""/>
    <tripinfo id="flow_route_132_duration_20250327_2150.3" depart="10.00" departLane="714011134#0_0" departPos="100.82" departSpeed="0.00" departDelay="0.00" arrival="46.00" arrivalLane="189240000#0-AddedOnRampEdge_1" arrivalPos="72.18" arrivalSpeed="14.59" duration="36.00" routeLength="387.50" waitingTime="0.00" waitingCount="0" stopTime="0.00" timeLoss="8.91" rerouteNo="0" devices="tripinfo_flow_route_132_duration_20250327_2150.3" vType="car" speedFactor="0.88" vaporized=""/>
    <tripinfo id="flow_route_121_duration_20250327_2150.4" depart="20.00" departLane="799091563#0_0" departPos="364.51" departSpeed="0.00" departDelay="0.00" arrival="47.00" arrivalLane="134194079#0_0" arrivalPos="211.10" arrivalSpeed="14.44" duration="27.00" routeLength="235.76" waitingTime="0.00" waitingCount="0" stopTime="0.00" timeLoss="9.20" rerouteNo="0" devices="tripinfo_flow_route_121_duration_20250327_2150.4" vType="car" speedFactor="0.87" vaporized=""/>
    <tripinfo id="flow_route_132_duration_20250327_2150.5" depart="17.00" departLane="714011134#0_0" departPos="60.24" departSpeed="0.00" departDelay="0.34" arrival="51.00" arrivalLane="189240000#0-AddedOnRampEdge_1" arrivalPos="15.86" arrivalSpeed="16.14" duration="34.00" routeLength="371.75" waitingTime="0.00" waitingCount="0" stopTime="0.00" timeLoss="11.14" rerouteNo="0" devices="tripinfo_flow_route_132_duration_20250327_2150.5" vType="car" speedFactor="1.01" vaporized=""/>
    <tripinfo id="flow_route_126_duration_20250327_2150.0" depart="0.00" departLane="-138000461_0" departPos="119.67" departSpeed="0.00" departDelay="0.00" arrival="52.00" arrivalLane="138000492#0_1" arrivalPos="18.35" arrivalSpeed="13.67" duration="52.00" routeLength="582.25" waitingTime="0.00" waitingCount="0" stopTime="0.00" timeLoss="9.43" rerouteNo="0" devices="tripinfo_flow_route_126_duration_20250327_2150.0" vType="car" speedFactor="0.83" vaporized=""/>
    <tripinfo id="flow_route_132_duration_20250327_2150.4" depart="14.00" departLane="714011134#0_0" departPos="13.21" departSpeed="0.00" departDelay="0.67" arrival="53.00" arrivalLane="189240000#0-AddedOnRampEdge_1" arrivalPos="12.21" arrivalSpeed="15.12" duration="39.00" routeLength="415.14" waitingTime="0.00" waitingCount="0" stopTime="0.00" timeLoss="12.17" rerouteNo="0" devices="tripinfo_flow_route_132_duration_20250327_2150.4" vType="car" speedFactor="0.94" vaporized=""/>
    <tripinfo id="flow_route_127_duration_20250327_2150.9" depart="39.00" departLane="-138000461_0" departPos="185.03" departSpeed="0.00" departDelay="0.44" arrival="55.00" arrivalLane="189240000#0-AddedOnRampEdge_0" arrivalPos="9.89" arrivalSpeed="9.71" duration="16.00" routeLength="83.97" waitingTime="0.00" waitingCount="0" stopTime="0.00" timeLoss="10.26" rerouteNo="0" devices="tripinfo_flow_route_127_duration_20250327_2150.9" vType="car" speedFactor="0.96" vaporized=""/>
    <tripinfo id="flow_route_133_duration_20250327_2150.0" depart="0.00" departLane="714011134#0_0" departPos="33.93" departSpeed="0.00" departDelay="0.00" arrival="59.00" arrivalLane="138000492#0_0" arrivalPos="313.58" arrivalSpeed="14.16" duration="59.00" routeLength="604.48" waitingTime="0.00" waitingCount="0" stopTime="0.00" timeLoss="15.89" rerouteNo="0" devices="tripinfo_flow_route_133_duration_20250327_2150.0" vType="car" speedFactor="0.86" vaporized=""/>
    <tripinfo id="flow_route_117_duration_20250327_2150.0" depart="0.00" departLane="177211987#1_0" departPos="98.51" departSpeed="0.00" departDelay="0.00" arrival="63.00" arrivalLane="138000492#0_0" arrivalPos="299.85" arrivalSpeed="15.18" duration="63.00" routeLength="701.60" waitingTime="0.00" waitingCount="0" stopTime="0.00" timeLoss="17.29" rerouteNo="0" devices="tripinfo_flow_route_117_duration_20250327_2150.0" vType="car" speedFactor="0.94" vaporized=""/>
    <tripinfo id="flow_route_127_duration_20250327_2150.7" depart="30.00" departLane="-138000461_0" departPos="44.88" departSpeed="0.00" departDelay="0.01" arrival="63.00" arrivalLane="189240000#0-AddedOnRampEdge_0" arrivalPos="17.06" arrivalSpeed="10.68" duration="33.00" routeLength="231.29" waitingTime="0.00" waitingCount="0" stopTime="0.00" timeLoss="18.25" rerouteNo="0" devices="tripinfo_flow_route_127_duration_20250327_2150.7" vType="car" speedFactor="1.02" vaporized=""/>
    <tripinfo id="flow_route_127_duration_20250327_2150.8" depart="35.00" departLane="-138000461_0" departPos="77.17" departSpeed="0.00" departDelay="0.72" arrival="66.00" arrivalLane="189240000#0-AddedOnRampEdge_0" arrivalPos="77.94" arrivalSpeed="13.73" duration="31.00" routeLength="259.88" waitingTime="0.00" waitingCount="0" stopTime="0.00" timeLoss="13.21" rerouteNo="0" devices="tripinfo_flow_route_127_duration_20250327_2150.8" vType="car" speedFactor="0.90" vaporized=""/>
    <tripinfo id="flow_route_122_duration_20250327_2150.0" depart="1.00" departLane="799091563#0_0" departPos="17.54" departSpeed="0.00" departDelay="1.00" arrival="67.00" arrivalLane="688883939#0_2" arrivalPos="62.20" arrivalSpeed="13.34" duration="66.00" routeLength="483.30" waitingTime="14.00" waitingCount="1" stopTime="0.00" timeLoss="36.88" rerouteNo="0" devices="tripinfo_flow_route_122_duration_20250327_2150.0" vType="car" speedFactor="1.03" vaporized=""/>
    <tripinfo id="flow_route_127_duration_20250327_2150.6" depart="26.00" departLane="-138000461_0" departPos="14.15" departSpeed="0.00" departDelay="0.29" arrival="67.00" arrivalLane="189240000#0-AddedOnRampEdge_0" arrivalPos="51.62" arrivalSpeed="12.51" duration="41.00" routeLength="296.58" waitingTime="0.00" waitingCount="0" stopTime="0.00" timeLoss="22.88" rerouteNo="0" devices="tripinfo_flow_route_127_duration_20250327_2150.6" vType="car" speedFactor="1.18" vaporized=""/>
    <tripinfo id="flow_route_132_duration_20250327_2150.8" depart="31.00" departLane="714011134#0_0" departPos="71.53" departSpeed="0.00" departDelay="4.34" arrival="69.00" arrivalLane="189240000#0-AddedOnRampEdge_1" arrivalPos="16.90" arrivalSpeed="16.14" duration="38.00" routeLength="361.51" waitingTime="0.00" waitingCount="0" stopTime="0.00" timeLoss="15.89" rerouteNo="0" devices="tripinfo_flow_route_132_duration_20250327_2150.8" vType="car" speedFactor="1.15" vaporized=""/>
    <tripinfo id="flow_route_122_duration_20250327_2150.2" depart="30.00" departLane="799091563#0_0" departPos="110.13" departSpeed="0.00" departDelay="0.00" arrival="69.00" arrivalLane="688883939#0_2" arrivalPos="21.84" arrivalSpeed="12.95" duration="39.00" routeLength="350.35" waitingTime="0.00" waitingCount="0" stopTime="0.00" timeLoss="17.15" rerouteNo="0" devices="tripinfo_flow_route_122_duration_20250327_2150.2" vType="car" speedFactor="0.99" vaporized=""/>
    <tripinfo id="flow_route_132_duration_20250327_2150.10" depart="36.00" departLane="714011134#0_0" departPos="102.95" departSpeed="0.00" departDelay="2.67" arrival="70.00" arrivalLane="189240000#0-AddedOnRampEdge_1" arrivalPos="58.07" arrivalSpeed="16.54" duration="34.00" routeLength="371.27" waitingTime="0.00" waitingCount="0" stopTime="0.00" timeLoss="11.20" rerouteNo="0" devices="tripinfo_flow_route_132_duration_20250327_2150.10" vType="car" speedFactor="1.18" vaporized=""/>
    <tripinfo id="flow_route_122_duration_20250327_2150.1" depart="15.00" departLane="799091563#0_0" departPos="84.73" departSpeed="0.00" departDelay="0.00" arrival="72.00" arrivalLane="688883939#0_2" arrivalPos="101.69" arrivalSpeed="16.47" duration="57.00" routeLength="455.60" waitingTime="6.00" waitingCount="1" stopTime="0.00" timeLoss="29.16" rerouteNo="0" devices="tripinfo_flow_route_122_duration_20250327_2150.1" vType="car" speedFactor="1.02" vaporized=""/>
    <tripinfo id="flow_route_132_duration_20250327_2150.9" depart="31.00" departLane="714011134#0_0" departPos="44.60" departSpeed="0.00" departDelay="1.00" arrival="72.00" arrivalLane="189240000#0-AddedOnRampEdge_2" arrivalPos="4.42" arrivalSpeed="16.17" duration="41.00" routeLength="375.96" waitingTime="0.00" waitingCount="0" stopTime="0.00" timeLoss="17.60" rerouteNo="0" devices="tripinfo_flow_route_132_duration_20250327_2150.9" vType="car" speedFactor="0.97" vaporized=""/>
    <tripinfo id="flow_route_121_duration_20250327_2150.8" depart="40.00" departLane="799091563#0_0" departPos="331.81" departSpeed="0.00" departDelay="0.00" arrival="72.00" arrivalLane="134194079#0_0" arrivalPos="145.35" arrivalSpeed="16.09" duration="32.00" routeLength="202.70" waitingTime="0.00" waitingCount="0" stopTime="0.00" timeLoss="17.91" rerouteNo="0" devices="tripinfo_flow_route_121_duration_20250327_2150.8" vType="car" speedFactor="1.04" vaporized=""/>
    <tripinfo id="flow_route_121_duration_20250327_2150.3" depart="15.00" departLane="799091563#0_0" departPos="100.27" departSpeed="0.00" departDelay="0.00" arrival="73.00" arrivalLane="134194079#0_0" arrivalPos="121.36" arrivalSpeed="15.08" duration="58.00" routeLength="410.24" waitingTime="0.00" waitingCount="0" stopTime="0.00" timeLoss="31.64" rerouteNo="0" devices="tripinfo_flow_route_121_duration_20250327_2150.3" vType="car" speedFactor="1.16" vaporized=""/>
    <tripinfo id="flow_route_121_duration_20250327_2150.2" depart="11.00" departLane="799091563#0_0" departPos="11.32" departSpeed="0.00" departDelay="1.00" arrival="74.00" arrivalLane="134194079#0_0" arrivalPos="89.03" arrivalSpeed="12.22" duration="63.00" routeLength="466.86" waitingTime="0.00" waitingCount="0" stopTime="0.00" timeLoss="31.21" rerouteNo="0" devices="tripinfo_flow_route_121_duration_20250327_2150.2" vType="car" speedFactor="0.93" vaporized=""/>
    <tripinfo id="flow_route_132_duration_20250327_2150.6" depart="22.00" departLane="714011134#0_0" departPos="17.75" departSpeed="0.00" departDelay="2.00" arrival="74.00" arrivalLane="189240000#0-AddedOnRampEdge_1" arrivalPos="56.29" arrivalSpeed="15.28" duration="52.00" routeLength="454.68" waitingTime="0.00" waitingCount="0" stopTime="0.00" timeLoss="22.01" rerouteNo="0" devices="tripinfo_flow_route_132_duration_20250327_2150.6" vType="car" speedFactor="0.92" vaporized=""/>
    <tripinfo id="flow_route_127_duration_20250327_2150.12" depart="53.00" departLane="-138000461_0" departPos="143.88" departSpeed="0.00" departDelay="1.58" arrival="74.00" arrivalLane="189240000#0-AddedOnRampEdge_0" arrivalPos="40.68" arrivalSpeed="13.18" duration="21.00" routeLength="155.90" waitingTime="0.00" waitingCount="0" stopTime="0.00" timeLoss="10.76" rerouteNo="0" devices="tripinfo_flow_route_127_duration_20250327_2150.12" vType="car" speedFactor="1.00" vaporized=""/>
    <tripinfo id="flow_route_120_duration_20250327_2150.0" depart="0.00" departLane="799091563#0_0" departPos="177.01" departSpeed="0.00" departDelay="0.00" arrival="80.00" arrivalLane="138000492#0_1" arrivalPos="19.14" arrivalSpeed="9.70" duration="80.00" routeLength="440.29" waitingTime="26.00" waitingCount="1" stopTime="0.00" timeLoss="52.87" rerouteNo="0" devices="tripinfo_flow_route_120_duration_20250327_2150.0" vType="car" speedFactor="1.01" vaporized=""/>
    <tripinfo id="flow_route_121_duration_20250327_2150.11" depart="55.00" departLane="799091563#0_0" departPos="243.45" departSpeed="0.00" departDelay="0.00" arrival="81.00" arrivalLane="134194079#0_0" arrivalPos="30.35" arrivalSpeed="8.18" duration="26.00" routeLength="176.06" waitingTime="0.00" waitingCount="0" stopTime="0.00" timeLoss="12.89" rerouteNo="0" devices="tripinfo_flow_route_121_duration_20250327_2150.11" vType="car" speedFactor="0.90" vaporized=""/>
    <tripinfo id="flow_route_121_duration_20250327_2150.7" depart="35.00" departLane="799091563#0_0" departPos="158.41" departSpeed="0.00" departDelay="0.00" arrival="83.00" arrivalLane="134194079#0_0" arrivalPos="151.29" arrivalSpeed="14.89" duration="48.00" routeLength="382.04" waitingTime="0.00" waitingCount="0" stopTime="0.00" timeLoss="23.88" rerouteNo="0" devices="tripinfo_flow_route_121_duration_20250327_2150.7" vType="car" speedFactor="1.10" vaporized=""/>
    <tripinfo id="flow_route_127_duration_20250327_2150.10" depart="44.00" departLane="-138000461_0" departPos="21.46" departSpeed="0.00" departDelay="1.15" arrival="83.00" arrivalLane="189240000#0-AddedOnRampEdge_0" arrivalPos="38.81" arrivalSpeed="11.91" duration="39.00" routeLength="276.46" waitingTime="0.00" waitingCount="0" stopTime="0.00" timeLoss="21.57" rerouteNo="0" devices="tripinfo_flow_route_127_duration_20250327_2150.10" vType="car" speedFactor="1.00" vaporized=""/>
    <tripinfo id="flow_route_127_duration_20250327_2150.13" depart="56.00" departLane="-138000461_0" departPos="116.07" departSpeed="0.00" departDelay="0.30" arrival="83.00" arrivalLane="189240000#0-AddedOnRampEdge_0" arrivalPos="77.52" arrivalSpeed="15.01" duration="27.00" routeLength="220.56" waitingTime="0.00" waitingCount="0" stopTime="0.00" timeLoss="12.64" rerouteNo="0" devices="tripinfo_flow_route_127_duration_20250327_2150.13" vType="car" speedFactor="1.14" vaporized=""/>
    <tripinfo id="flow_route_127_duration_20250327_2150.11" depart="48.00" departLane="-138000461_0" departPos="9.00" departSpeed="0.00" departDelay="0.87" arrival="84.00" arrivalLane="189240000#0-AddedOnRampEdge_0" arrivalPos="35.08" arrivalSpeed="12.03" duration="36.00" routeLength="285.19" waitingTime="0.00" waitingCount="0" stopTime="0.00" timeLoss="18.72" rerouteNo="0" devices="tripinfo_flow_route_127_duration_20250327_2150.11" vType="car" speedFactor="1.17" vaporized=""/>
    <tripinfo id="flow_route_121_duration_20250327_2150.9" depart="45.00" departLane="799091563#0_0" departPos="270.44" departSpeed="0.00" departDelay="0.00" arrival="85.00" arrivalLane="134194079#0_0" arrivalPos="195.25" arrivalSpeed="14.26" duration="40.00" routeLength="313.97" waitingTime="0.00" waitingCount="0" stopTime="0.00" timeLoss="15.86" rerouteNo="0" devices="tripinfo_flow_route_121_duration_20250327_2150.9" vType="car" speedFactor="0.88" vaporized=""/>
    <tripinfo id="flow_route_121_duration_20250327_2150.6" depart="30.00" departLane="799091563#0_0" departPos="133.60" departSpeed="0.00" departDelay="0.00" arrival="87.00" arrivalLane="134194079#0_0" arrivalPos="167.32" arrivalSpeed="16.47" duration="57.00" routeLength="422.88" waitingTime="0.00" waitingCount="0" stopTime="0.00" timeLoss="29.58" rerouteNo="0" devices="tripinfo_flow_route_121_duration_20250327_2150.6" vType="car" speedFactor="1.17" vaporized=""/>
    <tripinfo id="flow_route_120_duration_20250327_2150.1" depart="30.00" departLane="799091563#0_0" departPos="274.11" departSpeed="0.00" departDelay="0.00" arrival="88.00" arrivalLane="138000492#0_1" arrivalPos="36.20" arrivalSpeed="11.83" duration="58.00" routeLength="360.25" waitingTime="3.00" waitingCount="2" stopTime="0.00" timeLoss="35.64" rerouteNo="0" devices="tripinfo_flow_route_120_duration_20250327_2150.1" vType="car" speedFactor="1.01" vaporized=""/>
    <tripinfo id="flow_route_122_duration_20250327_2150.3" depart="45.00" departLane="799091563#0_0" departPos="47.20" departSpeed="0.00" departDelay="0.00" arrival="93.00" arrivalLane="688883939#0_2" arrivalPos="82.34" arrivalSpeed="13.95" duration="48.00" routeLength="473.78" waitingTime="0.00" waitingCount="0" stopTime="0.00" timeLoss="14.26" rerouteNo="0" devices="tripinfo_flow_route_122_duration_20250327_2150.3" vType="car" speedFactor="0.85" vaporized=""/>
    <tripinfo id="flow_route_121_duration_20250327_2150.10" depart="51.00" departLane="799091563#0_0" departPos="130.84" departSpeed="0.00" departDelay="1.00" arrival="103.00" arrivalLane="134194079#0_0" arrivalPos="288.59" arrivalSpeed="16.56" duration="52.00" routeLength="546.92" waitingTime="0.00" waitingCount="0" stopTime="0.00" timeLoss="17.20" rerouteNo="0" devices="tripinfo_flow_route_121_duration_20250327_2150.10" vType="car" speedFactor="1.02" vaporized=""/>
    <tripinfo id="flow_route_116_duration_20250327_2150.1" depart="20.00" departLane="177211987#1_0" departPos="101.23" departSpeed="0.00" departDelay="0.00" arrival="138.00" arrivalLane="688883939#0_0" arrivalPos="9.39" arrivalSpeed="9.79" duration="118.00" routeLength="263.17" waitingTime="81.00" waitingCount="1" stopTime="0.00" timeLoss="100.18" rerouteNo="0" devices="tripinfo_flow_route_116_duration_20250327_2150.1" vType="car" speedFactor="0.89" vaporized=""/>
    <tripinfo id="flow_route_116_duration_20250327_2150.2" depart="40.00" departLane="177211987#1_0" departPos="104.03" departSpeed="0.00" departDelay="0.00" arrival="146.00" arrivalLane="688883939#0_0" arrivalPos="65.92" arrivalSpeed="13.87" duration="106.00" routeLength="316.91" waitingTime="62.00" waitingCount="1" stopTime="0.00" timeLoss="86.66" rerouteNo="0" devices="tripinfo_flow_route_116_duration_20250327_2150.2" vType="car" speedFactor="1.09" vaporized=""/>
    <tripinfo id="flow_route_132_duration_20250327_2150.7" depart="25.00" departLane="714011134#0_0" departPos="2.93" departSpeed="0.00" departDelay="1.67" arrival="156.00" arrivalLane="189240000#0-AddedOnRampEdge_1" arrivalPos="17.31" arrivalSpeed="16.53" duration="131.00" routeLength="430.52" waitingTime="74.00" waitingCount="1" stopTime="0.00" timeLoss="104.28" rerouteNo="0" devices="tripinfo_flow_route_132_duration_20250327_2150.7" vType="car" speedFactor="1.13" vaporized=""/>
    <tripinfo id="flow_route_132_duration_20250327_2150.11" depart="37.00" departLane="714011134#0_0" departPos="31.91" departSpeed="0.00" departDelay="0.34" arrival="158.00" arrivalLane="189240000#0-AddedOnRampEdge_1" arrivalPos="2.25" arrivalSpeed="16.32" duration="121.00" routeLength="386.49" waitingTime="73.00" waitingCount="1" stopTime="0.00" timeLoss="96.82" rerouteNo="0" devices="tripinfo_flow_route_132_duration_20250327_2150.11" vType="car" speedFactor="1.03" vaporized=""/>
    <tripinfo id="flow_route_132_duration_20250327_2150.14" depart="49.00" departLane="714011134#0_0" departPos="71.17" departSpeed="0.00" departDelay="2.34" arrival="162.00" arrivalLane="189240000#0-AddedOnRampEdge_1" arrivalPos="13.33" arrivalSpeed="14.24" duration="113.00" routeLength="358.29" waitingTime="70.00" waitingCount="1" stopTime="0.00" timeLoss="87.00" rerouteNo="0" devices="tripinfo_flow_route_132_duration_20250327_2150.14" vType="car" speedFactor="0.85" vaporized=""/>
    <tripinfo id="flow_route_132_duration_20250327_2150.12" depart="42.00" departLane="714011134#0_0" departPos="31.23" departSpeed="0.00" departDelay="2.00" arrival="163.00" arrivalLane="189240000#0-AddedOnRampEdge_2" arrivalPos="40.13" arrivalSpeed="16.40" duration="121.00" routeLength="425.04" waitingTime="70.00" waitingCount="1" stopTime="0.00" timeLoss="94.99" rerouteNo="0" devices="tripinfo_flow_route_132_duration_20250327_2150.12" vType="car" speedFactor="1.09" vaporized=""/>
    <tripinfo id="flow_route_132_duration_20250327_2150.17" depart="61.00" departLane="714011134#0_0" departPos="36.45" departSpeed="0.00" departDelay="4.34" arrival="166.00" arrivalLane="189240000#0-AddedOnRampEdge_1" arrivalPos="1.38" arrivalSpeed="16.12" duration="105.00" routeLength="381.07" waitingTime="62.00" waitingCount="1" stopTime="0.00" timeLoss="81.72" rerouteNo="0" devices="tripinfo_flow_route_132_duration_20250327_2150.17" vType="car" speedFactor="1.02" vaporized=""/>
    <tripinfo id="flow_route_132_duration_20250327_2150.13" depart="49.00" departLane="714011134#0_0" departPos="41.17" departSpeed="0.00" departDelay="5.67" arrival="168.00" arrivalLane="189240000#0-AddedOnRampEdge_1" arrivalPos="66.04" arrivalSpeed="14.93" duration="119.00" routeLength="441.01" waitingTime="69.00" waitingCount="1" stopTime="0.00" timeLoss="89.37" rerouteNo="0" devices="tripinfo_flow_route_132_duration_20250327_2150.13" vType="car" speedFactor="0.90" vaporized=""/>
    <tripinfo id="flow_route_132_duration_20250327_2150.15" depart="53.00" departLane="714011134#0_0" departPos="39.99" departSpeed="0.00" departDelay="3.01" arrival="169.00" arrivalLane="189240000#0-AddedOnRampEdge_2" arrivalPos="79.82" arrivalSpeed="16.39" duration="116.00" routeLength="455.97" waitingTime="67.00" waitingCount="1" stopTime="0.00" timeLoss="88.51" rerouteNo="0" devices="tripinfo_flow_route_132_duration_20250327_2150.15" vType="car" speedFactor="1.10" vaporized=""/>
    <tripinfo id="flow_route_117_duration_20250327_2150.1" depart="20.00" departLane="177211987#1_0" departPos="136.86" departSpeed="0.00" departDelay="0.00" arrival="171.00" arrivalLane="138000492#0_0" arrivalPos="281.17" arrivalSpeed="13.36" duration="151.00" routeLength="644.57" waitingTime="83.00" waitingCount="1" stopTime="0.00" timeLoss="104.06" rerouteNo="0" devices="tripinfo_flow_route_117_duration_20250327_2150.1" vType="car" speedFactor="0.83" vaporized=""/>
    <tripinfo id="flow_route_132_duration_20250327_2150.16" depart="61.00" departLane="714011134#0_0" departPos="17.65" departSpeed="0.00" departDelay="7.67" arrival="171.00" arrivalLane="189240000#0-AddedOnRampEdge_1" arrivalPos="55.96" arrivalSpeed="16.25" duration="110.00" routeLength="454.44" waitingTime="61.00" waitingCount="1" stopTime="0.00" timeLoss="82.55" rerouteNo="0" devices="tripinfo_flow_route_132_duration_20250327_2150.16" vType="car" speedFactor="1.00" vaporized=""/>
    <tripinfo id="flow_route_117_duration_20250327_2150.2" depart="40.00" departLane="177211987#1_0" departPos="66.71" departSpeed="0.00" departDelay="0.00" arrival="181.00" arrivalLane="138000492#0_1" arrivalPos="389.24" arrivalSpeed="16.13" duration="141.00" routeLength="822.79" waitingTime="61.00" waitingCount="1" stopTime="0.00" timeLoss="90.29" rerouteNo="0" devices="tripinfo_flow_route_117_duration_20250327_2150.2" vType="car" speedFactor="1.04" vaporized=""/>
</tripinfos>
