<?xml version="1.0" encoding="UTF-8"?>

<!-- generated on 2025-05-06 21:08:22 by Eclipse SUMO sumo Version 1.20.0
<configuration xmlns:xsi="http://www.w3.org/2001/XMLSchema-instance" xsi:noNamespaceSchemaLocation="http://sumo.dlr.de/xsd/sumoConfiguration.xsd">

    <input>
        <net-file value="osm.net.xml"/>
        <route-files value="xml/route_rl_cluster_11657899598_353811979_6712514804_4.rou.xml"/>
    </input>

    <output>
        <tripinfo-output value="xml/tripinfo_rl_cluster_11657899598_353811979_6712514804_4.xml"/>
    </output>

    <traci_server>
        <remote-port value="56707"/>
    </traci_server>

</configuration>
-->

<tripinfos xmlns:xsi="http://www.w3.org/2001/XMLSchema-instance" xsi:noNamespaceSchemaLocation="http://sumo.dlr.de/xsd/tripinfo_file.xsd">
    <tripinfo id="flow_route_136_duration_20250327_2130.0" depart="0.00" departLane="688883939#0_0" departPos="70.95" departSpeed="0.00" departDelay="0.00" arrival="22.00" arrivalLane="186410975#0_1" arrivalPos="11.74" arrivalSpeed="11.21" duration="22.00" routeLength="133.80" waitingTime="1.00" waitingCount="1" stopTime="0.00" timeLoss="11.77" rerouteNo="0" devices="tripinfo_flow_route_136_duration_20250327_2130.0" vType="car" speedFactor="1.01" vaporized=""/>
    <tripinfo id="flow_route_137_duration_20250327_2130.0" depart="0.00" departLane="1310781056_0" departPos="52.86" departSpeed="0.00" departDelay="0.00" arrival="22.00" arrivalLane="714011134#0_0" arrivalPos="51.79" arrivalSpeed="16.36" duration="22.00" routeLength="192.73" waitingTime="0.00" waitingCount="0" stopTime="0.00" timeLoss="10.00" rerouteNo="0" devices="tripinfo_flow_route_137_duration_20250327_2130.0" vType="car" speedFactor="1.08" vaporized=""/>
    <tripinfo id="flow_route_139_duration_20250327_2130.0" depart="1.00" departLane="1310781056_0" departPos="36.51" departSpeed="0.00" departDelay="1.00" arrival="26.00" arrivalLane="1254157399#1_1" arrivalPos="26.95" arrivalSpeed="10.18" duration="25.00" routeLength="180.27" waitingTime="0.00" waitingCount="0" stopTime="0.00" timeLoss="12.52" rerouteNo="0" devices="tripinfo_flow_route_139_duration_20250327_2130.0" vType="car" speedFactor="0.83" vaporized=""/>
    <tripinfo id="flow_route_134_duration_20250327_2130.0" depart="0.00" departLane="688883939#0_0" departPos="78.56" departSpeed="0.00" departDelay="0.00" arrival="29.00" arrivalLane="809719540#0_0" arrivalPos="239.32" arrivalSpeed="16.31" duration="29.00" routeLength="300.42" waitingTime="0.00" waitingCount="0" stopTime="0.00" timeLoss="9.94" rerouteNo="0" devices="tripinfo_flow_route_134_duration_20250327_2130.0" vType="car" speedFactor="1.06" vaporized=""/>
    <tripinfo id="flow_route_136_duration_20250327_2130.1" depart="9.00" departLane="688883939#0_0" departPos="72.23" departSpeed="0.00" departDelay="0.43" arrival="31.00" arrivalLane="186410975#0_1" arrivalPos="7.70" arrivalSpeed="9.61" duration="22.00" routeLength="128.49" waitingTime="0.00" waitingCount="0" stopTime="0.00" timeLoss="10.76" rerouteNo="0" devices="tripinfo_flow_route_136_duration_20250327_2130.1" vType="car" speedFactor="0.88" vaporized=""/>
    <tripinfo id="flow_route_138_duration_20250327_2130.0" depart="1.00" departLane="1310781056_0" departPos="99.29" departSpeed="0.00" departDelay="1.00" arrival="35.00" arrivalLane="186410975#0_0" arrivalPos="152.27" arrivalSpeed="11.22" duration="34.00" routeLength="305.80" waitingTime="0.00" waitingCount="0" stopTime="0.00" timeLoss="10.70" rerouteNo="0" devices="tripinfo_flow_route_138_duration_20250327_2130.0" vType="car" speedFactor="1.03" vaporized=""/>
    <tripinfo id="flow_route_136_duration_20250327_2130.2" depart="18.00" departLane="688883939#0_0" departPos="67.65" departSpeed="0.00" departDelay="0.86" arrival="43.00" arrivalLane="186410975#0_1" arrivalPos="47.33" arrivalSpeed="10.22" duration="25.00" routeLength="172.70" waitingTime="0.00" waitingCount="0" stopTime="0.00" timeLoss="10.51" rerouteNo="0" devices="tripinfo_flow_route_136_duration_20250327_2130.2" vType="car" speedFactor="0.95" vaporized=""/>
    <tripinfo id="flow_route_135_duration_20250327_2130.0" depart="0.00" departLane="688883939#0_0" departPos="0.64" departSpeed="0.00" departDelay="0.00" arrival="45.00" arrivalLane="1254157399#1_0" arrivalPos="440.36" arrivalSpeed="16.22" duration="45.00" routeLength="573.44" waitingTime="0.00" waitingCount="0" stopTime="0.00" timeLoss="9.22" rerouteNo="0" devices="tripinfo_flow_route_135_duration_20250327_2130.0" vType="car" speedFactor="0.94" vaporized=""/>
    <tripinfo id="flow_route_152_duration_20250327_2130.2" depart="7.00" departLane="31861355#0_0" departPos="475.38" departSpeed="0.00" departDelay="0.69" arrival="49.00" arrivalLane="714011134#0_1" arrivalPos="3.42" arrivalSpeed="8.42" duration="42.00" routeLength="188.92" waitingTime="8.00" waitingCount="1" stopTime="0.00" timeLoss="30.31" rerouteNo="0" devices="tripinfo_flow_route_152_duration_20250327_2130.2" vType="car" speedFactor="0.99" vaporized=""/>
    <tripinfo id="flow_route_153_duration_20250327_2130.3" depart="17.00" departLane="31861355#0_0" departPos="593.77" departSpeed="0.00" departDelay="0.64" arrival="50.00" arrivalLane="809719540#0_0" arrivalPos="45.23" arrivalSpeed="9.70" duration="33.00" routeLength="82.57" waitingTime="13.00" waitingCount="1" stopTime="0.00" timeLoss="26.37" rerouteNo="0" devices="tripinfo_flow_route_153_duration_20250327_2130.3" vType="car" speedFactor="0.92" vaporized=""/>
    <tripinfo id="flow_route_139_duration_20250327_2130.1" depart="7.00" departLane="1310781056_0" departPos="34.22" departSpeed="0.00" departDelay="2.39" arrival="55.00" arrivalLane="1254157399#1_0" arrivalPos="391.52" arrivalSpeed="16.59" duration="48.00" routeLength="547.13" waitingTime="0.00" waitingCount="0" stopTime="0.00" timeLoss="13.04" rerouteNo="0" devices="tripinfo_flow_route_139_duration_20250327_2130.1" vType="car" speedFactor="1.03" vaporized=""/>
    <tripinfo id="flow_route_153_duration_20250327_2130.2" depart="13.00" departLane="31861355#0_0" departPos="504.72" departSpeed="0.00" departDelay="2.09" arrival="57.00" arrivalLane="809719540#0_0" arrivalPos="70.93" arrivalSpeed="11.39" duration="44.00" routeLength="197.32" waitingTime="8.00" waitingCount="1" stopTime="0.00" timeLoss="31.45" rerouteNo="0" devices="tripinfo_flow_route_153_duration_20250327_2130.2" vType="car" speedFactor="1.02" vaporized=""/>
    <tripinfo id="flow_route_151_duration_20250327_2130.7" depart="19.00" departLane="31861355#0_0" departPos="577.11" departSpeed="0.00" departDelay="0.74" arrival="57.00" arrivalLane="186410975#0_0" arrivalPos="7.19" arrivalSpeed="10.29" duration="38.00" routeLength="157.29" waitingTime="9.00" waitingCount="1" stopTime="0.00" timeLoss="27.97" rerouteNo="0" devices="tripinfo_flow_route_151_duration_20250327_2130.7" vType="car" speedFactor="0.93" vaporized=""/>
    <tripinfo id="flow_route_152_duration_20250327_2130.0" depart="0.00" departLane="31861355#0_0" departPos="164.48" departSpeed="0.00" departDelay="0.00" arrival="58.00" arrivalLane="714011134#0_1" arrivalPos="26.08" arrivalSpeed="12.15" duration="58.00" routeLength="522.49" waitingTime="0.00" waitingCount="0" stopTime="0.00" timeLoss="22.15" rerouteNo="0" devices="tripinfo_flow_route_152_duration_20250327_2130.0" vType="car" speedFactor="0.89" vaporized=""/>
    <tripinfo id="flow_route_151_duration_20250327_2130.3" depart="8.00" departLane="31861355#0_0" departPos="594.82" departSpeed="0.00" departDelay="0.18" arrival="58.00" arrivalLane="186410975#0_0" arrivalPos="41.07" arrivalSpeed="9.90" duration="50.00" routeLength="173.46" waitingTime="18.00" waitingCount="1" stopTime="0.00" timeLoss="36.67" rerouteNo="0" devices="tripinfo_flow_route_151_duration_20250327_2130.3" vType="car" speedFactor="0.93" vaporized=""/>
    <tripinfo id="flow_route_152_duration_20250327_2130.8" depart="32.00" departLane="31861355#0_0" departPos="543.36" departSpeed="0.00" departDelay="6.74" arrival="61.00" arrivalLane="714011134#0_1" arrivalPos="44.60" arrivalSpeed="13.08" duration="29.00" routeLength="162.13" waitingTime="0.00" waitingCount="0" stopTime="0.00" timeLoss="19.15" rerouteNo="0" devices="tripinfo_flow_route_152_duration_20250327_2130.8" vType="car" speedFactor="1.18" vaporized=""/>
    <tripinfo id="flow_route_139_duration_20250327_2130.3" depart="14.00" departLane="1310781056_0" departPos="67.61" departSpeed="0.00" departDelay="0.16" arrival="64.00" arrivalLane="1254157399#1_0" arrivalPos="412.94" arrivalSpeed="16.17" duration="50.00" routeLength="535.15" waitingTime="0.00" waitingCount="0" stopTime="0.00" timeLoss="15.34" rerouteNo="0" devices="tripinfo_flow_route_139_duration_20250327_2130.3" vType="car" speedFactor="0.97" vaporized=""/>
    <tripinfo id="flow_route_152_duration_20250327_2130.5" depart="16.00" departLane="31861355#0_0" departPos="360.69" departSpeed="0.00" departDelay="0.22" arrival="65.00" arrivalLane="714011134#0_1" arrivalPos="32.44" arrivalSpeed="13.68" duration="49.00" routeLength="332.63" waitingTime="0.00" waitingCount="0" stopTime="0.00" timeLoss="25.25" rerouteNo="0" devices="tripinfo_flow_route_152_duration_20250327_2130.5" vType="car" speedFactor="0.87" vaporized=""/>
    <tripinfo id="flow_route_152_duration_20250327_2130.7" depart="24.00" departLane="31861355#0_0" departPos="448.87" departSpeed="0.00" departDelay="1.90" arrival="65.00" arrivalLane="714011134#0_1" arrivalPos="59.77" arrivalSpeed="14.84" duration="41.00" routeLength="271.78" waitingTime="0.00" waitingCount="0" stopTime="0.00" timeLoss="23.80" rerouteNo="0" devices="tripinfo_flow_route_152_duration_20250327_2130.7" vType="car" speedFactor="1.17" vaporized=""/>
    <tripinfo id="flow_route_152_duration_20250327_2130.3" depart="10.00" departLane="31861355#0_0" departPos="255.78" departSpeed="0.00" departDelay="0.53" arrival="69.00" arrivalLane="714011134#0_1" arrivalPos="13.63" arrivalSpeed="12.91" duration="59.00" routeLength="418.74" waitingTime="0.00" waitingCount="0" stopTime="0.00" timeLoss="32.06" rerouteNo="0" devices="tripinfo_flow_route_152_duration_20250327_2130.3" vType="car" speedFactor="0.94" vaporized=""/>
    <tripinfo id="flow_route_152_duration_20250327_2130.12" depart="44.00" departLane="31861355#0_0" departPos="551.68" departSpeed="0.00" departDelay="6.12" arrival="70.00" arrivalLane="714011134#0_1" arrivalPos="89.11" arrivalSpeed="15.94" duration="26.00" routeLength="198.31" waitingTime="0.00" waitingCount="0" stopTime="0.00" timeLoss="13.75" rerouteNo="0" devices="tripinfo_flow_route_152_duration_20250327_2130.12" vType="car" speedFactor="1.10" vaporized=""/>
    <tripinfo id="flow_route_151_duration_20250327_2130.16" depart="47.00" departLane="31861355#0_0" departPos="571.21" departSpeed="0.00" departDelay="5.27" arrival="70.00" arrivalLane="186410975#0_0" arrivalPos="26.55" arrivalSpeed="12.41" duration="23.00" routeLength="182.55" waitingTime="0.00" waitingCount="0" stopTime="0.00" timeLoss="10.66" rerouteNo="0" devices="tripinfo_flow_route_151_duration_20250327_2130.16" vType="car" speedFactor="1.14" vaporized=""/>
    <tripinfo id="flow_route_152_duration_20250327_2130.1" depart="4.00" departLane="31861355#0_0" departPos="190.94" departSpeed="0.00" departDelay="0.84" arrival="71.00" arrivalLane="714011134#0_1" arrivalPos="54.06" arrivalSpeed="15.40" duration="67.00" routeLength="524.01" waitingTime="1.00" waitingCount="1" stopTime="0.00" timeLoss="34.54" rerouteNo="0" devices="tripinfo_flow_route_152_duration_20250327_2130.1" vType="car" speedFactor="1.09" vaporized=""/>
    <tripinfo id="flow_route_151_duration_20250327_2130.5" depart="15.00" departLane="31861355#0_0" departPos="581.43" departSpeed="0.00" departDelay="1.96" arrival="72.00" arrivalLane="186410975#0_0" arrivalPos="184.69" arrivalSpeed="9.71" duration="57.00" routeLength="330.48" waitingTime="9.00" waitingCount="1" stopTime="0.00" timeLoss="28.78" rerouteNo="0" devices="tripinfo_flow_route_151_duration_20250327_2130.5" vType="car" speedFactor="0.89" vaporized=""/>
    <tripinfo id="flow_route_151_duration_20250327_2130.0" depart="0.00" departLane="31861355#0_0" departPos="352.12" departSpeed="0.00" departDelay="0.00" arrival="73.00" arrivalLane="186410975#0_1" arrivalPos="191.84" arrivalSpeed="11.46" duration="73.00" routeLength="566.94" waitingTime="7.00" waitingCount="1" stopTime="0.00" timeLoss="33.37" rerouteNo="0" devices="tripinfo_flow_route_151_duration_20250327_2130.0" vType="car" speedFactor="1.05" vaporized=""/>
    <tripinfo id="flow_route_151_duration_20250327_2130.9" depart="26.00" departLane="31861355#0_0" departPos="382.48" departSpeed="0.00" departDelay="2.53" arrival="73.00" arrivalLane="186410975#0_1" arrivalPos="20.65" arrivalSpeed="11.06" duration="47.00" routeLength="365.37" waitingTime="0.00" waitingCount="0" stopTime="0.00" timeLoss="23.68" rerouteNo="0" devices="tripinfo_flow_route_151_duration_20250327_2130.9" vType="car" speedFactor="1.02" vaporized=""/>
    <tripinfo id="flow_route_152_duration_20250327_2130.4" depart="13.00" departLane="31861355#0_0" departPos="55.35" departSpeed="0.00" departDelay="0.37" arrival="77.00" arrivalLane="714011134#0_1" arrivalPos="25.44" arrivalSpeed="14.30" duration="64.00" routeLength="630.96" waitingTime="0.00" waitingCount="0" stopTime="0.00" timeLoss="25.33" rerouteNo="0" devices="tripinfo_flow_route_152_duration_20250327_2130.4" vType="car" speedFactor="1.01" vaporized=""/>
    <tripinfo id="flow_route_151_duration_20250327_2130.11" depart="33.00" departLane="31861355#0_0" departPos="434.95" departSpeed="0.00" departDelay="4.31" arrival="77.00" arrivalLane="186410975#0_0" arrivalPos="78.14" arrivalSpeed="10.62" duration="44.00" routeLength="370.40" waitingTime="0.00" waitingCount="0" stopTime="0.00" timeLoss="18.08" rerouteNo="0" devices="tripinfo_flow_route_151_duration_20250327_2130.11" vType="car" speedFactor="0.96" vaporized=""/>
    <tripinfo id="flow_route_151_duration_20250327_2130.2" depart="6.00" departLane="31861355#0_0" departPos="338.46" departSpeed="0.00" departDelay="0.78" arrival="78.00" arrivalLane="186410975#0_1" arrivalPos="212.76" arrivalSpeed="11.44" duration="72.00" routeLength="601.51" waitingTime="4.00" waitingCount="1" stopTime="0.00" timeLoss="29.35" rerouteNo="0" devices="tripinfo_flow_route_151_duration_20250327_2130.2" vType="car" speedFactor="1.05" vaporized=""/>
    <tripinfo id="flow_route_153_duration_20250327_2130.1" depart="6.00" departLane="31861355#0_0" departPos="147.19" departSpeed="0.00" departDelay="0.55" arrival="85.00" arrivalLane="809719540#0_0" arrivalPos="238.42" arrivalSpeed="16.56" duration="79.00" routeLength="722.33" waitingTime="0.00" waitingCount="0" stopTime="0.00" timeLoss="34.59" rerouteNo="0" devices="tripinfo_flow_route_153_duration_20250327_2130.1" vType="car" speedFactor="1.12" vaporized=""/>
    <tripinfo id="flow_route_151_duration_20250327_2130.14" depart="41.00" departLane="31861355#0_0" departPos="423.36" departSpeed="0.00" departDelay="4.49" arrival="86.00" arrivalLane="186410975#0_0" arrivalPos="100.83" arrivalSpeed="11.22" duration="45.00" routeLength="404.69" waitingTime="0.00" waitingCount="0" stopTime="0.00" timeLoss="17.25" rerouteNo="0" devices="tripinfo_flow_route_151_duration_20250327_2130.14" vType="car" speedFactor="1.02" vaporized=""/>
    <tripinfo id="flow_route_139_duration_20250327_2130.5" depart="24.00" departLane="1310781056_0" departPos="39.90" departSpeed="0.00" departDelay="0.93" arrival="92.00" arrivalLane="1254157399#1_1" arrivalPos="28.95" arrivalSpeed="10.69" duration="68.00" routeLength="178.88" waitingTime="35.00" waitingCount="1" stopTime="0.00" timeLoss="55.52" rerouteNo="0" devices="tripinfo_flow_route_139_duration_20250327_2130.5" vType="car" speedFactor="0.99" vaporized=""/>
    <tripinfo id="flow_route_139_duration_20250327_2130.8" depart="37.00" departLane="1310781056_0" departPos="110.93" departSpeed="0.00" departDelay="0.08" arrival="93.00" arrivalLane="1254157399#1_1" arrivalPos="26.33" arrivalSpeed="10.35" duration="56.00" routeLength="105.23" waitingTime="30.00" waitingCount="1" stopTime="0.00" timeLoss="48.83" rerouteNo="0" devices="tripinfo_flow_route_139_duration_20250327_2130.8" vType="car" speedFactor="1.17" vaporized=""/>
    <tripinfo id="flow_route_139_duration_20250327_2130.4" depart="19.00" departLane="1310781056_0" departPos="62.00" departSpeed="0.00" departDelay="0.54" arrival="95.00" arrivalLane="1254157399#1_1" arrivalPos="93.84" arrivalSpeed="14.00" duration="76.00" routeLength="221.67" waitingTime="36.00" waitingCount="1" stopTime="0.00" timeLoss="61.39" rerouteNo="0" devices="tripinfo_flow_route_139_duration_20250327_2130.4" vType="car" speedFactor="1.13" vaporized=""/>
    <tripinfo id="flow_route_136_duration_20250327_2130.4" depart="35.00" departLane="688883939#0_0" departPos="39.18" departSpeed="0.00" departDelay="0.72" arrival="95.00" arrivalLane="186410975#0_1" arrivalPos="32.08" arrivalSpeed="9.39" duration="60.00" routeLength="185.92" waitingTime="26.00" waitingCount="1" stopTime="0.00" timeLoss="43.78" rerouteNo="0" devices="tripinfo_flow_route_136_duration_20250327_2130.4" vType="car" speedFactor="0.85" vaporized=""/>
    <tripinfo id="flow_route_151_duration_20250327_2130.1" depart="3.00" departLane="31861355#0_0" departPos="28.73" departSpeed="0.00" departDelay="0.39" arrival="97.00" arrivalLane="186410975#0_0" arrivalPos="176.45" arrivalSpeed="9.18" duration="94.00" routeLength="874.93" waitingTime="0.00" waitingCount="0" stopTime="0.00" timeLoss="26.94" rerouteNo="0" devices="tripinfo_flow_route_151_duration_20250327_2130.1" vType="car" speedFactor="0.86" vaporized=""/>
    <tripinfo id="flow_route_139_duration_20250327_2130.2" depart="10.00" departLane="1310781056_0" departPos="14.22" departSpeed="0.00" departDelay="0.77" arrival="99.00" arrivalLane="1254157399#1_1" arrivalPos="204.76" arrivalSpeed="16.34" duration="89.00" routeLength="380.38" waitingTime="38.00" waitingCount="1" stopTime="0.00" timeLoss="64.67" rerouteNo="0" devices="tripinfo_flow_route_139_duration_20250327_2130.2" vType="car" speedFactor="0.94" vaporized=""/>
    <tripinfo id="flow_route_151_duration_20250327_2130.6" depart="16.00" departLane="31861355#0_0" departPos="306.29" departSpeed="0.00" departDelay="0.35" arrival="103.00" arrivalLane="186410975#0_0" arrivalPos="247.77" arrivalSpeed="8.84" duration="87.00" routeLength="668.69" waitingTime="0.00" waitingCount="0" stopTime="0.00" timeLoss="29.67" rerouteNo="0" devices="tripinfo_flow_route_151_duration_20250327_2130.6" vType="car" speedFactor="0.83" vaporized=""/>
    <tripinfo id="flow_route_136_duration_20250327_2130.6" depart="52.00" departLane="688883939#0_0" departPos="34.10" departSpeed="0.00" departDelay="0.57" arrival="104.00" arrivalLane="186410975#0_1" arrivalPos="85.91" arrivalSpeed="11.21" duration="52.00" routeLength="244.83" waitingTime="12.00" waitingCount="1" stopTime="0.00" timeLoss="32.65" rerouteNo="0" devices="tripinfo_flow_route_136_duration_20250327_2130.6" vType="car" speedFactor="1.02" vaporized=""/>
    <tripinfo id="flow_route_136_duration_20250327_2130.3" depart="26.00" departLane="688883939#0_0" departPos="41.09" departSpeed="0.00" departDelay="0.29" arrival="106.00" arrivalLane="186410975#0_0" arrivalPos="175.17" arrivalSpeed="10.81" duration="80.00" routeLength="327.10" waitingTime="34.00" waitingCount="1" stopTime="0.00" timeLoss="52.34" rerouteNo="0" devices="tripinfo_flow_route_136_duration_20250327_2130.3" vType="car" speedFactor="0.97" vaporized=""/>
    <tripinfo id="flow_route_139_duration_20250327_2130.7" depart="33.00" departLane="1310781056_0" departPos="88.57" departSpeed="0.00" departDelay="0.70" arrival="108.00" arrivalLane="1254157399#1_0" arrivalPos="183.14" arrivalSpeed="16.49" duration="75.00" routeLength="284.41" waitingTime="29.00" waitingCount="1" stopTime="0.00" timeLoss="55.88" rerouteNo="0" devices="tripinfo_flow_route_139_duration_20250327_2130.7" vType="car" speedFactor="1.00" vaporized=""/>
    <tripinfo id="flow_route_135_duration_20250327_2130.1" depart="30.00" departLane="688883939#0_0" departPos="51.94" departSpeed="0.00" departDelay="0.00" arrival="110.00" arrivalLane="1254157399#1_0" arrivalPos="386.42" arrivalSpeed="16.40" duration="80.00" routeLength="468.20" waitingTime="30.00" waitingCount="1" stopTime="0.00" timeLoss="50.97" rerouteNo="0" devices="tripinfo_flow_route_135_duration_20250327_2130.1" vType="car" speedFactor="1.04" vaporized=""/>
    <tripinfo id="flow_route_139_duration_20250327_2130.6" depart="28.00" departLane="1310781056_0" departPos="2.70" departSpeed="0.00" departDelay="0.31" arrival="115.00" arrivalLane="1254157399#1_0" arrivalPos="257.84" arrivalSpeed="16.26" duration="87.00" routeLength="444.96" waitingTime="28.00" waitingCount="1" stopTime="0.00" timeLoss="57.78" rerouteNo="0" devices="tripinfo_flow_route_139_duration_20250327_2130.6" vType="car" speedFactor="0.90" vaporized=""/>
    <tripinfo id="flow_route_136_duration_20250327_2130.5" depart="43.00" departLane="688883939#0_0" departPos="1.54" departSpeed="0.00" departDelay="0.15" arrival="117.00" arrivalLane="186410975#0_0" arrivalPos="243.86" arrivalSpeed="10.57" duration="74.00" routeLength="435.34" waitingTime="16.00" waitingCount="1" stopTime="0.00" timeLoss="37.64" rerouteNo="0" devices="tripinfo_flow_route_136_duration_20250327_2130.5" vType="car" speedFactor="0.97" vaporized=""/>
    <tripinfo id="flow_route_139_duration_20250327_2130.12" depart="56.00" departLane="1310781056_0" departPos="36.38" departSpeed="0.00" departDelay="0.62" arrival="117.00" arrivalLane="1254157399#1_1" arrivalPos="140.76" arrivalSpeed="16.50" duration="61.00" routeLength="294.21" waitingTime="15.00" waitingCount="1" stopTime="0.00" timeLoss="41.57" rerouteNo="0" devices="tripinfo_flow_route_139_duration_20250327_2130.12" vType="car" speedFactor="0.98" vaporized=""/>
    <tripinfo id="flow_route_139_duration_20250327_2130.10" depart="47.00" departLane="1310781056_0" departPos="46.70" departSpeed="0.00" departDelay="0.85" arrival="120.00" arrivalLane="1254157399#1_0" arrivalPos="209.43" arrivalSpeed="16.27" duration="73.00" routeLength="352.56" waitingTime="21.00" waitingCount="1" stopTime="0.00" timeLoss="49.81" rerouteNo="0" devices="tripinfo_flow_route_139_duration_20250327_2130.10" vType="car" speedFactor="0.99" vaporized=""/>
    <tripinfo id="flow_route_139_duration_20250327_2130.9" depart="42.00" departLane="1310781056_0" departPos="93.11" departSpeed="0.00" departDelay="0.47" arrival="123.00" arrivalLane="1254157399#1_0" arrivalPos="354.35" arrivalSpeed="16.22" duration="81.00" routeLength="451.07" waitingTime="27.00" waitingCount="1" stopTime="0.00" timeLoss="52.24" rerouteNo="0" devices="tripinfo_flow_route_139_duration_20250327_2130.9" vType="car" speedFactor="0.90" vaporized=""/>
    <tripinfo id="flow_route_152_duration_20250327_2130.15" depart="55.00" departLane="31861355#0_0" departPos="490.93" departSpeed="0.00" departDelay="7.65" arrival="125.00" arrivalLane="714011134#0_1" arrivalPos="12.05" arrivalSpeed="9.60" duration="70.00" routeLength="182.00" waitingTime="36.00" waitingCount="1" stopTime="0.00" timeLoss="57.14" rerouteNo="0" devices="tripinfo_flow_route_152_duration_20250327_2130.15" vType="car" speedFactor="0.88" vaporized=""/>
    <tripinfo id="flow_route_152_duration_20250327_2130.6" depart="19.00" departLane="31861355#0_0" departPos="41.64" departSpeed="0.00" departDelay="0.06" arrival="133.00" arrivalLane="714011134#0_1" arrivalPos="29.39" arrivalSpeed="12.42" duration="114.00" routeLength="648.62" waitingTime="34.00" waitingCount="2" stopTime="0.00" timeLoss="74.53" rerouteNo="0" devices="tripinfo_flow_route_152_duration_20250327_2130.6" vType="car" speedFactor="1.18" vaporized=""/>
    <tripinfo id="flow_route_152_duration_20250327_2130.9" depart="33.00" departLane="31861355#0_0" departPos="63.13" departSpeed="0.00" departDelay="4.59" arrival="135.00" arrivalLane="714011134#0_1" arrivalPos="11.04" arrivalSpeed="11.36" duration="102.00" routeLength="608.79" waitingTime="33.00" waitingCount="1" stopTime="0.00" timeLoss="65.31" rerouteNo="0" devices="tripinfo_flow_route_152_duration_20250327_2130.9" vType="car" speedFactor="1.09" vaporized=""/>
    <tripinfo id="flow_route_153_duration_20250327_2130.0" depart="0.00" departLane="31861355#0_0" departPos="37.47" departSpeed="0.00" departDelay="0.00" arrival="139.00" arrivalLane="809719540#0_0" arrivalPos="146.46" arrivalSpeed="15.38" duration="139.00" routeLength="740.10" waitingTime="34.00" waitingCount="1" stopTime="0.00" timeLoss="89.59" rerouteNo="0" devices="tripinfo_flow_route_153_duration_20250327_2130.0" vType="car" speedFactor="0.94" vaporized=""/>
    <tripinfo id="flow_route_139_duration_20250327_2130.11" depart="51.00" departLane="1310781056_0" departPos="95.67" departSpeed="0.00" departDelay="0.24" arrival="139.00" arrivalLane="1254157399#1_0" arrivalPos="578.60" arrivalSpeed="16.21" duration="88.00" routeLength="672.76" waitingTime="25.00" waitingCount="1" stopTime="0.00" timeLoss="45.52" rerouteNo="0" devices="tripinfo_flow_route_139_duration_20250327_2130.11" vType="car" speedFactor="1.04" vaporized=""/>
    <tripinfo id="flow_route_152_duration_20250327_2130.10" depart="35.00" departLane="31861355#0_0" departPos="87.77" departSpeed="0.00" departDelay="3.43" arrival="140.00" arrivalLane="714011134#0_1" arrivalPos="48.03" arrivalSpeed="14.15" duration="105.00" routeLength="621.14" waitingTime="32.00" waitingCount="1" stopTime="0.00" timeLoss="67.37" rerouteNo="0" devices="tripinfo_flow_route_152_duration_20250327_2130.10" vType="car" speedFactor="1.09" vaporized=""/>
    <tripinfo id="flow_route_151_duration_20250327_2130.13" depart="40.00" departLane="31861355#0_0" departPos="366.30" departSpeed="0.00" departDelay="6.10" arrival="140.00" arrivalLane="186410975#0_1" arrivalPos="72.58" arrivalSpeed="9.26" duration="100.00" routeLength="433.49" waitingTime="35.00" waitingCount="1" stopTime="0.00" timeLoss="68.29" rerouteNo="0" devices="tripinfo_flow_route_151_duration_20250327_2130.13" vType="car" speedFactor="0.88" vaporized=""/>
    <tripinfo id="flow_route_151_duration_20250327_2130.8" depart="22.00" departLane="31861355#0_0" departPos="210.80" departSpeed="0.00" departDelay="1.14" arrival="141.00" arrivalLane="186410975#0_1" arrivalPos="46.20" arrivalSpeed="10.90" duration="119.00" routeLength="562.60" waitingTime="31.00" waitingCount="1" stopTime="0.00" timeLoss="84.24" rerouteNo="0" devices="tripinfo_flow_route_151_duration_20250327_2130.8" vType="car" speedFactor="1.15" vaporized=""/>
    <tripinfo id="flow_route_153_duration_20250327_2130.6" depart="40.00" departLane="31861355#0_0" departPos="267.91" departSpeed="0.00" departDelay="7.28" arrival="143.00" arrivalLane="809719540#0_0" arrivalPos="110.42" arrivalSpeed="14.11" duration="103.00" routeLength="473.61" waitingTime="34.00" waitingCount="1" stopTime="0.00" timeLoss="69.30" rerouteNo="0" devices="tripinfo_flow_route_153_duration_20250327_2130.6" vType="car" speedFactor="0.90" vaporized=""/>
    <tripinfo id="flow_route_152_duration_20250327_2130.14" depart="52.00" departLane="31861355#0_0" departPos="95.35" departSpeed="0.00" departDelay="7.80" arrival="143.00" arrivalLane="714011134#0_1" arrivalPos="17.65" arrivalSpeed="13.37" duration="91.00" routeLength="583.18" waitingTime="29.00" waitingCount="1" stopTime="0.00" timeLoss="55.67" rerouteNo="0" devices="tripinfo_flow_route_152_duration_20250327_2130.14" vType="car" speedFactor="1.02" vaporized=""/>
    <tripinfo id="flow_route_153_duration_20250327_2130.5" depart="33.00" departLane="31861355#0_0" departPos="213.20" departSpeed="0.00" departDelay="5.73" arrival="144.00" arrivalLane="809719540#0_0" arrivalPos="98.09" arrivalSpeed="13.15" duration="111.00" routeLength="515.99" waitingTime="34.00" waitingCount="1" stopTime="0.00" timeLoss="78.08" rerouteNo="0" devices="tripinfo_flow_route_153_duration_20250327_2130.5" vType="car" speedFactor="1.03" vaporized=""/>
    <tripinfo id="flow_route_152_duration_20250327_2130.11" depart="40.00" departLane="31861355#0_0" departPos="172.42" departSpeed="0.00" departDelay="5.27" arrival="144.00" arrivalLane="714011134#0_1" arrivalPos="75.17" arrivalSpeed="13.97" duration="104.00" routeLength="563.63" waitingTime="31.00" waitingCount="1" stopTime="0.00" timeLoss="63.79" rerouteNo="0" devices="tripinfo_flow_route_152_duration_20250327_2130.11" vType="car" speedFactor="0.85" vaporized=""/>
    <tripinfo id="flow_route_153_duration_20250327_2130.4" depart="23.00" departLane="31861355#0_0" departPos="128.82" departSpeed="0.00" departDelay="1.18" arrival="145.00" arrivalLane="809719540#0_0" arrivalPos="84.30" arrivalSpeed="13.15" duration="122.00" routeLength="586.59" waitingTime="34.00" waitingCount="1" stopTime="0.00" timeLoss="85.25" rerouteNo="0" devices="tripinfo_flow_route_153_duration_20250327_2130.4" vType="car" speedFactor="1.01" vaporized=""/>
    <tripinfo id="flow_route_151_duration_20250327_2130.10" depart="32.00" departLane="31861355#0_0" departPos="356.70" departSpeed="0.00" departDelay="5.92" arrival="145.00" arrivalLane="186410975#0_0" arrivalPos="213.08" arrivalSpeed="12.18" duration="113.00" routeLength="583.59" waitingTime="36.00" waitingCount="1" stopTime="0.00" timeLoss="73.21" rerouteNo="0" devices="tripinfo_flow_route_151_duration_20250327_2130.10" vType="car" speedFactor="1.10" vaporized=""/>
    <tripinfo id="flow_route_151_duration_20250327_2130.20" depart="62.00" departLane="31861355#0_0" departPos="570.83" departSpeed="0.00" departDelay="9.84" arrival="147.00" arrivalLane="186410975#0_0" arrivalPos="186.65" arrivalSpeed="10.41" duration="85.00" routeLength="343.03" waitingTime="37.00" waitingCount="1" stopTime="0.00" timeLoss="57.51" rerouteNo="0" devices="tripinfo_flow_route_151_duration_20250327_2130.20" vType="car" speedFactor="0.97" vaporized=""/>