<?xml version="1.0" encoding="UTF-8"?>

<!-- generated on 2025-05-06 21:09:09 by Eclipse SUMO sumo Version 1.20.0
<configuration xmlns:xsi="http://www.w3.org/2001/XMLSchema-instance" xsi:noNamespaceSchemaLocation="http://sumo.dlr.de/xsd/sumoConfiguration.xsd">

    <input>
        <net-file value="osm.net.xml"/>
        <route-files value="xml/route_static_GS_cluster_1342409365_3839031467_8.rou.xml"/>
    </input>

    <output>
        <tripinfo-output value="xml/tripinfo_static_GS_cluster_1342409365_3839031467_8.xml"/>
    </output>

    <traci_server>
        <remote-port value="59815"/>
    </traci_server>

</configuration>
-->

<tripinfos xmlns:xsi="http://www.w3.org/2001/XMLSchema-instance" xsi:noNamespaceSchemaLocation="http://sumo.dlr.de/xsd/tripinfo_file.xsd">
    <tripinfo id="flow_route_128_duration_20250327_2030.0" depart="0.00" departLane="134133272_0" departPos="226.49" departSpeed="0.00" departDelay="0.00" arrival="31.00" arrivalLane="380585338#0_0" arrivalPos="7.57" arrivalSpeed="5.61" duration="31.00" routeLength="279.28" waitingTime="0.00" waitingCount="0" stopTime="0.00" timeLoss="10.59" rerouteNo="0" devices="tripinfo_flow_route_128_duration_20250327_2030.0" vType="car" speedFactor="0.83" vaporized=""/>
    <tripinfo id="flow_route_91_duration_20250327_2030.0" depart="0.00" departLane="133000063_0" departPos="128.34" departSpeed="0.00" departDelay="0.00" arrival="48.00" arrivalLane="683079387#1_0" arrivalPos="9.10" arrivalSpeed="16.29" duration="48.00" routeLength="599.49" waitingTime="0.00" waitingCount="0" stopTime="0.00" timeLoss="11.62" rerouteNo="0" devices="tripinfo_flow_route_91_duration_20250327_2030.0" vType="car" speedFactor="1.06" vaporized=""/>
    <tripinfo id="flow_route_91_duration_20250327_2030.1" depart="5.00" departLane="133000063_0" departPos="152.88" departSpeed="0.00" departDelay="0.00" arrival="51.00" arrivalLane="683079387#1_0" arrivalPos="9.59" arrivalSpeed="16.56" duration="46.00" routeLength="575.43" waitingTime="0.00" waitingCount="0" stopTime="0.00" timeLoss="10.41" rerouteNo="0" devices="tripinfo_flow_route_91_duration_20250327_2030.1" vType="car" speedFactor="1.03" vaporized=""/>
    <tripinfo id="flow_route_102_duration_20250327_2030.1" depart="10.00" departLane="1342963997_0" departPos="173.19" departSpeed="0.00" departDelay="0.00" arrival="61.00" arrivalLane="380585336_1" arrivalPos="54.51" arrivalSpeed="16.56" duration="51.00" routeLength="592.27" waitingTime="0.00" waitingCount="0" stopTime="0.00" timeLoss="14.58" rerouteNo="0" devices="tripinfo_flow_route_102_duration_20250327_2030.1" vType="car" speedFactor="1.16" vaporized=""/>
    <tripinfo id="flow_route_93_duration_20250327_2030.0" depart="0.00" departLane="133000063_0" departPos="115.92" departSpeed="0.00" departDelay="0.00" arrival="66.00" arrivalLane="380585336_1" arrivalPos="19.16" arrivalSpeed="16.25" duration="66.00" routeLength="758.54" waitingTime="0.00" waitingCount="0" stopTime="0.00" timeLoss="19.75" rerouteNo="0" devices="tripinfo_flow_route_93_duration_20250327_2030.0" vType="car" speedFactor="1.01" vaporized=""/>
    <tripinfo id="flow_route_103_duration_20250327_2030.0" depart="1.00" departLane="1342963997_0" departPos="57.81" departSpeed="0.00" departDelay="1.00" arrival="66.00" arrivalLane="683079387#1_0" arrivalPos="6.02" arrivalSpeed="16.32" duration="65.00" routeLength="524.42" waitingTime="7.00" waitingCount="1" stopTime="0.00" timeLoss="32.27" rerouteNo="0" devices="tripinfo_flow_route_103_duration_20250327_2030.0" vType="car" speedFactor="1.03" vaporized=""/>
    <tripinfo id="flow_route_145_duration_20250327_2030.0" depart="0.00" departLane="683079388#0_0" departPos="22.61" departSpeed="0.00" departDelay="0.00" arrival="68.00" arrivalLane="380585336_0" arrivalPos="229.76" arrivalSpeed="15.56" duration="68.00" routeLength="831.39" waitingTime="0.00" waitingCount="0" stopTime="0.00" timeLoss="15.00" rerouteNo="0" devices="tripinfo_flow_route_145_duration_20250327_2030.0" vType="car" speedFactor="0.94" vaporized=""/>
    <tripinfo id="flow_route_144_duration_20250327_2030.1" depart="9.00" departLane="683079388#0_0" departPos="24.70" departSpeed="0.00" departDelay="0.43" arrival="69.00" arrivalLane="380585338#0_1" arrivalPos="27.63" arrivalSpeed="8.58" duration="60.00" routeLength="582.67" waitingTime="1.00" waitingCount="1" stopTime="0.00" timeLoss="22.02" rerouteNo="0" devices="tripinfo_flow_route_144_duration_20250327_2030.1" vType="car" speedFactor="0.93" vaporized=""/>
    <tripinfo id="flow_route_144_duration_20250327_2030.0" depart="0.00" departLane="683079388#0_0" departPos="1.56" departSpeed="0.00" departDelay="0.00" arrival="71.00" arrivalLane="380585338#0_0" arrivalPos="42.98" arrivalSpeed="9.17" duration="71.00" routeLength="621.16" waitingTime="8.00" waitingCount="1" stopTime="0.00" timeLoss="28.92" rerouteNo="0" devices="tripinfo_flow_route_144_duration_20250327_2030.0" vType="car" speedFactor="0.89" vaporized=""/>
    <tripinfo id="flow_route_144_duration_20250327_2030.2" depart="18.00" departLane="683079388#0_0" departPos="14.12" departSpeed="0.00" departDelay="0.86" arrival="71.00" arrivalLane="380585338#0_1" arrivalPos="26.37" arrivalSpeed="9.93" duration="53.00" routeLength="591.99" waitingTime="0.00" waitingCount="0" stopTime="0.00" timeLoss="16.94" rerouteNo="0" devices="tripinfo_flow_route_144_duration_20250327_2030.2" vType="car" speedFactor="1.13" vaporized=""/>
    <tripinfo id="flow_route_103_duration_20250327_2030.1" depart="20.00" departLane="1342963997_0" departPos="8.41" departSpeed="0.00" departDelay="0.00" arrival="71.00" arrivalLane="683079387#1_0" arrivalPos="3.46" arrivalSpeed="16.46" duration="51.00" routeLength="571.26" waitingTime="0.00" waitingCount="0" stopTime="0.00" timeLoss="15.60" rerouteNo="0" devices="tripinfo_flow_route_103_duration_20250327_2030.1" vType="car" speedFactor="1.17" vaporized=""/>
    <tripinfo id="flow_route_93_duration_20250327_2030.3" depart="8.00" departLane="133000063_0" departPos="131.68" departSpeed="0.00" departDelay="1.08" arrival="74.00" arrivalLane="380585336_1" arrivalPos="99.74" arrivalSpeed="16.15" duration="66.00" routeLength="823.36" waitingTime="0.00" waitingCount="0" stopTime="0.00" timeLoss="15.88" rerouteNo="0" devices="tripinfo_flow_route_93_duration_20250327_2030.3" vType="car" speedFactor="0.99" vaporized=""/>
    <tripinfo id="flow_route_102_duration_20250327_2030.0" depart="0.00" departLane="1342963997_0" departPos="83.70" departSpeed="0.00" departDelay="0.00" arrival="76.00" arrivalLane="380585336_1" arrivalPos="207.08" arrivalSpeed="16.57" duration="76.00" routeLength="834.32" waitingTime="0.00" waitingCount="0" stopTime="0.00" timeLoss="24.87" rerouteNo="0" devices="tripinfo_flow_route_102_duration_20250327_2030.0" vType="car" speedFactor="1.08" vaporized=""/>
    <tripinfo id="flow_route_145_duration_20250327_2030.1" depart="20.00" departLane="683079388#0_0" departPos="2.07" departSpeed="0.00" departDelay="0.00" arrival="77.00" arrivalLane="380585336_0" arrivalPos="36.24" arrivalSpeed="11.47" duration="57.00" routeLength="658.42" waitingTime="0.00" waitingCount="0" stopTime="0.00" timeLoss="16.80" rerouteNo="0" devices="tripinfo_flow_route_145_duration_20250327_2030.1" vType="car" speedFactor="0.99" vaporized=""/>
    <tripinfo id="flow_route_129_duration_20250327_2030.1" depart="12.00" departLane="134133272_0" departPos="267.23" departSpeed="0.00" departDelay="0.00" arrival="79.00" arrivalLane="683079387#1_1" arrivalPos="5.84" arrivalSpeed="16.16" duration="67.00" routeLength="782.72" waitingTime="0.00" waitingCount="0" stopTime="0.00" timeLoss="18.25" rerouteNo="0" devices="tripinfo_flow_route_129_duration_20250327_2030.1" vType="car" speedFactor="0.97" vaporized=""/>
    <tripinfo id="flow_route_129_duration_20250327_2030.2" depart="24.00" departLane="134133272_0" departPos="390.70" departSpeed="0.00" departDelay="0.00" arrival="80.00" arrivalLane="683079387#1_0" arrivalPos="5.97" arrivalSpeed="14.99" duration="56.00" routeLength="659.38" waitingTime="0.00" waitingCount="0" stopTime="0.00" timeLoss="11.42" rerouteNo="0" devices="tripinfo_flow_route_129_duration_20250327_2030.2" vType="car" speedFactor="0.90" vaporized=""/>
    <tripinfo id="flow_route_129_duration_20250327_2030.0" depart="0.00" departLane="134133272_0" departPos="105.80" departSpeed="0.00" departDelay="0.00" arrival="81.00" arrivalLane="683079387#1_0" arrivalPos="7.59" arrivalSpeed="15.41" duration="81.00" routeLength="945.90" waitingTime="0.00" waitingCount="0" stopTime="0.00" timeLoss="23.77" rerouteNo="0" devices="tripinfo_flow_route_129_duration_20250327_2030.0" vType="car" speedFactor="1.05" vaporized=""/>
    <tripinfo id="flow_route_144_duration_20250327_2030.4" depart="35.00" departLane="683079388#0_0" departPos="25.26" departSpeed="0.00" departDelay="0.72" arrival="81.00" arrivalLane="380585338#0_0" arrivalPos="7.40" arrivalSpeed="16.27" duration="46.00" routeLength="561.88" waitingTime="0.00" waitingCount="0" stopTime="0.00" timeLoss="11.32" rerouteNo="0" devices="tripinfo_flow_route_144_duration_20250327_2030.4" vType="car" speedFactor="1.10" vaporized=""/>
    <tripinfo id="flow_route_144_duration_20250327_2030.3" depart="28.00" departLane="683079388#0_0" departPos="14.81" departSpeed="0.00" departDelay="2.29" arrival="82.00" arrivalLane="380585338#0_0" arrivalPos="152.04" arrivalSpeed="16.37" duration="54.00" routeLength="716.97" waitingTime="0.00" waitingCount="0" stopTime="0.00" timeLoss="10.49" rerouteNo="0" devices="tripinfo_flow_route_144_duration_20250327_2030.3" vType="car" speedFactor="1.09" vaporized=""/>
    <tripinfo id="flow_route_92_duration_20250327_2030.1" depart="4.00" departLane="133000063_0" departPos="109.11" departSpeed="0.00" departDelay="0.67" arrival="87.00" arrivalLane="186409193_0" arrivalPos="29.97" arrivalSpeed="15.73" duration="83.00" routeLength="312.72" waitingTime="35.00" waitingCount="1" stopTime="0.00" timeLoss="63.25" rerouteNo="0" devices="tripinfo_flow_route_92_duration_20250327_2030.1" vType="car" speedFactor="1.09" vaporized=""/>
    <tripinfo id="flow_route_103_duration_20250327_2030.2" depart="41.00" departLane="1342963997_0" departPos="62.10" departSpeed="0.00" departDelay="1.00" arrival="89.00" arrivalLane="683079387#1_0" arrivalPos="9.65" arrivalSpeed="16.45" duration="48.00" routeLength="523.76" waitingTime="0.00" waitingCount="0" stopTime="0.00" timeLoss="15.14" rerouteNo="0" devices="tripinfo_flow_route_103_duration_20250327_2030.2" vType="car" speedFactor="1.02" vaporized=""/>
    <tripinfo id="flow_route_102_duration_20250327_2030.2" depart="20.00" departLane="1342963997_0" departPos="32.44" departSpeed="0.00" departDelay="0.00" arrival="90.00" arrivalLane="380585336_1" arrivalPos="132.25" arrivalSpeed="16.29" duration="70.00" routeLength="810.76" waitingTime="0.00" waitingCount="0" stopTime="0.00" timeLoss="19.89" rerouteNo="0" devices="tripinfo_flow_route_102_duration_20250327_2030.2" vType="car" speedFactor="1.01" vaporized=""/>
    <tripinfo id="flow_route_128_duration_20250327_2030.1" depart="12.00" departLane="134133272_0" departPos="35.61" departSpeed="0.00" departDelay="0.00" arrival="92.00" arrivalLane="380585338#0_0" arrivalPos="29.16" arrivalSpeed="8.24" duration="80.00" routeLength="491.76" waitingTime="16.00" waitingCount="1" stopTime="0.00" timeLoss="49.41" rerouteNo="0" devices="tripinfo_flow_route_128_duration_20250327_2030.1" vType="car" speedFactor="1.01" vaporized=""/>
    <tripinfo id="flow_route_92_duration_20250327_2030.3" depart="12.00" departLane="133000063_0" departPos="41.58" departSpeed="0.00" departDelay="2.00" arrival="100.00" arrivalLane="186409193_0" arrivalPos="40.02" arrivalSpeed="15.21" duration="88.00" routeLength="390.31" waitingTime="28.00" waitingCount="1" stopTime="0.00" timeLoss="61.76" rerouteNo="0" devices="tripinfo_flow_route_92_duration_20250327_2030.3" vType="car" speedFactor="0.94" vaporized=""/>
    <tripinfo id="flow_route_128_duration_20250327_2030.2" depart="24.00" departLane="134133272_0" departPos="146.06" departSpeed="0.00" departDelay="0.00" arrival="100.00" arrivalLane="380585338#0_0" arrivalPos="143.35" arrivalSpeed="15.20" duration="76.00" routeLength="495.49" waitingTime="16.00" waitingCount="1" stopTime="0.00" timeLoss="44.89" rerouteNo="0" devices="tripinfo_flow_route_128_duration_20250327_2030.2" vType="car" speedFactor="1.10" vaporized=""/>
    <tripinfo id="flow_route_92_duration_20250327_2030.2" depart="7.00" departLane="133000063_0" departPos="5.58" departSpeed="0.00" departDelay="0.33" arrival="101.00" arrivalLane="186409193_0" arrivalPos="31.80" arrivalSpeed="14.85" duration="94.00" routeLength="418.08" waitingTime="26.00" waitingCount="1" stopTime="0.00" timeLoss="67.92" rerouteNo="0" devices="tripinfo_flow_route_92_duration_20250327_2030.2" vType="car" speedFactor="1.12" vaporized=""/>
    <tripinfo id="flow_route_128_duration_20250327_2030.3" depart="36.00" departLane="134133272_0" departPos="137.81" departSpeed="0.00" departDelay="0.00" arrival="104.00" arrivalLane="380585338#0_0" arrivalPos="146.82" arrivalSpeed="15.55" duration="68.00" routeLength="507.21" waitingTime="12.00" waitingCount="1" stopTime="0.00" timeLoss="36.47" rerouteNo="0" devices="tripinfo_flow_route_128_duration_20250327_2030.3" vType="car" speedFactor="1.00" vaporized=""/>
    <tripinfo id="flow_route_91_duration_20250327_2030.2" depart="10.00" departLane="133000063_0" departPos="21.60" departSpeed="0.00" departDelay="0.00" arrival="106.00" arrivalLane="683079387#1_0" arrivalPos="0.30" arrivalSpeed="14.22" duration="96.00" routeLength="697.44" waitingTime="20.00" waitingCount="1" stopTime="0.00" timeLoss="48.33" rerouteNo="0" devices="tripinfo_flow_route_91_duration_20250327_2030.2" vType="car" speedFactor="0.88" vaporized=""/>
    <tripinfo id="flow_route_92_duration_20250327_2030.0" depart="0.00" departLane="133000063_0" departPos="1.04" departSpeed="0.00" departDelay="0.00" arrival="107.00" arrivalLane="186409193_0" arrivalPos="41.62" arrivalSpeed="15.43" duration="107.00" routeLength="432.44" waitingTime="33.00" waitingCount="2" stopTime="0.00" timeLoss="78.19" rerouteNo="0" devices="tripinfo_flow_route_92_duration_20250327_2030.0" vType="car" speedFactor="0.94" vaporized=""/>
    <tripinfo id="flow_route_128_duration_20250327_2030.4" depart="48.00" departLane="134133272_0" departPos="133.12" departSpeed="0.00" departDelay="0.00" arrival="107.00" arrivalLane="380585338#0_0" arrivalPos="136.15" arrivalSpeed="15.30" duration="59.00" routeLength="501.23" waitingTime="3.00" waitingCount="1" stopTime="0.00" timeLoss="26.68" rerouteNo="0" devices="tripinfo_flow_route_128_duration_20250327_2030.4" vType="car" speedFactor="0.97" vaporized=""/>
    <tripinfo id="flow_route_92_duration_20250327_2030.7" depart="39.00" departLane="133000063_0" departPos="102.08" departSpeed="0.00" departDelay="15.67" arrival="109.00" arrivalLane="186409193_0" arrivalPos="22.77" arrivalSpeed="14.08" duration="70.00" routeLength="312.54" waitingTime="11.00" waitingCount="1" stopTime="0.00" timeLoss="50.11" rerouteNo="0" devices="tripinfo_flow_route_92_duration_20250327_2030.7" vType="car" speedFactor="0.97" vaporized=""/>
    <tripinfo id="flow_route_91_duration_20250327_2030.3" depart="21.00" departLane="133000063_0" departPos="60.60" departSpeed="0.00" departDelay="6.00" arrival="111.00" arrivalLane="683079387#1_0" arrivalPos="3.14" arrivalSpeed="14.20" duration="90.00" routeLength="661.27" waitingTime="14.00" waitingCount="2" stopTime="0.00" timeLoss="43.88" rerouteNo="0" devices="tripinfo_flow_route_91_duration_20250327_2030.3" vType="car" speedFactor="0.87" vaporized=""/>
    <tripinfo id="flow_route_91_duration_20250327_2030.4" depart="32.00" departLane="133000063_0" departPos="48.44" departSpeed="0.00" departDelay="12.00" arrival="111.00" arrivalLane="683079387#1_1" arrivalPos="1.83" arrivalSpeed="16.16" duration="79.00" routeLength="672.12" waitingTime="11.00" waitingCount="1" stopTime="0.00" timeLoss="38.47" rerouteNo="0" devices="tripinfo_flow_route_91_duration_20250327_2030.4" vType="car" speedFactor="1.18" vaporized=""/>
    <tripinfo id="flow_route_102_duration_20250327_2030.3" depart="30.00" departLane="1342963997_0" departPos="118.84" departSpeed="0.00" departDelay="0.00" arrival="111.00" arrivalLane="380585336_0" arrivalPos="294.73" arrivalSpeed="14.34" duration="81.00" routeLength="886.85" waitingTime="0.00" waitingCount="0" stopTime="0.00" timeLoss="20.70" rerouteNo="0" devices="tripinfo_flow_route_102_duration_20250327_2030.3" vType="car" speedFactor="0.88" vaporized=""/>
    <tripinfo id="flow_route_92_duration_20250327_2030.4" depart="18.00" departLane="133000063_0" departPos="4.79" departSpeed="0.00" departDelay="4.67" arrival="113.00" arrivalLane="186409193_0" arrivalPos="40.40" arrivalSpeed="14.82" duration="95.00" routeLength="427.47" waitingTime="16.00" waitingCount="2" stopTime="0.00" timeLoss="65.33" rerouteNo="0" devices="tripinfo_flow_route_92_duration_20250327_2030.4" vType="car" speedFactor="0.89" vaporized=""/>
    <tripinfo id="flow_route_92_duration_20250327_2030.5" depart="21.00" departLane="133000063_0" departPos="49.96" departSpeed="0.00" departDelay="4.34" arrival="113.00" arrivalLane="186409193_0" arrivalPos="9.84" arrivalSpeed="13.85" duration="92.00" routeLength="351.74" waitingTime="24.00" waitingCount="2" stopTime="0.00" timeLoss="67.80" rerouteNo="0" devices="tripinfo_flow_route_92_duration_20250327_2030.5" vType="car" speedFactor="0.92" vaporized=""/>
    <tripinfo id="flow_route_91_duration_20250327_2030.5" depart="49.00" departLane="133000063_0" departPos="76.91" departSpeed="0.00" departDelay="24.00" arrival="113.00" arrivalLane="683079387#1_1" arrivalPos="0.24" arrivalSpeed="16.21" duration="64.00" routeLength="642.06" waitingTime="0.00" waitingCount="0" stopTime="0.00" timeLoss="24.71" rerouteNo="0" devices="tripinfo_flow_route_91_duration_20250327_2030.5" vType="car" speedFactor="1.03" vaporized=""/>
    <tripinfo id="flow_route_91_duration_20250327_2030.6" depart="59.00" departLane="133000063_0" departPos="69.47" departSpeed="0.00" departDelay="29.00" arrival="115.00" arrivalLane="683079387#1_1" arrivalPos="3.03" arrivalSpeed="16.10" duration="56.00" routeLength="652.29" waitingTime="0.00" waitingCount="0" stopTime="0.00" timeLoss="15.82" rerouteNo="0" devices="tripinfo_flow_route_91_duration_20250327_2030.6" vType="car" speedFactor="1.09" vaporized=""/>
    <tripinfo id="flow_route_145_duration_20250327_2030.2" depart="40.00" departLane="683079388#0_0" departPos="12.46" departSpeed="0.00" departDelay="0.00" arrival="116.00" arrivalLane="380585336_0" arrivalPos="231.43" arrivalSpeed="15.96" duration="76.00" routeLength="843.20" waitingTime="1.00" waitingCount="1" stopTime="0.00" timeLoss="24.34" rerouteNo="0" devices="tripinfo_flow_route_145_duration_20250327_2030.2" vType="car" speedFactor="0.99" vaporized=""/>
    <tripinfo id="flow_route_129_duration_20250327_2030.4" depart="48.00" departLane="134133272_0" departPos="83.00" departSpeed="0.00" departDelay="0.00" arrival="122.00" arrivalLane="683079387#1_1" arrivalPos="4.73" arrivalSpeed="15.46" duration="74.00" routeLength="962.66" waitingTime="0.00" waitingCount="0" stopTime="0.00" timeLoss="11.99" rerouteNo="0" devices="tripinfo_flow_route_129_duration_20250327_2030.4" vType="car" speedFactor="0.94" vaporized=""/>
    <tripinfo id="flow_route_102_duration_20250327_2030.4" depart="41.00" departLane="1342963997_0" departPos="30.08" departSpeed="0.00" departDelay="1.00" arrival="123.00" arrivalLane="380585336_1" arrivalPos="345.98" arrivalSpeed="16.52" duration="82.00" routeLength="1026.85" waitingTime="0.00" waitingCount="0" stopTime="0.00" timeLoss="19.62" rerouteNo="0" devices="tripinfo_flow_route_102_duration_20250327_2030.4" vType="car" speedFactor="1.12" vaporized=""/>
    <tripinfo id="flow_route_102_duration_20250327_2030.5" depart="50.00" departLane="1342963997_0" departPos="28.30" departSpeed="0.00" departDelay="0.00" arrival="125.00" arrivalLane="380585336_1" arrivalPos="154.43" arrivalSpeed="16.38" duration="75.00" routeLength="837.08" waitingTime="0.00" waitingCount="0" stopTime="0.00" timeLoss="24.18" rerouteNo="0" devices="tripinfo_flow_route_102_duration_20250327_2030.5" vType="car" speedFactor="1.03" vaporized=""/>
    <tripinfo id="flow_route_129_duration_20250327_2030.3" depart="36.00" departLane="134133272_0" departPos="265.30" departSpeed="0.00" departDelay="0.00" arrival="126.00" arrivalLane="683079387#1_0" arrivalPos="1.57" arrivalSpeed="16.58" duration="90.00" routeLength="780.38" waitingTime="19.00" waitingCount="1" stopTime="0.00" timeLoss="42.01" rerouteNo="0" devices="tripinfo_flow_route_129_duration_20250327_2030.3" vType="car" speedFactor="1.00" vaporized=""/>
    <tripinfo id="flow_route_93_duration_20250327_2030.4" depart="13.00" departLane="133000063_0" departPos="123.25" departSpeed="0.00" departDelay="3.77" arrival="128.00" arrivalLane="380585336_1" arrivalPos="139.60" arrivalSpeed="15.37" duration="115.00" routeLength="871.64" waitingTime="32.00" waitingCount="1" stopTime="0.00" timeLoss="58.90" rerouteNo="0" devices="tripinfo_flow_route_93_duration_20250327_2030.4" vType="car" speedFactor="0.94" vaporized=""/>
    <tripinfo id="flow_route_144_duration_20250327_2030.6" depart="52.00" departLane="683079388#0_0" departPos="5.83" departSpeed="0.00" departDelay="0.57" arrival="128.00" arrivalLane="380585338#0_1" arrivalPos="19.91" arrivalSpeed="7.92" duration="76.00" routeLength="593.82" waitingTime="18.00" waitingCount="1" stopTime="0.00" timeLoss="40.03" rerouteNo="0" devices="tripinfo_flow_route_144_duration_20250327_2030.6" vType="car" speedFactor="1.01" vaporized=""/>
    <tripinfo id="flow_route_144_duration_20250327_2030.5" depart="46.00" departLane="683079388#0_0" departPos="10.16" departSpeed="0.00" departDelay="3.15" arrival="132.00" arrivalLane="380585338#0_0" arrivalPos="58.84" arrivalSpeed="10.61" duration="86.00" routeLength="628.42" waitingTime="21.00" waitingCount="1" stopTime="0.00" timeLoss="43.17" rerouteNo="0" devices="tripinfo_flow_route_144_duration_20250327_2030.5" vType="car" speedFactor="0.88" vaporized=""/>
    <tripinfo id="flow_route_93_duration_20250327_2030.9" depart="39.00" departLane="133000063_0" departPos="117.27" departSpeed="0.00" departDelay="18.24" arrival="142.00" arrivalLane="380585336_2" arrivalPos="304.17" arrivalSpeed="16.40" duration="103.00" routeLength="1042.19" waitingTime="11.00" waitingCount="1" stopTime="0.00" timeLoss="39.97" rerouteNo="0" devices="tripinfo_flow_route_93_duration_20250327_2030.9" vType="car" speedFactor="1.02" vaporized=""/>
    <tripinfo id="flow_route_93_duration_20250327_2030.5" depart="17.00" departLane="133000063_0" departPos="31.58" departSpeed="0.00" departDelay="5.47" arrival="144.00" arrivalLane="380585336_1" arrivalPos="94.02" arrivalSpeed="15.47" duration="127.00" routeLength="917.73" waitingTime="16.00" waitingCount="2" stopTime="0.00" timeLoss="70.93" rerouteNo="0" devices="tripinfo_flow_route_93_duration_20250327_2030.5" vType="car" speedFactor="1.02" vaporized=""/>
    <tripinfo id="flow_route_93_duration_20250327_2030.2" depart="5.00" departLane="133000063_0" departPos="68.31" departSpeed="0.00" departDelay="0.39" arrival="148.00" arrivalLane="380585336_1" arrivalPos="347.33" arrivalSpeed="16.42" duration="143.00" routeLength="1134.31" waitingTime="32.00" waitingCount="1" stopTime="0.00" timeLoss="74.49" rerouteNo="0" devices="tripinfo_flow_route_93_duration_20250327_2030.2" vType="car" speedFactor="1.05" vaporized=""/>
    <tripinfo id="flow_route_92_duration_20250327_2030.6" depart="35.00" departLane="133000063_0" departPos="67.29" departSpeed="0.00" departDelay="15.00" arrival="148.00" arrivalLane="186409193_0" arrivalPos="57.97" arrivalSpeed="16.47" duration="113.00" routeLength="382.54" waitingTime="45.00" waitingCount="3" stopTime="0.00" timeLoss="88.88" rerouteNo="0" devices="tripinfo_flow_route_92_duration_20250327_2030.6" vType="car" speedFactor="1.15" vaporized=""/>
    <tripinfo id="flow_route_93_duration_20250327_2030.1" depart="4.00" departLane="133000063_0" departPos="52.89" departSpeed="0.00" departDelay="1.69" arrival="151.00" arrivalLane="380585336_0" arrivalPos="288.04" arrivalSpeed="14.06" duration="147.00" routeLength="1090.45" waitingTime="31.00" waitingCount="1" stopTime="0.00" timeLoss="71.44" rerouteNo="0" devices="tripinfo_flow_route_93_duration_20250327_2030.1" vType="car" speedFactor="0.86" vaporized=""/>
    <tripinfo id="flow_route_93_duration_20250327_2030.6" depart="20.00" departLane="133000063_0" departPos="97.69" departSpeed="0.00" departDelay="6.16" arrival="153.00" arrivalLane="380585336_0" arrivalPos="393.99" arrivalSpeed="13.28" duration="133.00" routeLength="1151.60" waitingTime="18.00" waitingCount="2" stopTime="0.00" timeLoss="50.05" rerouteNo="0" devices="tripinfo_flow_route_93_duration_20250327_2030.6" vType="car" speedFactor="0.83" vaporized=""/>
    <tripinfo id="flow_route_92_duration_20250327_2030.9" depart="59.00" departLane="133000063_0" departPos="14.57" departSpeed="0.00" departDelay="29.00" arrival="159.00" arrivalLane="186409193_0" arrivalPos="24.02" arrivalSpeed="14.30" duration="100.00" routeLength="401.31" waitingTime="24.00" waitingCount="2" stopTime="0.00" timeLoss="74.92" rerouteNo="0" devices="tripinfo_flow_route_92_duration_20250327_2030.9" vType="car" speedFactor="1.00" vaporized=""/>
    <tripinfo id="flow_route_92_duration_20250327_2030.8" depart="53.00" departLane="133000063_0" departPos="39.23" departSpeed="0.00" departDelay="26.34" arrival="161.00" arrivalLane="186409193_0" arrivalPos="28.78" arrivalSpeed="15.31" duration="108.00" routeLength="381.42" waitingTime="30.00" waitingCount="1" stopTime="0.00" timeLoss="83.98" rerouteNo="0" devices="tripinfo_flow_route_92_duration_20250327_2030.8" vType="car" speedFactor="1.04" vaporized=""/>
    <tripinfo id="flow_route_93_duration_20250327_2030.8" depart="30.00" departLane="133000063_0" departPos="17.49" departSpeed="0.00" departDelay="11.54" arrival="162.00" arrivalLane="380585336_0" arrivalPos="391.07" arrivalSpeed="15.36" duration="132.00" routeLength="1228.87" waitingTime="7.00" waitingCount="2" stopTime="0.00" timeLoss="52.31" rerouteNo="0" devices="tripinfo_flow_route_93_duration_20250327_2030.8" vType="car" speedFactor="0.93" vaporized=""/>
    <tripinfo id="flow_route_91_duration_20250327_2030.7" depart="64.00" departLane="133000063_0" departPos="101.36" departSpeed="0.00" departDelay="29.00" arrival="162.00" arrivalLane="683079387#1_0" arrivalPos="3.79" arrivalSpeed="16.56" duration="98.00" routeLength="621.17" waitingTime="34.00" waitingCount="2" stopTime="0.00" timeLoss="60.11" rerouteNo="0" devices="tripinfo_flow_route_91_duration_20250327_2030.7" vType="car" speedFactor="1.17" vaporized=""/>
    <tripinfo id="flow_route_92_duration_20250327_2030.10" depart="64.00" departLane="133000063_0" departPos="1.26" departSpeed="0.00" departDelay="30.67" arrival="163.00" arrivalLane="186409193_0" arrivalPos="8.25" arrivalSpeed="13.03" duration="99.00" routeLength="398.84" waitingTime="16.00" waitingCount="2" stopTime="0.00" timeLoss="69.48" rerouteNo="0" devices="tripinfo_flow_route_92_duration_20250327_2030.10" vType="car" speedFactor="0.85" vaporized=""/>
    <tripinfo id="flow_route_93_duration_20250327_2030.7" depart="23.00" departLane="133000063_0" departPos="72.90" departSpeed="0.00" departDelay="6.85" arrival="165.00" arrivalLane="380585336_0" arrivalPos="402.36" arrivalSpeed="15.54" duration="142.00" routeLength="1184.75" waitingTime="24.00" waitingCount="1" stopTime="0.00" timeLoss="67.12" rerouteNo="0" devices="tripinfo_flow_route_93_duration_20250327_2030.7" vType="car" speedFactor="0.95" vaporized=""/>
    <tripinfo id="flow_route_91_duration_20250327_2030.8" depart="87.00" departLane="133000063_0" departPos="53.37" departSpeed="0.00" departDelay="47.00" arrival="166.00" arrivalLane="683079387#1_1" arrivalPos="1.05" arrivalSpeed="16.26" duration="79.00" routeLength="666.41" waitingTime="11.00" waitingCount="1" stopTime="0.00" timeLoss="38.19" rerouteNo="0" devices="tripinfo_flow_route_91_duration_20250327_2030.8" vType="car" speedFactor="1.02" vaporized=""/>
    <tripinfo id="flow_route_92_duration_20250327_2030.11" depart="73.00" departLane="133000063_0" departPos="2.01" departSpeed="0.00" departDelay="36.34" arrival="168.00" arrivalLane="186409193_0" arrivalPos="25.17" arrivalSpeed="14.47" duration="95.00" routeLength="415.02" waitingTime="14.00" waitingCount="2" stopTime="0.00" timeLoss="65.70" rerouteNo="0" devices="tripinfo_flow_route_92_duration_20250327_2030.11" vType="car" speedFactor="0.90" vaporized=""/>
    <tripinfo id="flow_route_91_duration_20250327_2030.9" depart="98.00" departLane="133000063_0" departPos="87.31" departSpeed="0.00" departDelay="53.00" arrival="169.00" arrivalLane="683079387#1_1" arrivalPos="4.21" arrivalSpeed="16.52" duration="71.00" routeLength="635.62" waitingTime="5.00" waitingCount="1" stopTime="0.00" timeLoss="32.69" rerouteNo="0" devices="tripinfo_flow_route_91_duration_20250327_2030.9" vType="car" speedFactor="1.04" vaporized=""/>
    <tripinfo id="flow_route_92_duration_20250327_2030.12" depart="88.00" departLane="133000063_0" departPos="62.96" departSpeed="0.00" departDelay="48.00" arrival="171.00" arrivalLane="186409193_0" arrivalPos="50.04" arrivalSpeed="15.69" duration="83.00" routeLength="378.94" waitingTime="13.00" waitingCount="1" stopTime="0.00" timeLoss="58.59" rerouteNo="0" devices="tripinfo_flow_route_92_duration_20250327_2030.12" vType="car" speedFactor="0.97" vaporized=""/>