<?xml version="1.0" encoding="UTF-8"?>

<!-- generated on 2025-05-06 21:07:54 by Eclipse SUMO sumo Version 1.20.0
<configuration xmlns:xsi="http://www.w3.org/2001/XMLSchema-instance" xsi:noNamespaceSchemaLocation="http://sumo.dlr.de/xsd/sumoConfiguration.xsd">

    <input>
        <net-file value="osm.net.xml"/>
        <route-files value="xml/route_static_cluster10852700972_12154751993_1.rou.xml"/>
    </input>

    <output>
        <tripinfo-output value="xml/tripinfo_static_cluster10852700972_12154751993_1.xml"/>
    </output>

    <traci_server>
        <remote-port value="39957"/>
    </traci_server>

</configuration>
-->

<tripinfos xmlns:xsi="http://www.w3.org/2001/XMLSchema-instance" xsi:noNamespaceSchemaLocation="http://sumo.dlr.de/xsd/tripinfo_file.xsd">
    <tripinfo id="flow_route_60_duration_20250327_2200.1" depart="8.00" departLane="186407684#0_0" departPos="59.31" departSpeed="0.00" departDelay="0.50" arrival="20.00" arrivalLane="791826085_0" arrivalPos="1.97" arrivalSpeed="9.37" duration="12.00" routeLength="51.59" waitingTime="0.00" waitingCount="0" stopTime="0.00" timeLoss="7.81" rerouteNo="0" devices="tripinfo_flow_route_60_duration_20250327_2200.1" vType="car" speedFactor="0.83" vaporized=""/>
    <tripinfo id="flow_route_61_duration_20250327_2200.0" depart="0.00" departLane="186407684#0_0" departPos="65.67" departSpeed="0.00" departDelay="0.00" arrival="23.00" arrivalLane="1341093416#0_1" arrivalPos="161.76" arrivalSpeed="16.18" duration="23.00" routeLength="210.27" waitingTime="0.00" waitingCount="0" stopTime="0.00" timeLoss="9.82" rerouteNo="0" devices="tripinfo_flow_route_61_duration_20250327_2200.0" vType="car" speedFactor="1.03" vaporized=""/>
    <tripinfo id="flow_route_60_duration_20250327_2200.0" depart="0.00" departLane="186407684#0_0" departPos="48.06" departSpeed="0.00" departDelay="0.00" arrival="25.00" arrivalLane="791826085_0" arrivalPos="160.28" arrivalSpeed="16.17" duration="25.00" routeLength="221.15" waitingTime="0.00" waitingCount="0" stopTime="0.00" timeLoss="10.79" rerouteNo="0" devices="tripinfo_flow_route_60_duration_20250327_2200.0" vType="car" speedFactor="1.08" vaporized=""/>
    <tripinfo id="flow_route_60_duration_20250327_2200.2" depart="15.00" departLane="186407684#0_0" departPos="28.37" departSpeed="0.00" departDelay="0.00" arrival="31.00" arrivalLane="791826085_1" arrivalPos="19.65" arrivalSpeed="12.04" duration="16.00" routeLength="100.21" waitingTime="0.00" waitingCount="0" stopTime="0.00" timeLoss="9.47" rerouteNo="0" devices="tripinfo_flow_route_60_duration_20250327_2200.2" vType="car" speedFactor="0.94" vaporized=""/>
    <tripinfo id="flow_route_56_duration_20250327_2200.0" depart="0.00" departLane="1341093415#0_0" departPos="44.11" departSpeed="0.00" departDelay="0.00" arrival="39.00" arrivalLane="409155823_0" arrivalPos="4.00" arrivalSpeed="6.35" duration="39.00" routeLength="164.73" waitingTime="11.00" waitingCount="1" stopTime="0.00" timeLoss="28.24" rerouteNo="0" devices="tripinfo_flow_route_56_duration_20250327_2200.0" vType="car" speedFactor="1.01" vaporized=""/>
    <tripinfo id="flow_route_61_duration_20250327_2200.1" depart="15.00" departLane="186407684#0_0" departPos="60.25" departSpeed="0.00" departDelay="0.00" arrival="44.00" arrivalLane="1341093416#0_1" arrivalPos="240.08" arrivalSpeed="16.45" duration="29.00" routeLength="294.01" waitingTime="0.00" waitingCount="0" stopTime="0.00" timeLoss="9.68" rerouteNo="0" devices="tripinfo_flow_route_61_duration_20250327_2200.1" vType="car" speedFactor="0.86" vaporized=""/>
    <tripinfo id="flow_route_55_duration_20250327_2200.1" depart="20.00" departLane="1341093415#0_0" departPos="54.73" departSpeed="0.00" departDelay="0.00" arrival="45.00" arrivalLane="791826085_0" arrivalPos="15.07" arrivalSpeed="9.91" duration="25.00" routeLength="150.05" waitingTime="0.00" waitingCount="0" stopTime="0.00" timeLoss="14.97" rerouteNo="0" devices="tripinfo_flow_route_55_duration_20250327_2200.1" vType="car" speedFactor="1.09" vaporized=""/>
    <tripinfo id="flow_route_56_duration_20250327_2200.1" depart="10.00" departLane="1341093415#0_0" departPos="80.58" departSpeed="0.00" departDelay="0.00" arrival="46.00" arrivalLane="409155823_0" arrivalPos="41.04" arrivalSpeed="10.21" duration="36.00" routeLength="165.29" waitingTime="3.00" waitingCount="1" stopTime="0.00" timeLoss="25.01" rerouteNo="0" devices="tripinfo_flow_route_56_duration_20250327_2200.1" vType="car" speedFactor="1.05" vaporized=""/>
    <tripinfo id="flow_route_56_duration_20250327_2200.2" depart="20.00" departLane="1341093415#0_0" departPos="112.91" departSpeed="0.00" departDelay="0.00" arrival="48.00" arrivalLane="409155823_0" arrivalPos="45.16" arrivalSpeed="10.60" duration="28.00" routeLength="137.09" waitingTime="0.00" waitingCount="0" stopTime="0.00" timeLoss="18.85" rerouteNo="0" devices="tripinfo_flow_route_56_duration_20250327_2200.2" vType="car" speedFactor="1.03" vaporized=""/>
    <tripinfo id="flow_route_56_duration_20250327_2200.3" depart="30.00" departLane="1341093415#0_0" departPos="136.26" departSpeed="0.00" departDelay="0.00" arrival="48.00" arrivalLane="409155823_0" arrivalPos="20.84" arrivalSpeed="10.11" duration="18.00" routeLength="89.41" waitingTime="0.00" waitingCount="0" stopTime="0.00" timeLoss="11.24" rerouteNo="0" devices="tripinfo_flow_route_56_duration_20250327_2200.3" vType="car" speedFactor="0.99" vaporized=""/>
    <tripinfo id="flow_route_54_duration_20250327_2200.1" depart="12.00" departLane="1341093415#0_0" departPos="47.15" departSpeed="0.00" departDelay="0.00" arrival="54.00" arrivalLane="1341093416#0_0" arrivalPos="155.27" arrivalSpeed="16.59" duration="42.00" routeLength="314.94" waitingTime="0.00" waitingCount="0" stopTime="0.00" timeLoss="22.13" rerouteNo="0" devices="tripinfo_flow_route_54_duration_20250327_2200.1" vType="car" speedFactor="0.89" vaporized=""/>
    <tripinfo id="flow_route_55_duration_20250327_2200.0" depart="0.00" departLane="1341093415#0_0" departPos="132.48" departSpeed="0.00" departDelay="0.00" arrival="56.00" arrivalLane="791826085_0" arrivalPos="232.37" arrivalSpeed="15.17" duration="56.00" routeLength="289.60" waitingTime="17.00" waitingCount="1" stopTime="0.00" timeLoss="36.00" rerouteNo="0" devices="tripinfo_flow_route_55_duration_20250327_2200.0" vType="car" speedFactor="0.94" vaporized=""/>
    <tripinfo id="flow_route_54_duration_20250327_2200.0" depart="0.00" departLane="1341093415#0_0" departPos="7.77" departSpeed="0.00" departDelay="0.00" arrival="59.00" arrivalLane="1341093416#0_0" arrivalPos="244.31" arrivalSpeed="16.46" duration="59.00" routeLength="443.35" waitingTime="6.00" waitingCount="1" stopTime="0.00" timeLoss="31.39" rerouteNo="0" devices="tripinfo_flow_route_54_duration_20250327_2200.0" vType="car" speedFactor="1.06" vaporized=""/>
    <tripinfo id="flow_route_54_duration_20250327_2200.2" depart="25.00" departLane="1341093415#0_0" departPos="97.02" departSpeed="0.00" departDelay="1.00" arrival="59.00" arrivalLane="1341093416#0_2" arrivalPos="243.38" arrivalSpeed="16.50" duration="34.00" routeLength="353.18" waitingTime="0.00" waitingCount="0" stopTime="0.00" timeLoss="11.97" rerouteNo="0" devices="tripinfo_flow_route_54_duration_20250327_2200.2" vType="car" speedFactor="1.12" vaporized=""/>
    <tripinfo id="flow_route_56_duration_20250327_2200.5" depart="50.00" departLane="1341093415#0_0" departPos="166.66" departSpeed="0.00" departDelay="0.00" arrival="66.00" arrivalLane="409155823_0" arrivalPos="60.88" arrivalSpeed="11.81" duration="16.00" routeLength="99.06" waitingTime="0.00" waitingCount="0" stopTime="0.00" timeLoss="7.96" rerouteNo="0" devices="tripinfo_flow_route_56_duration_20250327_2200.5" vType="car" speedFactor="0.83" vaporized=""/>
    <tripinfo id="flow_route_54_duration_20250327_2200.3" depart="36.00" departLane="1341093415#0_0" departPos="59.05" departSpeed="0.00" departDelay="0.00" arrival="68.00" arrivalLane="1341093416#0_0" arrivalPos="187.84" arrivalSpeed="16.23" duration="32.00" routeLength="335.61" waitingTime="0.00" waitingCount="0" stopTime="0.00" timeLoss="10.92" rerouteNo="0" devices="tripinfo_flow_route_54_duration_20250327_2200.3" vType="car" speedFactor="0.94" vaporized=""/>
    <tripinfo id="flow_route_56_duration_20250327_2200.4" depart="41.00" departLane="1341093415#0_0" departPos="29.94" departSpeed="0.00" departDelay="1.00" arrival="70.00" arrivalLane="409155823_0" arrivalPos="84.91" arrivalSpeed="15.34" duration="29.00" routeLength="259.81" waitingTime="0.00" waitingCount="0" stopTime="0.00" timeLoss="12.07" rerouteNo="0" devices="tripinfo_flow_route_56_duration_20250327_2200.4" vType="car" speedFactor="1.02" vaporized=""/>
    <tripinfo id="flow_route_60_duration_20250327_2200.4" depart="30.00" departLane="186407684#0_0" departPos="14.02" departSpeed="0.00" departDelay="0.00" arrival="74.00" arrivalLane="791826085_1" arrivalPos="10.57" arrivalSpeed="6.75" duration="44.00" routeLength="105.48" waitingTime="20.00" waitingCount="1" stopTime="0.00" timeLoss="36.97" rerouteNo="0" devices="tripinfo_flow_route_60_duration_20250327_2200.4" vType="car" speedFactor="0.93" vaporized=""/>
    <tripinfo id="flow_route_54_duration_20250327_2200.4" depart="49.00" departLane="1341093415#0_0" departPos="106.27" departSpeed="0.00" departDelay="1.00" arrival="77.00" arrivalLane="1341093416#0_0" arrivalPos="183.19" arrivalSpeed="16.38" duration="28.00" routeLength="283.74" waitingTime="0.00" waitingCount="0" stopTime="0.00" timeLoss="10.16" rerouteNo="0" devices="tripinfo_flow_route_54_duration_20250327_2200.4" vType="car" speedFactor="0.89" vaporized=""/>
    <tripinfo id="flow_route_60_duration_20250327_2200.5" depart="38.00" departLane="186407684#0_0" departPos="11.05" departSpeed="0.00" departDelay="0.50" arrival="80.00" arrivalLane="791826085_1" arrivalPos="42.19" arrivalSpeed="10.54" duration="42.00" routeLength="140.07" waitingTime="14.00" waitingCount="1" stopTime="0.00" timeLoss="32.77" rerouteNo="0" devices="tripinfo_flow_route_60_duration_20250327_2200.5" vType="car" speedFactor="0.94" vaporized=""/>
    <tripinfo id="flow_route_61_duration_20250327_2200.2" depart="31.00" departLane="186407684#0_0" departPos="2.63" departSpeed="0.00" departDelay="1.00" arrival="82.00" arrivalLane="1341093416#0_2" arrivalPos="82.74" arrivalSpeed="13.31" duration="51.00" routeLength="190.13" waitingTime="17.00" waitingCount="1" stopTime="0.00" timeLoss="37.29" rerouteNo="0" devices="tripinfo_flow_route_61_duration_20250327_2200.2" vType="car" speedFactor="0.88" vaporized=""/>
    <tripinfo id="flow_route_61_duration_20250327_2200.3" depart="45.00" departLane="186407684#0_0" departPos="7.85" departSpeed="0.00" departDelay="0.00" arrival="82.00" arrivalLane="1341093416#0_2" arrivalPos="66.19" arrivalSpeed="11.86" duration="37.00" routeLength="168.36" waitingTime="7.00" waitingCount="1" stopTime="0.00" timeLoss="25.94" rerouteNo="0" devices="tripinfo_flow_route_61_duration_20250327_2200.3" vType="car" speedFactor="0.97" vaporized=""/>
    <tripinfo id="flow_route_60_duration_20250327_2200.6" depart="45.00" departLane="186407684#0_0" departPos="71.54" departSpeed="0.00" departDelay="0.00" arrival="91.00" arrivalLane="791826085_0" arrivalPos="186.42" arrivalSpeed="16.45" duration="46.00" routeLength="223.81" waitingTime="16.00" waitingCount="1" stopTime="0.00" timeLoss="32.09" rerouteNo="0" devices="tripinfo_flow_route_60_duration_20250327_2200.6" vType="car" speedFactor="1.01" vaporized=""/>
    <tripinfo id="flow_route_60_duration_20250327_2200.3" depart="23.00" departLane="186407684#0_0" departPos="72.65" departSpeed="0.00" departDelay="0.50" arrival="97.00" arrivalLane="791826085_0" arrivalPos="306.25" arrivalSpeed="16.41" duration="74.00" routeLength="342.53" waitingTime="36.00" waitingCount="1" stopTime="0.00" timeLoss="52.50" rerouteNo="0" devices="tripinfo_flow_route_60_duration_20250327_2200.3" vType="car" speedFactor="1.05" vaporized=""/>
    <tripinfo id="flow_route_60_duration_20250327_2200.7" depart="53.00" departLane="186407684#0_0" departPos="27.13" departSpeed="0.00" departDelay="0.50" arrival="102.00" arrivalLane="791826085_0" arrivalPos="313.07" arrivalSpeed="14.45" duration="49.00" routeLength="394.87" waitingTime="2.00" waitingCount="1" stopTime="0.00" timeLoss="21.55" rerouteNo="0" devices="tripinfo_flow_route_60_duration_20250327_2200.7" vType="car" speedFactor="0.87" vaporized=""/>
    <tripinfo id="flow_route_55_duration_20250327_2200.2" depart="40.00" departLane="1341093415#0_0" departPos="47.07" departSpeed="0.00" departDelay="0.00" arrival="115.00" arrivalLane="791826085_0" arrivalPos="134.15" arrivalSpeed="14.63" duration="75.00" routeLength="276.79" waitingTime="31.00" waitingCount="1" stopTime="0.00" timeLoss="57.74" rerouteNo="0" devices="tripinfo_flow_route_55_duration_20250327_2200.2" vType="car" speedFactor="1.16" vaporized=""/>
</tripinfos>
