<?xml version="1.0" encoding="UTF-8"?>

<!-- generated on 2025-05-06 21:09:14 by Eclipse SUMO sumo Version 1.20.0
<configuration xmlns:xsi="http://www.w3.org/2001/XMLSchema-instance" xsi:noNamespaceSchemaLocation="http://sumo.dlr.de/xsd/sumoConfiguration.xsd">

    <input>
        <net-file value="osm.net.xml"/>
        <route-files value="xml/route_rl_cluster_11644940323_11644940324_3828703845_9.rou.xml"/>
    </input>

    <output>
        <tripinfo-output value="xml/tripinfo_rl_cluster_11644940323_11644940324_3828703845_9.xml"/>
    </output>

    <traci_server>
        <remote-port value="50429"/>
    </traci_server>

</configuration>
-->

<tripinfos xmlns:xsi="http://www.w3.org/2001/XMLSchema-instance" xsi:noNamespaceSchemaLocation="http://sumo.dlr.de/xsd/tripinfo_file.xsd">
    <tripinfo id="flow_route_3_duration_20250327_2040.0" depart="0.00" departLane="1318793173#0_0" departPos="80.53" departSpeed="0.00" departDelay="0.00" arrival="19.00" arrivalLane="291974733#0_1" arrivalPos="66.76" arrivalSpeed="13.99" duration="19.00" routeLength="123.20" waitingTime="0.00" waitingCount="0" stopTime="0.00" timeLoss="10.27" rerouteNo="0" devices="tripinfo_flow_route_3_duration_20250327_2040.0" vType="car" speedFactor="0.94" vaporized=""/>
    <tripinfo id="flow_route_2_duration_20250327_2040.0" depart="0.00" departLane="1318793173#0_0" departPos="58.93" departSpeed="0.00" departDelay="0.00" arrival="21.00" arrivalLane="189835257_0" arrivalPos="46.92" arrivalSpeed="15.38" duration="21.00" routeLength="167.93" waitingTime="0.00" waitingCount="0" stopTime="0.00" timeLoss="10.18" rerouteNo="0" devices="tripinfo_flow_route_2_duration_20250327_2040.0" vType="car" speedFactor="1.06" vaporized=""/>
    <tripinfo id="flow_route_16_duration_20250327_2040.0" depart="0.00" departLane="137406408#0_0" departPos="52.27" departSpeed="0.00" departDelay="0.00" arrival="21.00" arrivalLane="133126040#0_0" arrivalPos="80.39" arrivalSpeed="15.01" duration="21.00" routeLength="149.31" waitingTime="0.00" waitingCount="0" stopTime="0.00" timeLoss="11.11" rerouteNo="0" devices="tripinfo_flow_route_16_duration_20250327_2040.0" vType="car" speedFactor="1.05" vaporized=""/>
    <tripinfo id="flow_route_17_duration_20250327_2040.0" depart="0.00" departLane="137406408#0_0" departPos="24.41" departSpeed="0.00" departDelay="0.00" arrival="22.00" arrivalLane="1254771874#0_0" arrivalPos="63.27" arrivalSpeed="16.22" duration="22.00" routeLength="182.06" waitingTime="0.00" waitingCount="0" stopTime="0.00" timeLoss="9.94" rerouteNo="0" devices="tripinfo_flow_route_17_duration_20250327_2040.0" vType="car" speedFactor="0.89" vaporized=""/>
    <tripinfo id="flow_route_9_duration_20250327_2040.0" depart="0.00" departLane="1318793173#0_0" departPos="0.65" departSpeed="0.00" departDelay="0.00" arrival="26.00" arrivalLane="1254771874#0_1" arrivalPos="11.63" arrivalSpeed="11.13" duration="26.00" routeLength="169.44" waitingTime="0.00" waitingCount="0" stopTime="0.00" timeLoss="14.66" rerouteNo="0" devices="tripinfo_flow_route_9_duration_20250327_2040.0" vType="car" speedFactor="1.01" vaporized=""/>
    <tripinfo id="flow_route_2_duration_20250327_2040.2" depart="9.00" departLane="1318793173#0_0" departPos="68.46" departSpeed="0.00" departDelay="0.43" arrival="29.00" arrivalLane="189835257_0" arrivalPos="27.01" arrivalSpeed="13.55" duration="20.00" routeLength="138.49" waitingTime="0.00" waitingCount="0" stopTime="0.00" timeLoss="10.88" rerouteNo="0" devices="tripinfo_flow_route_2_duration_20250327_2040.2" vType="car" speedFactor="1.09" vaporized=""/>
    <tripinfo id="flow_route_9_duration_20250327_2040.1" depart="10.00" departLane="1318793173#0_0" departPos="89.08" departSpeed="0.00" departDelay="1.43" arrival="30.00" arrivalLane="1254771874#0_1" arrivalPos="78.49" arrivalSpeed="14.71" duration="20.00" routeLength="147.88" waitingTime="0.00" waitingCount="0" stopTime="0.00" timeLoss="9.33" rerouteNo="0" devices="tripinfo_flow_route_9_duration_20250327_2040.1" vType="car" speedFactor="1.03" vaporized=""/>
    <tripinfo id="flow_route_2_duration_20250327_2040.1" depart="5.00" departLane="1318793173#0_0" departPos="34.79" departSpeed="0.00" departDelay="0.72" arrival="32.00" arrivalLane="189835257_0" arrivalPos="46.11" arrivalSpeed="15.34" duration="27.00" routeLength="191.25" waitingTime="0.00" waitingCount="0" stopTime="0.00" timeLoss="13.61" rerouteNo="0" devices="tripinfo_flow_route_2_duration_20250327_2040.1" vType="car" speedFactor="0.94" vaporized=""/>
    <tripinfo id="flow_route_2_duration_20250327_2040.3" depart="13.00" departLane="1318793173#0_0" departPos="25.58" departSpeed="0.00" departDelay="0.15" arrival="35.00" arrivalLane="189835257_0" arrivalPos="28.66" arrivalSpeed="15.96" duration="22.00" routeLength="183.02" waitingTime="0.00" waitingCount="0" stopTime="0.00" timeLoss="10.02" rerouteNo="0" devices="tripinfo_flow_route_2_duration_20250327_2040.3" vType="car" speedFactor="1.12" vaporized=""/>
    <tripinfo id="flow_route_9_duration_20250327_2040.2" depart="19.00" departLane="1318793173#0_0" departPos="74.04" departSpeed="0.00" departDelay="1.86" arrival="39.00" arrivalLane="1254771874#0_1" arrivalPos="40.67" arrivalSpeed="12.09" duration="20.00" routeLength="125.11" waitingTime="0.00" waitingCount="0" stopTime="0.00" timeLoss="10.57" rerouteNo="0" devices="tripinfo_flow_route_9_duration_20250327_2040.2" vType="car" speedFactor="0.88" vaporized=""/>
    <tripinfo id="flow_route_2_duration_20250327_2040.5" depart="23.00" departLane="1318793173#0_0" departPos="44.45" departSpeed="0.00" departDelay="1.58" arrival="45.00" arrivalLane="189835257_0" arrivalPos="17.45" arrivalSpeed="12.75" duration="22.00" routeLength="152.93" waitingTime="0.00" waitingCount="0" stopTime="0.00" timeLoss="11.32" rerouteNo="0" devices="tripinfo_flow_route_2_duration_20250327_2040.5" vType="car" speedFactor="0.94" vaporized=""/>
    <tripinfo id="flow_route_2_duration_20250327_2040.6" depart="26.00" departLane="1318793173#0_0" departPos="87.72" departSpeed="0.00" departDelay="0.29" arrival="45.00" arrivalLane="189835257_0" arrivalPos="30.10" arrivalSpeed="13.36" duration="19.00" routeLength="122.32" waitingTime="0.00" waitingCount="0" stopTime="0.00" timeLoss="10.61" rerouteNo="0" devices="tripinfo_flow_route_2_duration_20250327_2040.6" vType="car" speedFactor="1.02" vaporized=""/>
    <tripinfo id="flow_route_16_duration_20250327_2040.1" depart="30.00" departLane="137406408#0_0" departPos="88.60" departSpeed="0.00" departDelay="0.00" arrival="46.00" arrivalLane="133126040#0_0" arrivalPos="64.49" arrivalSpeed="11.86" duration="16.00" routeLength="97.08" waitingTime="0.00" waitingCount="0" stopTime="0.00" timeLoss="8.56" rerouteNo="0" devices="tripinfo_flow_route_16_duration_20250327_2040.1" vType="car" speedFactor="0.83" vaporized=""/>
    <tripinfo id="flow_route_2_duration_20250327_2040.4" depart="19.00" departLane="1318793173#0_0" departPos="3.22" departSpeed="0.00" departDelay="1.86" arrival="49.00" arrivalLane="189835257_0" arrivalPos="40.26" arrivalSpeed="15.11" duration="30.00" routeLength="216.98" waitingTime="0.00" waitingCount="0" stopTime="0.00" timeLoss="14.22" rerouteNo="0" devices="tripinfo_flow_route_2_duration_20250327_2040.4" vType="car" speedFactor="0.93" vaporized=""/>
    <tripinfo id="flow_route_9_duration_20250327_2040.3" depart="26.00" departLane="1318793173#0_0" departPos="9.62" departSpeed="0.00" departDelay="0.29" arrival="53.00" arrivalLane="1254771874#0_1" arrivalPos="61.70" arrivalSpeed="14.52" duration="27.00" routeLength="210.55" waitingTime="0.00" waitingCount="0" stopTime="0.00" timeLoss="12.44" rerouteNo="0" devices="tripinfo_flow_route_9_duration_20250327_2040.3" vType="car" speedFactor="1.01" vaporized=""/>
    <tripinfo id="flow_route_2_duration_20250327_2040.8" depart="36.00" departLane="1318793173#0_0" departPos="69.34" departSpeed="0.00" departDelay="1.72" arrival="56.00" arrivalLane="189835257_0" arrivalPos="30.55" arrivalSpeed="14.41" duration="20.00" routeLength="141.14" waitingTime="0.00" waitingCount="0" stopTime="0.00" timeLoss="8.85" rerouteNo="0" devices="tripinfo_flow_route_2_duration_20250327_2040.8" vType="car" speedFactor="0.87" vaporized=""/>
    <tripinfo id="flow_route_2_duration_20250327_2040.7" depart="31.00" departLane="1318793173#0_0" departPos="33.26" departSpeed="0.00" departDelay="1.01" arrival="58.00" arrivalLane="189835257_0" arrivalPos="35.18" arrivalSpeed="15.20" duration="27.00" routeLength="181.86" waitingTime="0.00" waitingCount="0" stopTime="0.00" timeLoss="14.64" rerouteNo="0" devices="tripinfo_flow_route_2_duration_20250327_2040.7" vType="car" speedFactor="0.97" vaporized=""/>
    <tripinfo id="flow_route_9_duration_20250327_2040.4" depart="36.00" departLane="1318793173#0_0" departPos="16.41" departSpeed="0.00" departDelay="1.72" arrival="62.00" arrivalLane="1254771874#0_1" arrivalPos="43.05" arrivalSpeed="12.37" duration="26.00" routeLength="185.11" waitingTime="0.00" waitingCount="0" stopTime="0.00" timeLoss="12.84" rerouteNo="0" devices="tripinfo_flow_route_9_duration_20250327_2040.4" vType="car" speedFactor="0.92" vaporized=""/>
    <tripinfo id="flow_route_2_duration_20250327_2040.10" depart="43.00" departLane="1318793173#0_0" departPos="61.29" departSpeed="0.00" departDelay="0.15" arrival="62.00" arrivalLane="189835257_0" arrivalPos="17.85" arrivalSpeed="14.95" duration="19.00" routeLength="136.50" waitingTime="0.00" waitingCount="0" stopTime="0.00" timeLoss="9.60" rerouteNo="0" devices="tripinfo_flow_route_2_duration_20250327_2040.10" vType="car" speedFactor="1.18" vaporized=""/>
    <tripinfo id="flow_route_2_duration_20250327_2040.9" depart="39.00" departLane="1318793173#0_0" departPos="19.34" departSpeed="0.00" departDelay="0.44" arrival="66.00" arrivalLane="189835257_0" arrivalPos="48.87" arrivalSpeed="15.02" duration="27.00" routeLength="209.47" waitingTime="0.00" waitingCount="0" stopTime="0.00" timeLoss="12.55" rerouteNo="0" devices="tripinfo_flow_route_2_duration_20250327_2040.9" vType="car" speedFactor="0.93" vaporized=""/>
    <tripinfo id="flow_route_9_duration_20250327_2040.5" depart="44.00" departLane="1318793173#0_0" departPos="19.52" departSpeed="0.00" departDelay="1.15" arrival="68.00" arrivalLane="1254771874#0_1" arrivalPos="21.99" arrivalSpeed="11.25" duration="24.00" routeLength="160.93" waitingTime="0.00" waitingCount="0" stopTime="0.00" timeLoss="13.35" rerouteNo="0" devices="tripinfo_flow_route_9_duration_20250327_2040.5" vType="car" speedFactor="1.15" vaporized=""/>
    <tripinfo id="flow_route_2_duration_20250327_2040.13" depart="56.00" departLane="1318793173#0_0" departPos="94.62" departSpeed="0.00" departDelay="0.30" arrival="73.00" arrivalLane="189835257_0" arrivalPos="15.94" arrivalSpeed="12.07" duration="17.00" routeLength="101.26" waitingTime="0.00" waitingCount="0" stopTime="0.00" timeLoss="10.12" rerouteNo="0" devices="tripinfo_flow_route_2_duration_20250327_2040.13" vType="car" speedFactor="1.10" vaporized=""/>
    <tripinfo id="flow_route_2_duration_20250327_2040.12" depart="52.00" departLane="1318793173#0_0" departPos="66.48" departSpeed="0.00" departDelay="0.58" arrival="76.00" arrivalLane="189835257_0" arrivalPos="35.74" arrivalSpeed="13.27" duration="24.00" routeLength="149.20" waitingTime="0.00" waitingCount="0" stopTime="0.00" timeLoss="14.17" rerouteNo="0" devices="tripinfo_flow_route_2_duration_20250327_2040.12" vType="car" speedFactor="1.02" vaporized=""/>
    <tripinfo id="flow_route_2_duration_20250327_2040.11" depart="48.00" departLane="1318793173#0_0" departPos="31.34" departSpeed="0.00" departDelay="0.87" arrival="78.00" arrivalLane="189835257_0" arrivalPos="38.01" arrivalSpeed="13.86" duration="30.00" routeLength="186.61" waitingTime="0.00" waitingCount="0" stopTime="0.00" timeLoss="18.06" rerouteNo="0" devices="tripinfo_flow_route_2_duration_20250327_2040.11" vType="car" speedFactor="1.17" vaporized=""/>
    <tripinfo id="flow_route_13_duration_20250327_2040.0" depart="0.00" departLane="1252820503#0_0" departPos="99.64" departSpeed="0.00" departDelay="0.00" arrival="85.00" arrivalLane="291974733#0_0" arrivalPos="46.05" arrivalSpeed="8.87" duration="85.00" routeLength="103.57" waitingTime="61.00" waitingCount="1" stopTime="0.00" timeLoss="77.97" rerouteNo="0" devices="tripinfo_flow_route_13_duration_20250327_2040.0" vType="car" speedFactor="1.08" vaporized=""/>
    <tripinfo id="flow_route_15_duration_20250327_2040.0" depart="1.00" departLane="1252820503#0_0" departPos="8.92" departSpeed="0.00" departDelay="1.00" arrival="86.00" arrivalLane="133126040#0_1" arrivalPos="4.72" arrivalSpeed="8.34" duration="85.00" routeLength="174.98" waitingTime="53.00" waitingCount="1" stopTime="0.00" timeLoss="73.29" rerouteNo="0" devices="tripinfo_flow_route_15_duration_20250327_2040.0" vType="car" speedFactor="0.83" vaporized=""/>
    <tripinfo id="flow_route_14_duration_20250327_2040.2" depart="15.00" departLane="1252820503#0_0" departPos="44.68" departSpeed="0.00" departDelay="0.00" arrival="90.00" arrivalLane="1254771874#0_0" arrivalPos="8.29" arrivalSpeed="11.00" duration="75.00" routeLength="173.49" waitingTime="44.00" waitingCount="1" stopTime="0.00" timeLoss="64.52" rerouteNo="0" devices="tripinfo_flow_route_14_duration_20250327_2040.2" vType="car" speedFactor="0.99" vaporized=""/>
    <tripinfo id="flow_route_13_duration_20250327_2040.1" depart="12.00" departLane="1252820503#0_0" departPos="58.71" departSpeed="0.00" departDelay="0.00" arrival="91.00" arrivalLane="291974733#0_0" arrivalPos="83.17" arrivalSpeed="12.09" duration="79.00" routeLength="181.62" waitingTime="47.00" waitingCount="1" stopTime="0.00" timeLoss="66.83" rerouteNo="0" devices="tripinfo_flow_route_13_duration_20250327_2040.1" vType="car" speedFactor="1.05" vaporized=""/>
    <tripinfo id="flow_route_13_duration_20250327_2040.2" depart="24.00" departLane="1252820503#0_0" departPos="24.87" departSpeed="0.00" departDelay="0.00" arrival="92.00" arrivalLane="291974733#0_0" arrivalPos="24.74" arrivalSpeed="8.58" duration="68.00" routeLength="157.04" waitingTime="32.00" waitingCount="1" stopTime="0.00" timeLoss="57.25" rerouteNo="0" devices="tripinfo_flow_route_13_duration_20250327_2040.2" vType="car" speedFactor="1.16" vaporized=""/>
    <tripinfo id="flow_route_13_duration_20250327_2040.3" depart="36.00" departLane="1252820503#0_0" departPos="4.12" departSpeed="0.00" departDelay="0.00" arrival="95.00" arrivalLane="291974733#0_0" arrivalPos="17.18" arrivalSpeed="7.05" duration="59.00" routeLength="170.22" waitingTime="21.00" waitingCount="1" stopTime="0.00" timeLoss="46.98" rerouteNo="0" devices="tripinfo_flow_route_13_duration_20250327_2040.3" vType="car" speedFactor="0.95" vaporized=""/>
    <tripinfo id="flow_route_14_duration_20250327_2040.3" depart="24.00" departLane="1252820503#0_0" departPos="33.03" departSpeed="0.00" departDelay="1.50" arrival="96.00" arrivalLane="1254771874#0_1" arrivalPos="32.05" arrivalSpeed="12.80" duration="72.00" routeLength="208.90" waitingTime="35.00" waitingCount="1" stopTime="0.00" timeLoss="58.79" rerouteNo="0" devices="tripinfo_flow_route_14_duration_20250327_2040.3" vType="car" speedFactor="0.94" vaporized=""/>
    <tripinfo id="flow_route_14_duration_20250327_2040.0" depart="0.00" departLane="1252820503#0_0" departPos="69.02" departSpeed="0.00" departDelay="0.00" arrival="98.00" arrivalLane="1254771874#0_0" arrivalPos="150.80" arrivalSpeed="16.18" duration="98.00" routeLength="291.67" waitingTime="57.00" waitingCount="1" stopTime="0.00" timeLoss="79.58" rerouteNo="0" devices="tripinfo_flow_route_14_duration_20250327_2040.0" vType="car" speedFactor="1.03" vaporized=""/>
    <tripinfo id="flow_route_14_duration_20250327_2040.6" depart="45.00" departLane="1252820503#0_0" departPos="11.84" departSpeed="0.00" departDelay="0.00" arrival="98.00" arrivalLane="1254771874#0_1" arrivalPos="11.97" arrivalSpeed="11.62" duration="53.00" routeLength="210.01" waitingTime="15.00" waitingCount="1" stopTime="0.00" timeLoss="39.80" rerouteNo="0" devices="tripinfo_flow_route_14_duration_20250327_2040.6" vType="car" speedFactor="1.01" vaporized=""/>
    <tripinfo id="flow_route_13_duration_20250327_2040.4" depart="48.00" departLane="1252820503#0_0" departPos="31.44" departSpeed="0.00" departDelay="0.00" arrival="99.00" arrivalLane="291974733#0_0" arrivalPos="32.97" arrivalSpeed="8.85" duration="51.00" routeLength="158.69" waitingTime="16.00" waitingCount="1" stopTime="0.00" timeLoss="39.88" rerouteNo="0" devices="tripinfo_flow_route_13_duration_20250327_2040.4" vType="car" speedFactor="0.99" vaporized=""/>
    <tripinfo id="flow_route_14_duration_20250327_2040.5" depart="41.00" departLane="1252820503#0_0" departPos="46.47" departSpeed="0.00" departDelay="3.50" arrival="101.00" arrivalLane="1254771874#0_1" arrivalPos="71.28" arrivalSpeed="15.29" duration="60.00" routeLength="234.69" waitingTime="20.00" waitingCount="1" stopTime="0.00" timeLoss="45.03" rerouteNo="0" devices="tripinfo_flow_route_14_duration_20250327_2040.5" vType="car" speedFactor="1.13" vaporized=""/>
    <tripinfo id="flow_route_14_duration_20250327_2040.1" depart="8.00" departLane="1252820503#0_0" departPos="6.84" departSpeed="0.00" departDelay="0.50" arrival="103.00" arrivalLane="1254771874#0_1" arrivalPos="174.74" arrivalSpeed="16.24" duration="95.00" routeLength="377.78" waitingTime="47.00" waitingCount="1" stopTime="0.00" timeLoss="71.73" rerouteNo="0" devices="tripinfo_flow_route_14_duration_20250327_2040.1" vType="car" speedFactor="0.86" vaporized=""/>
    <tripinfo id="flow_route_14_duration_20250327_2040.4" depart="31.00" departLane="1252820503#0_0" departPos="72.93" departSpeed="0.00" departDelay="1.00" arrival="105.00" arrivalLane="1254771874#0_0" arrivalPos="182.91" arrivalSpeed="16.23" duration="74.00" routeLength="319.87" waitingTime="33.00" waitingCount="1" stopTime="0.00" timeLoss="54.01" rerouteNo="0" devices="tripinfo_flow_route_14_duration_20250327_2040.4" vType="car" speedFactor="0.89" vaporized=""/>
    <tripinfo id="flow_route_14_duration_20250327_2040.7" depart="55.00" departLane="1252820503#0_0" departPos="3.53" departSpeed="0.00" departDelay="2.50" arrival="107.00" arrivalLane="1254771874#0_1" arrivalPos="131.09" arrivalSpeed="16.54" duration="52.00" routeLength="337.44" waitingTime="8.00" waitingCount="1" stopTime="0.00" timeLoss="31.29" rerouteNo="0" devices="tripinfo_flow_route_14_duration_20250327_2040.7" vType="car" speedFactor="1.18" vaporized=""/>
    <tripinfo id="flow_route_9_duration_20250327_2040.6" depart="56.00" departLane="1318793173#0_0" departPos="11.32" departSpeed="0.00" departDelay="4.57" arrival="131.00" arrivalLane="1254771874#0_1" arrivalPos="108.18" arrivalSpeed="15.50" duration="75.00" routeLength="255.34" waitingTime="36.00" waitingCount="1" stopTime="0.00" timeLoss="57.50" rerouteNo="0" devices="tripinfo_flow_route_9_duration_20250327_2040.6" vType="car" speedFactor="0.97" vaporized=""/>
</tripinfos>
