<?xml version="1.0" encoding="UTF-8"?>

<!-- generated on 2025-05-06 21:08:53 by Eclipse SUMO sumo Version 1.20.0
<configuration xmlns:xsi="http://www.w3.org/2001/XMLSchema-instance" xsi:noNamespaceSchemaLocation="http://sumo.dlr.de/xsd/sumoConfiguration.xsd">

    <input>
        <net-file value="osm.net.xml"/>
        <route-files value="xml/route_rl_cluster_11648561419_11648561420_2271142975_4854142869_7.rou.xml"/>
    </input>

    <output>
        <tripinfo-output value="xml/tripinfo_rl_cluster_11648561419_11648561420_2271142975_4854142869_7.xml"/>
    </output>

    <traci_server>
        <remote-port value="49431"/>
    </traci_server>

</configuration>
-->

<tripinfos xmlns:xsi="http://www.w3.org/2001/XMLSchema-instance" xsi:noNamespaceSchemaLocation="http://sumo.dlr.de/xsd/tripinfo_file.xsd">
    <tripinfo id="flow_route_98_duration_20250327_2040.0" depart="0.00" departLane="1328664748#0_0" departPos="103.72" departSpeed="0.00" departDelay="0.00" arrival="27.00" arrivalLane="177211987#1_0" arrivalPos="104.29" arrivalSpeed="15.41" duration="27.00" routeLength="249.04" waitingTime="0.00" waitingCount="0" stopTime="0.00" timeLoss="10.60" rerouteNo="0" devices="tripinfo_flow_route_98_duration_20250327_2040.0" vType="car" speedFactor="0.94" vaporized=""/>
    <tripinfo id="flow_route_97_duration_20250327_2040.0" depart="0.00" departLane="1328664748#0_0" departPos="149.74" departSpeed="0.00" departDelay="0.00" arrival="28.00" arrivalLane="135474719#0_0" arrivalPos="137.46" arrivalSpeed="16.21" duration="28.00" routeLength="222.45" waitingTime="0.00" waitingCount="0" stopTime="0.00" timeLoss="12.63" rerouteNo="0" devices="tripinfo_flow_route_97_duration_20250327_2040.0" vType="car" speedFactor="1.06" vaporized=""/>
    <tripinfo id="flow_route_118_duration_20250327_2040.2" depart="5.00" departLane="134194079#0_0" departPos="282.21" departSpeed="0.00" departDelay="0.56" arrival="29.00" arrivalLane="1328664744#0_0" arrivalPos="169.60" arrivalSpeed="15.09" duration="24.00" routeLength="208.54" waitingTime="0.00" waitingCount="0" stopTime="0.00" timeLoss="10.01" rerouteNo="0" devices="tripinfo_flow_route_118_duration_20250327_2040.2" vType="car" speedFactor="0.93" vaporized=""/>
    <tripinfo id="flow_route_118_duration_20250327_2040.4" depart="9.00" departLane="134194079#0_0" departPos="175.90" departSpeed="0.00" departDelay="0.11" arrival="30.00" arrivalLane="1328664744#0_1" arrivalPos="19.75" arrivalSpeed="16.30" duration="21.00" routeLength="165.00" waitingTime="0.00" waitingCount="0" stopTime="0.00" timeLoss="10.52" rerouteNo="0" devices="tripinfo_flow_route_118_duration_20250327_2040.4" vType="car" speedFactor="1.01" vaporized=""/>
    <tripinfo id="flow_route_119_duration_20250327_2040.0" depart="0.00" departLane="134194079#0_0" departPos="151.34" departSpeed="0.00" departDelay="0.00" arrival="34.00" arrivalLane="1253188486#8_0" arrivalPos="1.48" arrivalSpeed="8.70" duration="34.00" routeLength="161.10" waitingTime="0.00" waitingCount="0" stopTime="0.00" timeLoss="23.23" rerouteNo="0" devices="tripinfo_flow_route_119_duration_20250327_2040.0" vType="car" speedFactor="1.09" vaporized=""/>
    <tripinfo id="flow_route_118_duration_20250327_2040.5" depart="15.00" departLane="134194079#0_0" departPos="200.22" departSpeed="0.00" departDelay="3.89" arrival="37.00" arrivalLane="1328664744#0_0" arrivalPos="6.18" arrivalSpeed="11.45" duration="22.00" routeLength="127.10" waitingTime="0.00" waitingCount="0" stopTime="0.00" timeLoss="13.43" rerouteNo="0" devices="tripinfo_flow_route_118_duration_20250327_2040.5" vType="car" speedFactor="0.93" vaporized=""/>
    <tripinfo id="flow_route_118_duration_20250327_2040.3" depart="8.00" departLane="134194079#0_0" departPos="239.47" departSpeed="0.00" departDelay="1.33" arrival="38.00" arrivalLane="1328664744#0_0" arrivalPos="213.98" arrivalSpeed="16.42" duration="30.00" routeLength="295.67" waitingTime="0.00" waitingCount="0" stopTime="0.00" timeLoss="11.42" rerouteNo="0" devices="tripinfo_flow_route_118_duration_20250327_2040.3" vType="car" speedFactor="1.02" vaporized=""/>
    <tripinfo id="flow_route_118_duration_20250327_2040.7" depart="17.00" departLane="134194079#0_0" departPos="258.30" departSpeed="0.00" departDelay="1.45" arrival="40.00" arrivalLane="1328664744#0_0" arrivalPos="113.77" arrivalSpeed="16.10" duration="23.00" routeLength="176.62" waitingTime="0.00" waitingCount="0" stopTime="0.00" timeLoss="11.52" rerouteNo="0" devices="tripinfo_flow_route_118_duration_20250327_2040.7" vType="car" speedFactor="1.02" vaporized=""/>
    <tripinfo id="flow_route_97_duration_20250327_2040.2" depart="25.00" departLane="1328664748#0_0" departPos="190.58" departSpeed="0.00" departDelay="1.00" arrival="43.00" arrivalLane="135474719#0_0" arrivalPos="53.16" arrivalSpeed="10.27" duration="18.00" routeLength="97.30" waitingTime="0.00" waitingCount="0" stopTime="0.00" timeLoss="9.18" rerouteNo="0" devices="tripinfo_flow_route_97_duration_20250327_2040.2" vType="car" speedFactor="0.85" vaporized=""/>
    <tripinfo id="flow_route_118_duration_20250327_2040.0" depart="0.00" departLane="134194079#0_0" departPos="13.63" departSpeed="0.00" departDelay="0.00" arrival="45.00" arrivalLane="1328664744#0_2" arrivalPos="165.30" arrivalSpeed="14.01" duration="45.00" routeLength="472.83" waitingTime="0.00" waitingCount="0" stopTime="0.00" timeLoss="11.87" rerouteNo="0" devices="tripinfo_flow_route_118_duration_20250327_2040.0" vType="car" speedFactor="0.86" vaporized=""/>
    <tripinfo id="flow_route_118_duration_20250327_2040.1" depart="3.00" departLane="134194079#0_0" departPos="117.00" departSpeed="0.00" departDelay="0.78" arrival="45.00" arrivalLane="1328664744#0_1" arrivalPos="208.33" arrivalSpeed="16.18" duration="42.00" routeLength="412.48" waitingTime="0.00" waitingCount="0" stopTime="0.00" timeLoss="17.07" rerouteNo="0" devices="tripinfo_flow_route_118_duration_20250327_2040.1" vType="car" speedFactor="1.05" vaporized=""/>
    <tripinfo id="flow_route_119_duration_20250327_2040.3" depart="9.00" departLane="134194079#0_0" departPos="204.04" departSpeed="0.00" departDelay="0.82" arrival="45.00" arrivalLane="1253188486#8_0" arrivalPos="163.92" arrivalSpeed="16.31" duration="36.00" routeLength="270.83" waitingTime="0.00" waitingCount="0" stopTime="0.00" timeLoss="18.05" rerouteNo="0" devices="tripinfo_flow_route_119_duration_20250327_2040.3" vType="car" speedFactor="0.97" vaporized=""/>
    <tripinfo id="flow_route_99_duration_20250327_2040.0" depart="1.00" departLane="1328664748#0_0" departPos="68.32" departSpeed="0.00" departDelay="1.00" arrival="46.00" arrivalLane="1253188486#8_2" arrivalPos="11.16" arrivalSpeed="6.93" duration="45.00" routeLength="200.71" waitingTime="12.00" waitingCount="1" stopTime="0.00" timeLoss="32.30" rerouteNo="0" devices="tripinfo_flow_route_99_duration_20250327_2040.0" vType="car" speedFactor="1.01" vaporized=""/>
    <tripinfo id="flow_route_97_duration_20250327_2040.1" depart="14.00" departLane="1328664748#0_0" departPos="10.42" departSpeed="0.00" departDelay="2.00" arrival="51.00" arrivalLane="135474719#0_0" arrivalPos="98.99" arrivalSpeed="14.22" duration="37.00" routeLength="323.29" waitingTime="0.00" waitingCount="0" stopTime="0.00" timeLoss="14.73" rerouteNo="0" devices="tripinfo_flow_route_97_duration_20250327_2040.1" vType="car" speedFactor="0.95" vaporized=""/>
    <tripinfo id="flow_route_99_duration_20250327_2040.2" depart="20.00" departLane="1328664748#0_0" departPos="158.46" departSpeed="0.00" departDelay="0.00" arrival="57.00" arrivalLane="1253188486#8_2" arrivalPos="100.85" arrivalSpeed="14.37" duration="37.00" routeLength="200.26" waitingTime="4.00" waitingCount="1" stopTime="0.00" timeLoss="23.47" rerouteNo="0" devices="tripinfo_flow_route_99_duration_20250327_2040.2" vType="car" speedFactor="0.96" vaporized=""/>
    <tripinfo id="flow_route_97_duration_20250327_2040.3" depart="37.00" departLane="1328664748#0_0" departPos="126.73" departSpeed="0.00" departDelay="1.00" arrival="60.00" arrivalLane="135474719#0_0" arrivalPos="38.65" arrivalSpeed="9.63" duration="23.00" routeLength="146.64" waitingTime="0.00" waitingCount="0" stopTime="0.00" timeLoss="12.12" rerouteNo="0" devices="tripinfo_flow_route_97_duration_20250327_2040.3" vType="car" speedFactor="0.94" vaporized=""/>
    <tripinfo id="flow_route_99_duration_20250327_2040.1" depart="10.00" departLane="1328664748#0_0" departPos="68.48" departSpeed="0.00" departDelay="0.00" arrival="66.00" arrivalLane="1253188486#8_2" arrivalPos="229.41" arrivalSpeed="16.50" duration="56.00" routeLength="418.80" waitingTime="2.00" waitingCount="1" stopTime="0.00" timeLoss="28.78" rerouteNo="0" devices="tripinfo_flow_route_99_duration_20250327_2040.1" vType="car" speedFactor="0.89" vaporized=""/>
    <tripinfo id="flow_route_99_duration_20250327_2040.3" depart="31.00" departLane="1328664748#0_0" departPos="74.05" departSpeed="0.00" departDelay="1.00" arrival="70.00" arrivalLane="1253188486#8_2" arrivalPos="208.86" arrivalSpeed="16.34" duration="39.00" routeLength="392.68" waitingTime="0.00" waitingCount="0" stopTime="0.00" timeLoss="14.31" rerouteNo="0" devices="tripinfo_flow_route_99_duration_20250327_2040.3" vType="car" speedFactor="1.12" vaporized=""/>
    <tripinfo id="flow_route_99_duration_20250327_2040.4" depart="40.00" departLane="1328664748#0_0" departPos="24.40" departSpeed="0.00" departDelay="0.00" arrival="76.00" arrivalLane="1253188486#8_2" arrivalPos="105.56" arrivalSpeed="15.85" duration="36.00" routeLength="339.03" waitingTime="0.00" waitingCount="0" stopTime="0.00" timeLoss="14.80" rerouteNo="0" devices="tripinfo_flow_route_99_duration_20250327_2040.4" vType="car" speedFactor="1.09" vaporized=""/>
    <tripinfo id="flow_route_97_duration_20250327_2040.4" depart="48.00" departLane="1328664748#0_0" departPos="75.95" departSpeed="0.00" departDelay="0.00" arrival="78.00" arrivalLane="135474719#0_0" arrivalPos="73.48" arrivalSpeed="13.27" duration="30.00" routeLength="232.24" waitingTime="0.00" waitingCount="0" stopTime="0.00" timeLoss="14.73" rerouteNo="0" devices="tripinfo_flow_route_97_duration_20250327_2040.4" vType="car" speedFactor="1.01" vaporized=""/>
    <tripinfo id="flow_route_110_duration_20250327_2040.0" depart="0.00" departLane="1254519225#0.109_0" departPos="3.76" departSpeed="0.00" departDelay="0.00" arrival="81.00" arrivalLane="177211987#1_2" arrivalPos="6.38" arrivalSpeed="7.41" duration="81.00" routeLength="190.24" waitingTime="50.00" waitingCount="1" stopTime="0.00" timeLoss="66.45" rerouteNo="0" devices="tripinfo_flow_route_110_duration_20250327_2040.0" vType="car" speedFactor="0.83" vaporized=""/>
    <tripinfo id="flow_route_109_duration_20250327_2040.1" depart="7.00" departLane="1254519225#0.109_0" departPos="13.92" departSpeed="0.00" departDelay="0.33" arrival="87.00" arrivalLane="1328664744#0_0" arrivalPos="27.82" arrivalSpeed="9.62" duration="80.00" routeLength="188.12" waitingTime="46.00" waitingCount="1" stopTime="0.00" timeLoss="67.07" rerouteNo="0" devices="tripinfo_flow_route_109_duration_20250327_2040.1" vType="car" speedFactor="0.94" vaporized=""/>
    <tripinfo id="flow_route_108_duration_20250327_2040.0" depart="0.00" departLane="1254519225#0.109_0" departPos="35.33" departSpeed="0.00" departDelay="0.00" arrival="89.00" arrivalLane="135474719#0_0" arrivalPos="75.82" arrivalSpeed="14.18" duration="89.00" routeLength="240.24" waitingTime="51.00" waitingCount="1" stopTime="0.00" timeLoss="73.89" rerouteNo="0" devices="tripinfo_flow_route_108_duration_20250327_2040.0" vType="car" speedFactor="1.08" vaporized=""/>
    <tripinfo id="flow_route_108_duration_20250327_2040.1" depart="15.00" departLane="1254519225#0.109_0" departPos="24.32" departSpeed="0.00" departDelay="0.00" arrival="90.00" arrivalLane="135474719#0_2" arrivalPos="54.28" arrivalSpeed="13.09" duration="75.00" routeLength="229.72" waitingTime="37.00" waitingCount="1" stopTime="0.00" timeLoss="60.41" rerouteNo="0" devices="tripinfo_flow_route_108_duration_20250327_2040.1" vType="car" speedFactor="0.99" vaporized=""/>
    <tripinfo id="flow_route_109_duration_20250327_2040.4" depart="27.00" departLane="1254519225#0.109_0" departPos="10.45" departSpeed="0.00" departDelay="0.34" arrival="91.00" arrivalLane="1328664744#0_0" arrivalPos="3.24" arrivalSpeed="9.26" duration="64.00" routeLength="167.02" waitingTime="29.00" waitingCount="1" stopTime="0.00" timeLoss="52.64" rerouteNo="0" devices="tripinfo_flow_route_109_duration_20250327_2040.4" vType="car" speedFactor="1.00" vaporized=""/>
    <tripinfo id="flow_route_109_duration_20250327_2040.2" depart="14.00" departLane="1254519225#0.109_0" departPos="45.04" departSpeed="0.00" departDelay="0.67" arrival="93.00" arrivalLane="1328664744#0_0" arrivalPos="75.21" arrivalSpeed="13.73" duration="79.00" routeLength="204.40" waitingTime="41.00" waitingCount="2" stopTime="0.00" timeLoss="65.78" rerouteNo="0" devices="tripinfo_flow_route_109_duration_20250327_2040.2" vType="car" speedFactor="1.18" vaporized=""/>
    <tripinfo id="flow_route_109_duration_20250327_2040.0" depart="0.00" departLane="1254519225#0.109_0" departPos="16.50" departSpeed="0.00" departDelay="0.00" arrival="94.00" arrivalLane="1328664744#0_0" arrivalPos="130.88" arrivalSpeed="16.01" duration="94.00" routeLength="288.61" waitingTime="50.00" waitingCount="1" stopTime="0.00" timeLoss="74.90" rerouteNo="0" devices="tripinfo_flow_route_109_duration_20250327_2040.0" vType="car" speedFactor="1.03" vaporized=""/>
    <tripinfo id="flow_route_110_duration_20250327_2040.1" depart="20.00" departLane="1254519225#0.109_0" departPos="44.50" departSpeed="0.00" departDelay="0.00" arrival="94.00" arrivalLane="177211987#1_2" arrivalPos="102.38" arrivalSpeed="15.17" duration="74.00" routeLength="245.50" waitingTime="36.00" waitingCount="1" stopTime="0.00" timeLoss="58.01" rerouteNo="0" devices="tripinfo_flow_route_110_duration_20250327_2040.1" vType="car" speedFactor="1.04" vaporized=""/>
    <tripinfo id="flow_route_109_duration_20250327_2040.3" depart="20.00" departLane="1254519225#0.109_0" departPos="7.75" departSpeed="0.00" departDelay="0.00" arrival="95.00" arrivalLane="1328664744#0_0" arrivalPos="76.07" arrivalSpeed="13.40" duration="75.00" routeLength="242.54" waitingTime="36.00" waitingCount="1" stopTime="0.00" timeLoss="59.55" rerouteNo="0" devices="tripinfo_flow_route_109_duration_20250327_2040.3" vType="car" speedFactor="1.09" vaporized=""/>
    <tripinfo id="flow_route_109_duration_20250327_2040.5" depart="34.00" departLane="1254519225#0.109_0" departPos="14.21" departSpeed="0.00" departDelay="0.67" arrival="95.00" arrivalLane="1328664744#0_0" arrivalPos="28.73" arrivalSpeed="11.04" duration="61.00" routeLength="188.75" waitingTime="27.00" waitingCount="1" stopTime="0.00" timeLoss="48.41" rerouteNo="0" devices="tripinfo_flow_route_109_duration_20250327_2040.5" vType="car" speedFactor="1.02" vaporized=""/>
    <tripinfo id="flow_route_108_duration_20250327_2040.2" depart="30.00" departLane="1254519225#0.109_0" departPos="48.92" departSpeed="0.00" departDelay="0.00" arrival="98.00" arrivalLane="135474719#0_2" arrivalPos="126.41" arrivalSpeed="16.22" duration="68.00" routeLength="277.24" waitingTime="29.00" waitingCount="1" stopTime="0.00" timeLoss="50.81" rerouteNo="0" devices="tripinfo_flow_route_108_duration_20250327_2040.2" vType="car" speedFactor="1.02" vaporized=""/>
    <tripinfo id="flow_route_110_duration_20250327_2040.2" depart="40.00" departLane="1254519225#0.109_0" departPos="0.73" departSpeed="0.00" departDelay="0.00" arrival="98.00" arrivalLane="177211987#1_2" arrivalPos="108.17" arrivalSpeed="16.35" duration="58.00" routeLength="295.07" waitingTime="15.00" waitingCount="1" stopTime="0.00" timeLoss="38.67" rerouteNo="0" devices="tripinfo_flow_route_110_duration_20250327_2040.2" vType="car" speedFactor="1.00" vaporized=""/>
    <tripinfo id="flow_route_108_duration_20250327_2040.3" depart="45.00" departLane="1254519225#0.109_0" departPos="1.97" departSpeed="0.00" departDelay="0.00" arrival="102.00" arrivalLane="135474719#0_2" arrivalPos="144.64" arrivalSpeed="16.13" duration="57.00" routeLength="342.42" waitingTime="13.00" waitingCount="1" stopTime="0.00" timeLoss="36.16" rerouteNo="0" devices="tripinfo_flow_route_108_duration_20250327_2040.3" vType="car" speedFactor="1.02" vaporized=""/>
    <tripinfo id="flow_route_109_duration_20250327_2040.7" depart="47.00" departLane="1254519225#0.109_0" departPos="31.63" departSpeed="0.00" departDelay="0.34" arrival="105.00" arrivalLane="1328664744#0_0" arrivalPos="76.08" arrivalSpeed="13.29" duration="58.00" routeLength="218.68" waitingTime="18.00" waitingCount="1" stopTime="0.00" timeLoss="40.57" rerouteNo="0" devices="tripinfo_flow_route_109_duration_20250327_2040.7" vType="car" speedFactor="0.83" vaporized=""/>
    <tripinfo id="flow_route_109_duration_20250327_2040.6" depart="40.00" departLane="1254519225#0.109_0" departPos="32.96" departSpeed="0.00" departDelay="0.00" arrival="108.00" arrivalLane="1328664744#0_0" arrivalPos="175.89" arrivalSpeed="16.38" duration="68.00" routeLength="317.16" waitingTime="23.00" waitingCount="1" stopTime="0.00" timeLoss="47.46" rerouteNo="0" devices="tripinfo_flow_route_109_duration_20250327_2040.6" vType="car" speedFactor="1.03" vaporized=""/>
    <tripinfo id="flow_route_109_duration_20250327_2040.8" depart="54.00" departLane="1254519225#0.109_0" departPos="18.91" departSpeed="0.00" departDelay="0.67" arrival="114.00" arrivalLane="1328664744#0_0" arrivalPos="205.39" arrivalSpeed="16.23" duration="60.00" routeLength="360.71" waitingTime="13.00" waitingCount="1" stopTime="0.00" timeLoss="37.49" rerouteNo="0" devices="tripinfo_flow_route_109_duration_20250327_2040.8" vType="car" speedFactor="1.07" vaporized=""/>
    <tripinfo id="flow_route_115_duration_20250327_2040.1" depart="6.00" departLane="1253188486#4_0" departPos="50.74" departSpeed="0.00" departDelay="0.55" arrival="120.00" arrivalLane="1328664744#0_2" arrivalPos="6.62" arrivalSpeed="8.17" duration="114.00" routeLength="141.27" waitingTime="87.00" waitingCount="1" stopTime="0.00" timeLoss="104.10" rerouteNo="0" devices="tripinfo_flow_route_115_duration_20250327_2040.1" vType="car" speedFactor="0.88" vaporized=""/>
    <tripinfo id="flow_route_114_duration_20250327_2040.0" depart="0.00" departLane="1253188486#4_0" departPos="49.31" departSpeed="0.00" departDelay="0.00" arrival="123.00" arrivalLane="177211987#1_0" arrivalPos="36.23" arrivalSpeed="9.20" duration="123.00" routeLength="153.37" waitingTime="89.00" waitingCount="1" stopTime="0.00" timeLoss="112.08" rerouteNo="0" devices="tripinfo_flow_route_114_duration_20250327_2040.0" vType="car" speedFactor="0.89" vaporized=""/>
    <tripinfo id="flow_route_115_duration_20250327_2040.0" depart="0.00" departLane="1253188486#4_0" departPos="104.70" departSpeed="0.00" departDelay="0.00" arrival="127.00" arrivalLane="1328664744#0_2" arrivalPos="120.97" arrivalSpeed="15.33" duration="127.00" routeLength="201.67" waitingTime="96.00" waitingCount="1" stopTime="0.00" timeLoss="113.34" rerouteNo="0" devices="tripinfo_flow_route_115_duration_20250327_2040.0" vType="car" speedFactor="0.94" vaporized=""/>
    <tripinfo id="flow_route_113_duration_20250327_2040.3" depart="9.00" departLane="1253188486#4_0" departPos="109.60" departSpeed="0.00" departDelay="2.08" arrival="127.00" arrivalLane="1253188486#8_1" arrivalPos="100.92" arrivalSpeed="15.78" duration="118.00" routeLength="189.95" waitingTime="87.00" waitingCount="1" stopTime="0.00" timeLoss="105.90" rerouteNo="0" devices="tripinfo_flow_route_113_duration_20250327_2040.3" vType="car" speedFactor="1.16" vaporized=""/>
    <tripinfo id="flow_route_113_duration_20250327_2040.9" depart="22.00" departLane="1253188486#4_0" departPos="103.43" departSpeed="0.00" departDelay="1.24" arrival="127.00" arrivalLane="1253188486#8_1" arrivalPos="34.63" arrivalSpeed="12.05" duration="105.00" routeLength="129.83" waitingTime="77.00" waitingCount="1" stopTime="0.00" timeLoss="96.66" rerouteNo="0" devices="tripinfo_flow_route_113_duration_20250327_2040.9" vType="car" speedFactor="1.00" vaporized=""/>
    <tripinfo id="flow_route_113_duration_20250327_2040.2" depart="5.00" departLane="1253188486#4_0" departPos="24.37" departSpeed="0.00" departDelay="0.39" arrival="128.00" arrivalLane="1253188486#8_1" arrivalPos="74.03" arrivalSpeed="14.33" duration="123.00" routeLength="248.30" waitingTime="84.00" waitingCount="1" stopTime="0.00" timeLoss="107.34" rerouteNo="0" devices="tripinfo_flow_route_113_duration_20250327_2040.2" vType="car" speedFactor="0.99" vaporized=""/>
    <tripinfo id="flow_route_113_duration_20250327_2040.5" depart="15.00" departLane="1253188486#4_0" departPos="32.53" departSpeed="0.00" departDelay="3.47" arrival="129.00" arrivalLane="1253188486#8_1" arrivalPos="37.25" arrivalSpeed="12.55" duration="114.00" routeLength="203.35" waitingTime="76.00" waitingCount="1" stopTime="0.00" timeLoss="101.69" rerouteNo="0" devices="tripinfo_flow_route_113_duration_20250327_2040.5" vType="car" speedFactor="1.13" vaporized=""/>
    <tripinfo id="flow_route_113_duration_20250327_2040.6" depart="17.00" departLane="1253188486#4_0" departPos="46.37" departSpeed="0.00" departDelay="3.16" arrival="131.00" arrivalLane="1253188486#8_0" arrivalPos="21.10" arrivalSpeed="11.46" duration="114.00" routeLength="173.37" waitingTime="78.00" waitingCount="1" stopTime="0.00" timeLoss="103.18" rerouteNo="0" devices="tripinfo_flow_route_113_duration_20250327_2040.6" vType="car" speedFactor="1.15" vaporized=""/>
    <tripinfo id="flow_route_113_duration_20250327_2040.0" depart="0.00" departLane="1253188486#4_0" departPos="134.10" departSpeed="0.00" departDelay="0.00" arrival="133.00" arrivalLane="1253188486#8_0" arrivalPos="182.35" arrivalSpeed="16.52" duration="133.00" routeLength="246.88" waitingTime="100.00" waitingCount="1" stopTime="0.00" timeLoss="117.43" rerouteNo="0" devices="tripinfo_flow_route_113_duration_20250327_2040.0" vType="car" speedFactor="1.05" vaporized=""/>
    <tripinfo id="flow_route_113_duration_20250327_2040.7" depart="18.00" departLane="1253188486#4_0" departPos="65.11" departSpeed="0.00" departDelay="1.85" arrival="134.00" arrivalLane="1253188486#8_0" arrivalPos="89.59" arrivalSpeed="15.19" duration="116.00" routeLength="223.11" waitingTime="78.00" waitingCount="1" stopTime="0.00" timeLoss="101.86" rerouteNo="0" devices="tripinfo_flow_route_113_duration_20250327_2040.7" vType="car" speedFactor="0.97" vaporized=""/>
    <tripinfo id="flow_route_113_duration_20250327_2040.1" depart="4.00" departLane="1253188486#4_0" departPos="36.26" departSpeed="0.00" departDelay="1.69" arrival="135.00" arrivalLane="1253188486#8_2" arrivalPos="155.42" arrivalSpeed="16.19" duration="131.00" routeLength="317.79" waitingTime="83.00" waitingCount="1" stopTime="0.00" timeLoss="111.33" rerouteNo="0" devices="tripinfo_flow_route_113_duration_20250327_2040.1" vType="car" speedFactor="1.03" vaporized=""/>
    <tripinfo id="flow_route_115_duration_20250327_2040.2" depart="13.00" departLane="1253188486#4_0" departPos="10.26" departSpeed="0.00" departDelay="2.09" arrival="138.00" arrivalLane="1328664744#0_2" arrivalPos="128.69" arrivalSpeed="14.38" duration="125.00" routeLength="303.83" waitingTime="79.00" waitingCount="1" stopTime="0.00" timeLoss="104.00" rerouteNo="0" devices="tripinfo_flow_route_115_duration_20250327_2040.2" vType="car" speedFactor="0.87" vaporized=""/>
    <tripinfo id="flow_route_115_duration_20250327_2040.4" depart="25.00" departLane="1253188486#4_0" departPos="15.76" departSpeed="0.00" departDelay="3.18" arrival="138.00" arrivalLane="1328664744#0_2" arrivalPos="106.49" arrivalSpeed="14.08" duration="113.00" routeLength="276.14" waitingTime="70.00" waitingCount="1" stopTime="0.00" timeLoss="94.13" rerouteNo="0" devices="tripinfo_flow_route_115_duration_20250327_2040.4" vType="car" speedFactor="0.90" vaporized=""/>
    <tripinfo id="flow_route_113_duration_20250327_2040.12" depart="29.00" departLane="1253188486#4_0" departPos="63.08" departSpeed="0.00" departDelay="1.32" arrival="138.00" arrivalLane="1253188486#8_1" arrivalPos="84.85" arrivalSpeed="15.39" duration="109.00" routeLength="220.40" waitingTime="70.00" waitingCount="1" stopTime="0.00" timeLoss="94.81" rerouteNo="0" devices="tripinfo_flow_route_113_duration_20250327_2040.12" vType="car" speedFactor="1.14" vaporized=""/>
    <tripinfo id="flow_route_115_duration_20250327_2040.3" depart="19.00" departLane="1253188486#4_0" departPos="87.86" departSpeed="0.00" departDelay="2.64" arrival="139.00" arrivalLane="1328664744#0_2" arrivalPos="216.71" arrivalSpeed="16.38" duration="120.00" routeLength="314.25" waitingTime="80.00" waitingCount="1" stopTime="0.00" timeLoss="100.18" rerouteNo="0" devices="tripinfo_flow_route_115_duration_20250327_2040.3" vType="car" speedFactor="1.18" vaporized=""/>
    <tripinfo id="flow_route_113_duration_20250327_2040.14" depart="33.00" departLane="1253188486#4_0" departPos="24.14" departSpeed="0.00" departDelay="0.70" arrival="139.00" arrivalLane="1253188486#8_1" arrivalPos="79.35" arrivalSpeed="15.20" duration="106.00" routeLength="253.84" waitingTime="66.00" waitingCount="1" stopTime="0.00" timeLoss="90.01" rerouteNo="0" devices="tripinfo_flow_route_113_duration_20250327_2040.14" vType="car" speedFactor="0.91" vaporized=""/>
    <tripinfo id="flow_route_113_duration_20250327_2040.4" depart="10.00" departLane="1253188486#4_0" departPos="75.44" departSpeed="0.00" departDelay="0.77" arrival="140.00" arrivalLane="1253188486#8_0" arrivalPos="235.51" arrivalSpeed="16.55" duration="130.00" routeLength="358.70" waitingTime="85.00" waitingCount="1" stopTime="0.00" timeLoss="108.15" rerouteNo="0" devices="tripinfo_flow_route_113_duration_20250327_2040.4" vType="car" speedFactor="0.83" vaporized=""/>
    <tripinfo id="flow_route_113_duration_20250327_2040.13" depart="31.00" departLane="1253188486#4_0" departPos="31.78" departSpeed="0.00" departDelay="1.01" arrival="140.00" arrivalLane="1253188486#8_0" arrivalPos="96.53" arrivalSpeed="15.74" duration="109.00" routeLength="263.38" waitingTime="68.00" waitingCount="1" stopTime="0.00" timeLoss="92.83" rerouteNo="0" devices="tripinfo_flow_route_113_duration_20250327_2040.13" vType="car" speedFactor="0.99" vaporized=""/>
    <tripinfo id="flow_route_113_duration_20250327_2040.15" depart="37.00" departLane="1253188486#4_0" departPos="12.95" departSpeed="0.00" departDelay="2.40" arrival="141.00" arrivalLane="1253188486#8_2" arrivalPos="47.92" arrivalSpeed="14.26" duration="104.00" routeLength="233.60" waitingTime="60.00" waitingCount="1" stopTime="0.00" timeLoss="89.34" rerouteNo="0" devices="tripinfo_flow_route_113_duration_20250327_2040.15" vType="car" speedFactor="0.97" vaporized=""/>
    <tripinfo id="flow_route_113_duration_20250327_2040.10" depart="27.00" departLane="1253188486#4_0" departPos="73.93" departSpeed="0.00" departDelay="3.93" arrival="142.00" arrivalLane="1253188486#8_0" arrivalPos="162.73" arrivalSpeed="16.26" duration="115.00" routeLength="287.44" waitingTime="73.00" waitingCount="1" stopTime="0.00" timeLoss="97.47" rerouteNo="0" devices="tripinfo_flow_route_113_duration_20250327_2040.10" vType="car" speedFactor="1.17" vaporized=""/>
    <tripinfo id="flow_route_113_duration_20250327_2040.8" depart="20.00" departLane="1253188486#4_0" departPos="43.07" departSpeed="0.00" departDelay="1.54" arrival="143.00" arrivalLane="1253188486#8_1" arrivalPos="214.39" arrivalSpeed="16.52" duration="123.00" routeLength="369.95" waitingTime="75.00" waitingCount="1" stopTime="0.00" timeLoss="99.86" rerouteNo="0" devices="tripinfo_flow_route_113_duration_20250327_2040.8" vType="car" speedFactor="1.03" vaporized=""/>
    <tripinfo id="flow_route_115_duration_20250327_2040.6" depart="37.00" departLane="1253188486#4_0" departPos="61.77" departSpeed="0.00" departDelay="4.28" arrival="144.00" arrivalLane="1328664744#0_2" arrivalPos="160.43" arrivalSpeed="14.98" duration="107.00" routeLength="284.06" waitingTime="65.00" waitingCount="1" stopTime="0.00" timeLoss="87.68" rerouteNo="0" devices="tripinfo_flow_route_115_duration_20250327_2040.6" vType="car" speedFactor="0.91" vaporized=""/>
    <tripinfo id="flow_route_115_duration_20250327_2040.5" depart="29.00" departLane="1253188486#4_0" departPos="17.51" departSpeed="0.00" departDelay="1.73" arrival="147.00" arrivalLane="1328664744#0_2" arrivalPos="177.03" arrivalSpeed="16.52" duration="118.00" routeLength="344.91" waitingTime="61.00" waitingCount="2" stopTime="0.00" timeLoss="95.71" rerouteNo="0" devices="tripinfo_flow_route_115_duration_20250327_2040.5" vType="car" speedFactor="1.02" vaporized=""/>
    <tripinfo id="flow_route_113_duration_20250327_2040.11" depart="28.00" departLane="1253188486#4_0" departPos="0.13" departSpeed="0.00" departDelay="2.62" arrival="148.00" arrivalLane="1253188486#8_1" arrivalPos="201.45" arrivalSpeed="16.12" duration="120.00" routeLength="399.95" waitingTime="65.00" waitingCount="1" stopTime="0.00" timeLoss="95.24" rerouteNo="0" devices="tripinfo_flow_route_113_duration_20250327_2040.11" vType="car" speedFactor="1.00" vaporized=""/>
    <tripinfo id="flow_route_113_duration_20250327_2040.20" depart="52.00" departLane="1253188486#4_0" departPos="71.75" departSpeed="0.00" departDelay="5.86" arrival="148.00" arrivalLane="1253188486#8_1" arrivalPos="69.86" arrivalSpeed="16.55" duration="96.00" routeLength="196.74" waitingTime="63.00" waitingCount="2" stopTime="0.00" timeLoss="83.37" rerouteNo="0" devices="tripinfo_flow_route_113_duration_20250327_2040.20" vType="car" speedFactor="0.92" vaporized=""/>