<?xml version="1.0" encoding="UTF-8"?>

<!-- generated on 2025-05-06 21:08:15 by Eclipse SUMO sumo Version 1.20.0
<configuration xmlns:xsi="http://www.w3.org/2001/XMLSchema-instance" xsi:noNamespaceSchemaLocation="http://sumo.dlr.de/xsd/sumoConfiguration.xsd">

    <input>
        <net-file value="osm.net.xml"/>
        <route-files value="xml/route_static_cluster_11648561419_11648561420_2271142975_4854142869_3.rou.xml"/>
    </input>

    <output>
        <tripinfo-output value="xml/tripinfo_static_cluster_11648561419_11648561420_2271142975_4854142869_3.xml"/>
    </output>

    <traci_server>
        <remote-port value="53847"/>
    </traci_server>

</configuration>
-->

<tripinfos xmlns:xsi="http://www.w3.org/2001/XMLSchema-instance" xsi:noNamespaceSchemaLocation="http://sumo.dlr.de/xsd/tripinfo_file.xsd">
    <tripinfo id="flow_route_97_duration_20250327_2020.1" depart="8.00" departLane="1328664748#0_0" departPos="213.58" departSpeed="0.00" departDelay="1.33" arrival="20.00" arrivalLane="135474719#0_0" arrivalPos="34.42" arrivalSpeed="9.17" duration="12.00" routeLength="55.57" waitingTime="0.00" waitingCount="0" stopTime="0.00" timeLoss="7.57" rerouteNo="0" devices="tripinfo_flow_route_97_duration_20250327_2020.1" vType="car" speedFactor="1.01" vaporized=""/>
    <tripinfo id="flow_route_119_duration_20250327_2020.0" depart="0.00" departLane="134194079#0_0" departPos="151.34" departSpeed="0.00" departDelay="0.00" arrival="23.00" arrivalLane="1253188486#8_0" arrivalPos="1.48" arrivalSpeed="8.74" duration="23.00" routeLength="161.10" waitingTime="0.00" waitingCount="0" stopTime="0.00" timeLoss="12.39" rerouteNo="0" devices="tripinfo_flow_route_119_duration_20250327_2020.0" vType="car" speedFactor="1.09" vaporized=""/>
    <tripinfo id="flow_route_118_duration_20250327_2020.3" depart="4.00" departLane="134194079#0_0" departPos="202.11" departSpeed="0.00" departDelay="0.09" arrival="24.00" arrivalLane="1328664744#0_0" arrivalPos="35.30" arrivalSpeed="15.44" duration="20.00" routeLength="154.34" waitingTime="0.00" waitingCount="0" stopTime="0.00" timeLoss="9.50" rerouteNo="0" devices="tripinfo_flow_route_118_duration_20250327_2020.3" vType="car" speedFactor="0.94" vaporized=""/>
    <tripinfo id="flow_route_98_duration_20250327_2020.0" depart="0.00" departLane="1328664748#0_0" departPos="103.72" departSpeed="0.00" departDelay="0.00" arrival="27.00" arrivalLane="177211987#1_1" arrivalPos="104.29" arrivalSpeed="15.43" duration="27.00" routeLength="249.04" waitingTime="0.00" waitingCount="0" stopTime="0.00" timeLoss="10.98" rerouteNo="0" devices="tripinfo_flow_route_98_duration_20250327_2020.0" vType="car" speedFactor="0.94" vaporized=""/>
    <tripinfo id="flow_route_99_duration_20250327_2020.0" depart="1.00" departLane="1328664748#0_0" departPos="68.32" departSpeed="0.00" departDelay="1.00" arrival="27.00" arrivalLane="1253188486#8_2" arrivalPos="11.16" arrivalSpeed="9.95" duration="26.00" routeLength="200.71" waitingTime="0.00" waitingCount="0" stopTime="0.00" timeLoss="13.25" rerouteNo="0" devices="tripinfo_flow_route_99_duration_20250327_2020.0" vType="car" speedFactor="1.01" vaporized=""/>
    <tripinfo id="flow_route_97_duration_20250327_2020.0" depart="0.00" departLane="1328664748#0_0" departPos="149.74" departSpeed="0.00" departDelay="0.00" arrival="30.00" arrivalLane="135474719#0_0" arrivalPos="137.46" arrivalSpeed="15.77" duration="30.00" routeLength="222.45" waitingTime="0.00" waitingCount="0" stopTime="0.00" timeLoss="15.56" rerouteNo="0" devices="tripinfo_flow_route_97_duration_20250327_2020.0" vType="car" speedFactor="1.06" vaporized=""/>
    <tripinfo id="flow_route_118_duration_20250327_2020.1" depart="2.00" departLane="134194079#0_0" departPos="261.87" departSpeed="0.00" departDelay="0.70" arrival="30.00" arrivalLane="1328664744#0_0" arrivalPos="208.33" arrivalSpeed="16.57" duration="28.00" routeLength="267.61" waitingTime="0.00" waitingCount="0" stopTime="0.00" timeLoss="11.22" rerouteNo="0" devices="tripinfo_flow_route_118_duration_20250327_2020.1" vType="car" speedFactor="1.05" vaporized=""/>
    <tripinfo id="flow_route_118_duration_20250327_2020.2" depart="3.00" departLane="134194079#0_0" departPos="69.84" departSpeed="0.00" departDelay="0.39" arrival="35.00" arrivalLane="1328664744#0_1" arrivalPos="87.98" arrivalSpeed="16.55" duration="32.00" routeLength="339.29" waitingTime="0.00" waitingCount="0" stopTime="0.00" timeLoss="11.32" rerouteNo="0" devices="tripinfo_flow_route_118_duration_20250327_2020.2" vType="car" speedFactor="1.12" vaporized=""/>
    <tripinfo id="flow_route_119_duration_20250327_2020.4" depart="22.00" departLane="134194079#0_0" departPos="289.40" departSpeed="0.00" departDelay="12.40" arrival="35.00" arrivalLane="1253188486#8_0" arrivalPos="43.91" arrivalSpeed="9.88" duration="13.00" routeLength="65.46" waitingTime="0.00" waitingCount="0" stopTime="0.00" timeLoss="7.87" rerouteNo="0" devices="tripinfo_flow_route_119_duration_20250327_2020.4" vType="car" speedFactor="0.99" vaporized=""/>
    <tripinfo id="flow_route_118_duration_20250327_2020.8" depart="22.00" departLane="134194079#0_0" departPos="261.74" departSpeed="0.00" departDelay="11.57" arrival="36.00" arrivalLane="1328664744#0_0" arrivalPos="19.08" arrivalSpeed="10.85" duration="14.00" routeLength="78.49" waitingTime="0.00" waitingCount="0" stopTime="0.00" timeLoss="8.77" rerouteNo="0" devices="tripinfo_flow_route_118_duration_20250327_2020.8" vType="car" speedFactor="0.97" vaporized=""/>
    <tripinfo id="flow_route_118_duration_20250327_2020.7" depart="21.00" departLane="134194079#0_0" departPos="252.70" departSpeed="0.00" departDelay="11.87" arrival="37.00" arrivalLane="1328664744#0_0" arrivalPos="14.86" arrivalSpeed="10.87" duration="16.00" routeLength="83.31" waitingTime="0.00" waitingCount="0" stopTime="0.00" timeLoss="10.86" rerouteNo="0" devices="tripinfo_flow_route_118_duration_20250327_2020.7" vType="car" speedFactor="1.17" vaporized=""/>
    <tripinfo id="flow_route_97_duration_20250327_2020.3" depart="20.00" departLane="1328664748#0_0" departPos="131.87" departSpeed="0.00" departDelay="0.00" arrival="40.00" arrivalLane="135474719#0_0" arrivalPos="23.69" arrivalSpeed="8.57" duration="20.00" routeLength="126.54" waitingTime="0.00" waitingCount="0" stopTime="0.00" timeLoss="11.17" rerouteNo="0" devices="tripinfo_flow_route_97_duration_20250327_2020.3" vType="car" speedFactor="1.02" vaporized=""/>
    <tripinfo id="flow_route_118_duration_20250327_2020.0" depart="0.00" departLane="134194079#0_0" departPos="13.63" departSpeed="0.00" departDelay="0.00" arrival="45.00" arrivalLane="1328664744#0_1" arrivalPos="165.30" arrivalSpeed="13.95" duration="45.00" routeLength="472.83" waitingTime="0.00" waitingCount="0" stopTime="0.00" timeLoss="11.19" rerouteNo="0" devices="tripinfo_flow_route_118_duration_20250327_2020.0" vType="car" speedFactor="0.86" vaporized=""/>
    <tripinfo id="flow_route_118_duration_20250327_2020.5" depart="13.00" departLane="134194079#0_0" departPos="200.22" departSpeed="0.00" departDelay="6.48" arrival="47.00" arrivalLane="1328664744#0_1" arrivalPos="126.81" arrivalSpeed="14.66" duration="34.00" routeLength="247.74" waitingTime="0.00" waitingCount="0" stopTime="0.00" timeLoss="16.65" rerouteNo="0" devices="tripinfo_flow_route_118_duration_20250327_2020.5" vType="car" speedFactor="0.89" vaporized=""/>
    <tripinfo id="flow_route_97_duration_20250327_2020.2" depart="15.00" departLane="1328664748#0_0" departPos="94.58" departSpeed="0.00" departDelay="1.67" arrival="47.00" arrivalLane="135474719#0_0" arrivalPos="79.12" arrivalSpeed="13.48" duration="32.00" routeLength="219.26" waitingTime="0.00" waitingCount="0" stopTime="0.00" timeLoss="17.86" rerouteNo="0" devices="tripinfo_flow_route_97_duration_20250327_2020.2" vType="car" speedFactor="1.03" vaporized=""/>
    <tripinfo id="flow_route_99_duration_20250327_2020.2" depart="15.00" departLane="1328664748#0_0" departPos="158.13" departSpeed="0.00" departDelay="0.00" arrival="47.00" arrivalLane="1253188486#8_2" arrivalPos="5.85" arrivalSpeed="7.35" duration="32.00" routeLength="105.59" waitingTime="7.00" waitingCount="1" stopTime="0.00" timeLoss="24.60" rerouteNo="0" devices="tripinfo_flow_route_99_duration_20250327_2020.2" vType="car" speedFactor="1.04" vaporized=""/>
    <tripinfo id="flow_route_97_duration_20250327_2020.4" depart="27.00" departLane="1328664748#0_0" departPos="43.46" departSpeed="0.00" departDelay="0.34" arrival="54.00" arrivalLane="135474719#0_0" arrivalPos="24.32" arrivalSpeed="8.99" duration="27.00" routeLength="215.58" waitingTime="0.00" waitingCount="0" stopTime="0.00" timeLoss="13.16" rerouteNo="0" devices="tripinfo_flow_route_97_duration_20250327_2020.4" vType="car" speedFactor="0.98" vaporized=""/>
    <tripinfo id="flow_route_99_duration_20250327_2020.3" depart="23.00" departLane="1328664748#0_0" departPos="2.60" departSpeed="0.00" departDelay="0.50" arrival="59.00" arrivalLane="1253188486#8_2" arrivalPos="84.85" arrivalSpeed="14.67" duration="36.00" routeLength="340.12" waitingTime="0.00" waitingCount="0" stopTime="0.00" timeLoss="13.00" rerouteNo="0" devices="tripinfo_flow_route_99_duration_20250327_2020.3" vType="car" speedFactor="0.91" vaporized=""/>
    <tripinfo id="flow_route_99_duration_20250327_2020.1" depart="8.00" departLane="1328664748#0_0" departPos="109.59" departSpeed="0.00" departDelay="0.50" arrival="62.00" arrivalLane="1253188486#8_2" arrivalPos="163.92" arrivalSpeed="16.21" duration="54.00" routeLength="312.20" waitingTime="7.00" waitingCount="1" stopTime="0.00" timeLoss="32.14" rerouteNo="0" devices="tripinfo_flow_route_99_duration_20250327_2020.1" vType="car" speedFactor="0.83" vaporized=""/>
    <tripinfo id="flow_route_110_duration_20250327_2020.0" depart="0.00" departLane="1254519225#0.109_0" departPos="3.76" departSpeed="0.00" departDelay="0.00" arrival="66.00" arrivalLane="177211987#1_2" arrivalPos="6.38" arrivalSpeed="7.80" duration="66.00" routeLength="190.24" waitingTime="31.00" waitingCount="1" stopTime="0.00" timeLoss="51.25" rerouteNo="0" devices="tripinfo_flow_route_110_duration_20250327_2020.0" vType="car" speedFactor="0.83" vaporized=""/>
    <tripinfo id="flow_route_109_duration_20250327_2020.1" depart="4.00" departLane="1254519225#0.109_0" departPos="59.68" departSpeed="0.00" departDelay="0.47" arrival="67.00" arrivalLane="1328664744#0_0" arrivalPos="66.95" arrivalSpeed="11.32" duration="63.00" routeLength="181.49" waitingTime="33.00" waitingCount="1" stopTime="0.00" timeLoss="50.28" rerouteNo="0" devices="tripinfo_flow_route_109_duration_20250327_2020.1" vType="car" speedFactor="0.93" vaporized=""/>
    <tripinfo id="flow_route_108_duration_20250327_2020.0" depart="0.00" departLane="1254519225#0.109_0" departPos="35.33" departSpeed="0.00" departDelay="0.00" arrival="71.00" arrivalLane="135474719#0_2" arrivalPos="75.82" arrivalSpeed="13.55" duration="71.00" routeLength="240.24" waitingTime="31.00" waitingCount="1" stopTime="0.00" timeLoss="56.33" rerouteNo="0" devices="tripinfo_flow_route_108_duration_20250327_2020.0" vType="car" speedFactor="1.08" vaporized=""/>
    <tripinfo id="flow_route_108_duration_20250327_2020.1" depart="9.00" departLane="1254519225#0.109_0" departPos="1.74" departSpeed="0.00" departDelay="0.43" arrival="73.00" arrivalLane="135474719#0_2" arrivalPos="25.98" arrivalSpeed="11.34" duration="64.00" routeLength="223.99" waitingTime="21.00" waitingCount="1" stopTime="0.00" timeLoss="50.37" rerouteNo="0" devices="tripinfo_flow_route_108_duration_20250327_2020.1" vType="car" speedFactor="1.13" vaporized=""/>
    <tripinfo id="flow_route_109_duration_20250327_2020.0" depart="0.00" departLane="1254519225#0.109_0" departPos="16.50" departSpeed="0.00" departDelay="0.00" arrival="74.00" arrivalLane="1328664744#0_0" arrivalPos="130.88" arrivalSpeed="15.94" duration="74.00" routeLength="288.61" waitingTime="32.00" waitingCount="1" stopTime="0.00" timeLoss="55.58" rerouteNo="0" devices="tripinfo_flow_route_109_duration_20250327_2020.0" vType="car" speedFactor="1.03" vaporized=""/>
    <tripinfo id="flow_route_110_duration_20250327_2020.2" depart="19.00" departLane="1254519225#0.109_0" departPos="52.75" departSpeed="0.00" departDelay="1.86" arrival="75.00" arrivalLane="177211987#1_2" arrivalPos="41.16" arrivalSpeed="12.25" duration="56.00" routeLength="176.03" waitingTime="18.00" waitingCount="2" stopTime="0.00" timeLoss="44.46" rerouteNo="0" devices="tripinfo_flow_route_110_duration_20250327_2020.2" vType="car" speedFactor="1.00" vaporized=""/>
    <tripinfo id="flow_route_109_duration_20250327_2020.4" depart="15.00" departLane="1254519225#0.109_0" departPos="28.44" departSpeed="0.00" departDelay="0.88" arrival="76.00" arrivalLane="1328664744#0_0" arrivalPos="67.16" arrivalSpeed="13.32" duration="61.00" routeLength="212.96" waitingTime="20.00" waitingCount="2" stopTime="0.00" timeLoss="46.89" rerouteNo="0" devices="tripinfo_flow_route_109_duration_20250327_2020.4" vType="car" speedFactor="1.04" vaporized=""/>
    <tripinfo id="flow_route_110_duration_20250327_2020.3" depart="26.00" departLane="1254519225#0.109_0" departPos="50.02" departSpeed="0.00" departDelay="0.29" arrival="77.00" arrivalLane="177211987#1_2" arrivalPos="30.37" arrivalSpeed="10.82" duration="51.00" routeLength="167.97" waitingTime="14.00" waitingCount="4" stopTime="0.00" timeLoss="40.10" rerouteNo="0" devices="tripinfo_flow_route_110_duration_20250327_2020.3" vType="car" speedFactor="0.98" vaporized=""/>
    <tripinfo id="flow_route_108_duration_20250327_2020.2" depart="18.00" departLane="1254519225#0.109_0" departPos="55.03" departSpeed="0.00" departDelay="0.86" arrival="78.00" arrivalLane="135474719#0_0" arrivalPos="102.11" arrivalSpeed="16.03" duration="60.00" routeLength="246.83" waitingTime="22.00" waitingCount="1" stopTime="0.00" timeLoss="44.84" rerouteNo="0" devices="tripinfo_flow_route_108_duration_20250327_2020.2" vType="car" speedFactor="1.02" vaporized=""/>
    <tripinfo id="flow_route_109_duration_20250327_2020.2" depart="8.00" departLane="1254519225#0.109_0" departPos="36.19" departSpeed="0.00" departDelay="0.94" arrival="79.00" arrivalLane="1328664744#0_0" arrivalPos="158.75" arrivalSpeed="14.36" duration="71.00" routeLength="296.79" waitingTime="30.00" waitingCount="1" stopTime="0.00" timeLoss="48.76" rerouteNo="0" devices="tripinfo_flow_route_109_duration_20250327_2020.2" vType="car" speedFactor="0.87" vaporized=""/>
    <tripinfo id="flow_route_110_duration_20250327_2020.1" depart="9.00" departLane="1254519225#0.109_0" departPos="17.40" departSpeed="0.00" departDelay="0.43" arrival="79.00" arrivalLane="177211987#1_2" arrivalPos="139.77" arrivalSpeed="15.28" duration="70.00" routeLength="309.99" waitingTime="26.00" waitingCount="2" stopTime="0.00" timeLoss="48.65" rerouteNo="0" devices="tripinfo_flow_route_110_duration_20250327_2020.1" vType="car" speedFactor="0.93" vaporized=""/>
    <tripinfo id="flow_route_109_duration_20250327_2020.3" depart="11.00" departLane="1254519225#0.109_0" departPos="2.92" departSpeed="0.00" departDelay="0.41" arrival="80.00" arrivalLane="1328664744#0_0" arrivalPos="75.21" arrivalSpeed="14.04" duration="69.00" routeLength="246.52" waitingTime="16.00" waitingCount="2" stopTime="0.00" timeLoss="53.46" rerouteNo="0" devices="tripinfo_flow_route_109_duration_20250327_2020.3" vType="car" speedFactor="1.02" vaporized=""/>
    <tripinfo id="flow_route_108_duration_20250327_2020.3" depart="26.00" departLane="1254519225#0.109_0" departPos="22.87" departSpeed="0.00" departDelay="0.29" arrival="82.00" arrivalLane="135474719#0_2" arrivalPos="51.35" arrivalSpeed="13.61" duration="56.00" routeLength="228.23" waitingTime="9.00" waitingCount="2" stopTime="0.00" timeLoss="41.12" rerouteNo="0" devices="tripinfo_flow_route_108_duration_20250327_2020.3" vType="car" speedFactor="0.96" vaporized=""/>
    <tripinfo id="flow_route_110_duration_20250327_2020.6" depart="53.00" departLane="1254519225#0.109_0" departPos="61.79" departSpeed="0.00" departDelay="1.57" arrival="83.00" arrivalLane="177211987#1_2" arrivalPos="8.82" arrivalSpeed="9.54" duration="30.00" routeLength="134.65" waitingTime="3.00" waitingCount="1" stopTime="0.00" timeLoss="17.11" rerouteNo="0" devices="tripinfo_flow_route_110_duration_20250327_2020.6" vType="car" speedFactor="0.73" vaporized=""/>
    <tripinfo id="flow_route_109_duration_20250327_2020.5" depart="18.00" departLane="1254519225#0.109_0" departPos="23.18" departSpeed="0.00" departDelay="0.36" arrival="88.00" arrivalLane="1328664744#0_0" arrivalPos="173.27" arrivalSpeed="16.40" duration="70.00" routeLength="324.31" waitingTime="16.00" waitingCount="4" stopTime="0.00" timeLoss="49.80" rerouteNo="0" devices="tripinfo_flow_route_109_duration_20250327_2020.5" vType="car" speedFactor="1.10" vaporized=""/>
    <tripinfo id="flow_route_109_duration_20250327_2020.7" depart="25.00" departLane="1254519225#0.109_0" departPos="52.64" departSpeed="0.00" departDelay="0.30" arrival="88.00" arrivalLane="1328664744#0_0" arrivalPos="221.13" arrivalSpeed="15.96" duration="63.00" routeLength="342.72" waitingTime="17.00" waitingCount="2" stopTime="0.00" timeLoss="40.75" rerouteNo="0" devices="tripinfo_flow_route_109_duration_20250327_2020.7" vType="car" speedFactor="0.97" vaporized=""/>
    <tripinfo id="flow_route_110_duration_20250327_2020.4" depart="35.00" departLane="1254519225#0.109_0" departPos="3.06" departSpeed="0.00" departDelay="0.72" arrival="90.00" arrivalLane="177211987#1_2" arrivalPos="121.23" arrivalSpeed="16.08" duration="55.00" routeLength="305.79" waitingTime="5.00" waitingCount="1" stopTime="0.00" timeLoss="35.18" rerouteNo="0" devices="tripinfo_flow_route_110_duration_20250327_2020.4" vType="car" speedFactor="1.10" vaporized=""/>
    <tripinfo id="flow_route_109_duration_20250327_2020.12" depart="44.00" departLane="1254519225#0.109_0" departPos="56.62" departSpeed="0.00" departDelay="1.65" arrival="91.00" arrivalLane="1328664744#0_0" arrivalPos="144.20" arrivalSpeed="15.52" duration="47.00" routeLength="261.80" waitingTime="5.00" waitingCount="2" stopTime="0.00" timeLoss="28.52" rerouteNo="0" devices="tripinfo_flow_route_109_duration_20250327_2020.12" vType="car" speedFactor="0.94" vaporized=""/>
    <tripinfo id="flow_route_114_duration_20250327_2020.0" depart="0.00" departLane="1253188486#4_0" departPos="49.31" departSpeed="0.00" departDelay="0.00" arrival="95.00" arrivalLane="177211987#1_0" arrivalPos="36.23" arrivalSpeed="9.52" duration="95.00" routeLength="153.37" waitingTime="64.00" waitingCount="1" stopTime="0.00" timeLoss="83.61" rerouteNo="0" devices="tripinfo_flow_route_114_duration_20250327_2020.0" vType="car" speedFactor="0.89" vaporized=""/>
    <tripinfo id="flow_route_115_duration_20250327_2020.0" depart="0.00" departLane="1253188486#4_0" departPos="104.70" departSpeed="0.00" departDelay="0.00" arrival="100.00" arrivalLane="1328664744#0_2" arrivalPos="120.97" arrivalSpeed="14.52" duration="100.00" routeLength="201.67" waitingTime="68.00" waitingCount="1" stopTime="0.00" timeLoss="86.16" rerouteNo="0" devices="tripinfo_flow_route_115_duration_20250327_2020.0" vType="car" speedFactor="0.94" vaporized=""/>
    <tripinfo id="flow_route_113_duration_20250327_2020.3" depart="5.00" departLane="1253188486#4_0" departPos="19.20" departSpeed="0.00" departDelay="0.00" arrival="100.00" arrivalLane="1253188486#8_1" arrivalPos="81.28" arrivalSpeed="14.77" duration="95.00" routeLength="260.71" waitingTime="55.00" waitingCount="1" stopTime="0.00" timeLoss="79.04" rerouteNo="0" devices="tripinfo_flow_route_113_duration_20250327_2020.3" vType="car" speedFactor="0.94" vaporized=""/>
    <tripinfo id="flow_route_113_duration_20250327_2020.4" depart="8.00" departLane="1253188486#4_0" departPos="47.14" departSpeed="0.00" departDelay="1.34" arrival="100.00" arrivalLane="1253188486#8_1" arrivalPos="41.21" arrivalSpeed="12.09" duration="92.00" routeLength="192.69" waitingTime="55.00" waitingCount="1" stopTime="0.00" timeLoss="79.91" rerouteNo="0" devices="tripinfo_flow_route_113_duration_20250327_2020.4" vType="car" speedFactor="0.97" vaporized=""/>
    <tripinfo id="flow_route_113_duration_20250327_2020.5" depart="13.00" departLane="1253188486#4_0" departPos="94.21" departSpeed="0.00" departDelay="4.67" arrival="100.00" arrivalLane="1253188486#8_0" arrivalPos="44.98" arrivalSpeed="12.29" duration="87.00" routeLength="149.40" waitingTime="57.00" waitingCount="1" stopTime="0.00" timeLoss="77.71" rerouteNo="0" devices="tripinfo_flow_route_113_duration_20250327_2020.5" vType="car" speedFactor="1.18" vaporized=""/>
    <tripinfo id="flow_route_113_duration_20250327_2020.1" depart="2.00" departLane="1253188486#4_0" departPos="126.25" departSpeed="0.00" departDelay="0.33" arrival="102.00" arrivalLane="1253188486#8_1" arrivalPos="155.42" arrivalSpeed="16.54" duration="100.00" routeLength="227.80" waitingTime="70.00" waitingCount="1" stopTime="0.00" timeLoss="85.96" rerouteNo="0" devices="tripinfo_flow_route_113_duration_20250327_2020.1" vType="car" speedFactor="1.03" vaporized=""/>
    <tripinfo id="flow_route_113_duration_20250327_2020.7" depart="20.00" departLane="1253188486#4_0" departPos="42.47" departSpeed="0.00" departDelay="8.34" arrival="102.00" arrivalLane="1253188486#8_0" arrivalPos="19.63" arrivalSpeed="11.97" duration="82.00" routeLength="175.79" waitingTime="48.00" waitingCount="1" stopTime="0.00" timeLoss="71.09" rerouteNo="0" devices="tripinfo_flow_route_113_duration_20250327_2020.7" vType="car" speedFactor="1.18" vaporized=""/>
    <tripinfo id="flow_route_113_duration_20250327_2020.9" depart="24.00" departLane="1253188486#4_0" departPos="17.51" departSpeed="0.00" departDelay="9.01" arrival="102.00" arrivalLane="1253188486#8_1" arrivalPos="25.69" arrivalSpeed="11.47" duration="78.00" routeLength="206.81" waitingTime="39.00" waitingCount="1" stopTime="0.00" timeLoss="65.25" rerouteNo="0" devices="tripinfo_flow_route_113_duration_20250327_2020.9" vType="car" speedFactor="1.09" vaporized=""/>
    <tripinfo id="flow_route_113_duration_20250327_2020.11" depart="31.00" departLane="1253188486#4_0" departPos="18.29" departSpeed="0.00" departDelay="12.67" arrival="102.00" arrivalLane="1253188486#8_1" arrivalPos="10.45" arrivalSpeed="10.64" duration="71.00" routeLength="190.79" waitingTime="36.00" waitingCount="1" stopTime="0.00" timeLoss="59.51" rerouteNo="0" devices="tripinfo_flow_route_113_duration_20250327_2020.11" vType="car" speedFactor="0.90" vaporized=""/>
    <tripinfo id="flow_route_113_duration_20250327_2020.10" depart="24.00" departLane="1253188486#4_0" departPos="125.49" departSpeed="0.00" departDelay="7.34" arrival="104.00" arrivalLane="1253188486#8_0" arrivalPos="72.70" arrivalSpeed="14.84" duration="80.00" routeLength="145.84" waitingTime="55.00" waitingCount="1" stopTime="0.00" timeLoss="70.66" rerouteNo="0" devices="tripinfo_flow_route_113_duration_20250327_2020.10" vType="car" speedFactor="0.85" vaporized=""/>
    <tripinfo id="flow_route_113_duration_20250327_2020.0" depart="0.00" departLane="1253188486#4_0" departPos="134.10" departSpeed="0.00" departDelay="0.00" arrival="105.00" arrivalLane="1253188486#8_0" arrivalPos="182.35" arrivalSpeed="16.22" duration="105.00" routeLength="246.88" waitingTime="72.00" waitingCount="1" stopTime="0.00" timeLoss="89.42" rerouteNo="0" devices="tripinfo_flow_route_113_duration_20250327_2020.0" vType="car" speedFactor="1.05" vaporized=""/>
    <tripinfo id="flow_route_115_duration_20250327_2020.3" depart="37.00" departLane="1253188486#4_0" departPos="89.38" departSpeed="0.00" departDelay="11.29" arrival="106.00" arrivalLane="1328664744#0_2" arrivalPos="34.02" arrivalSpeed="11.16" duration="69.00" routeLength="130.04" waitingTime="38.00" waitingCount="1" stopTime="0.00" timeLoss="60.16" rerouteNo="0" devices="tripinfo_flow_route_115_duration_20250327_2020.3" vType="car" speedFactor="1.03" vaporized=""/>
    <tripinfo id="flow_route_113_duration_20250327_2020.2" depart="4.00" departLane="1253188486#4_0" departPos="4.57" departSpeed="0.00" departDelay="0.67" arrival="108.00" arrivalLane="1253188486#8_2" arrivalPos="187.56" arrivalSpeed="16.19" duration="104.00" routeLength="381.63" waitingTime="53.00" waitingCount="1" stopTime="0.00" timeLoss="80.36" rerouteNo="0" devices="tripinfo_flow_route_113_duration_20250327_2020.2" vType="car" speedFactor="0.88" vaporized=""/>
    <tripinfo id="flow_route_115_duration_20250327_2020.1" depart="17.00" departLane="1253188486#4_0" departPos="15.55" departSpeed="0.00" departDelay="8.43" arrival="109.00" arrivalLane="1328664744#0_2" arrivalPos="142.35" arrivalSpeed="16.51" duration="92.00" routeLength="312.20" waitingTime="47.00" waitingCount="1" stopTime="0.00" timeLoss="71.99" rerouteNo="0" devices="tripinfo_flow_route_115_duration_20250327_2020.1" vType="car" speedFactor="1.15" vaporized=""/>
    <tripinfo id="flow_route_113_duration_20250327_2020.22" depart="58.00" departLane="1253188486#4_0" departPos="65.15" departSpeed="0.00" departDelay="21.35" arrival="110.00" arrivalLane="1253188486#8_0" arrivalPos="9.70" arrivalSpeed="12.53" duration="52.00" routeLength="143.18" waitingTime="23.00" waitingCount="1" stopTime="0.00" timeLoss="43.31" rerouteNo="0" devices="tripinfo_flow_route_113_duration_20250327_2020.22" vType="car" speedFactor="1.07" vaporized=""/>
    <tripinfo id="flow_route_115_duration_20250327_2020.2" depart="27.00" departLane="1253188486#4_0" departPos="34.61" departSpeed="0.00" departDelay="9.86" arrival="111.00" arrivalLane="1328664744#0_2" arrivalPos="158.01" arrivalSpeed="16.17" duration="84.00" routeLength="308.79" waitingTime="40.00" waitingCount="1" stopTime="0.00" timeLoss="64.33" rerouteNo="0" devices="tripinfo_flow_route_115_duration_20250327_2020.2" vType="car" speedFactor="1.00" vaporized=""/>
    <tripinfo id="flow_route_113_duration_20250327_2020.17" depart="41.00" departLane="1253188486#4_0" departPos="113.37" departSpeed="0.00" departDelay="12.68" arrival="111.00" arrivalLane="1253188486#8_0" arrivalPos="114.29" arrivalSpeed="16.34" duration="70.00" routeLength="199.54" waitingTime="41.00" waitingCount="1" stopTime="0.00" timeLoss="57.30" rerouteNo="0" devices="tripinfo_flow_route_113_duration_20250327_2020.17" vType="car" speedFactor="0.97" vaporized=""/>
    <tripinfo id="flow_route_113_duration_20250327_2020.6" depart="20.00" departLane="1253188486#4_0" departPos="90.23" departSpeed="0.00" departDelay="10.00" arrival="112.00" arrivalLane="1253188486#8_2" arrivalPos="227.70" arrivalSpeed="16.58" duration="92.00" routeLength="336.11" waitingTime="49.00" waitingCount="1" stopTime="0.00" timeLoss="71.54" rerouteNo="0" devices="tripinfo_flow_route_113_duration_20250327_2020.6" vType="car" speedFactor="1.01" vaporized=""/>
    <tripinfo id="flow_route_113_duration_20250327_2020.8" depart="20.00" departLane="1253188486#4_0" departPos="58.12" departSpeed="0.00" departDelay="6.67" arrival="112.00" arrivalLane="1253188486#8_1" arrivalPos="202.54" arrivalSpeed="16.52" duration="92.00" routeLength="343.05" waitingTime="46.00" waitingCount="1" stopTime="0.00" timeLoss="71.19" rerouteNo="0" devices="tripinfo_flow_route_113_duration_20250327_2020.8" vType="car" speedFactor="0.96" vaporized=""/>
    <tripinfo id="flow_route_113_duration_20250327_2020.20" depart="52.00" departLane="1253188486#4_0" departPos="54.97" departSpeed="0.00" departDelay="18.68" arrival="112.00" arrivalLane="1253188486#8_2" arrivalPos="54.45" arrivalSpeed="13.21" duration="60.00" routeLength="198.11" waitingTime="23.00" waitingCount="1" stopTime="0.00" timeLoss="47.85" rerouteNo="0" devices="tripinfo_flow_route_113_duration_20250327_2020.20" vType="car" speedFactor="1.06" vaporized=""/>
    <tripinfo id="flow_route_113_duration_20250327_2020.21" depart="58.00" departLane="1253188486#4_0" departPos="83.36" departSpeed="0.00" departDelay="23.01" arrival="113.00" arrivalLane="1253188486#8_1" arrivalPos="76.03" arrivalSpeed="15.85" duration="55.00" routeLength="191.29" waitingTime="27.00" waitingCount="1" stopTime="0.00" timeLoss="42.67" rerouteNo="0" devices="tripinfo_flow_route_113_duration_20250327_2020.21" vType="car" speedFactor="1.06" vaporized=""/>
    <tripinfo id="flow_route_113_duration_20250327_2020.25" depart="62.00" departLane="1253188486#4_0" departPos="29.15" departSpeed="0.00" departDelay="20.35" arrival="113.00" arrivalLane="1253188486#8_1" arrivalPos="6.53" arrivalSpeed="13.90" duration="51.00" routeLength="176.01" waitingTime="17.00" waitingCount="1" stopTime="0.00" timeLoss="39.84" rerouteNo="0" devices="tripinfo_flow_route_113_duration_20250327_2020.25" vType="car" speedFactor="1.00" vaporized=""/>
    <tripinfo id="flow_route_113_duration_20250327_2020.27" depart="67.00" departLane="1253188486#4_0" departPos="29.77" departSpeed="0.00" departDelay="22.02" arrival="113.00" arrivalLane="1253188486#8_0" arrivalPos="4.03" arrivalSpeed="13.49" duration="46.00" routeLength="172.89" waitingTime="16.00" waitingCount="1" stopTime="0.00" timeLoss="35.54" rerouteNo="0" devices="tripinfo_flow_route_113_duration_20250327_2020.27" vType="car" speedFactor="0.82" vaporized=""/>
    <tripinfo id="flow_route_113_duration_20250327_2020.13" depart="32.00" departLane="1253188486#4_0" departPos="60.41" departSpeed="0.00" departDelay="10.34" arrival="114.00" arrivalLane="1253188486#8_0" arrivalPos="134.75" arrivalSpeed="16.27" duration="82.00" routeLength="272.97" waitingTime="39.00" waitingCount="1" stopTime="0.00" timeLoss="64.77" rerouteNo="0" devices="tripinfo_flow_route_113_duration_20250327_2020.13" vType="car" speedFactor="0.94" vaporized=""/>