<?xml version="1.0" encoding="UTF-8"?>

<!-- generated on 2025-05-06 21:07:41 by Eclipse SUMO sumo Version 1.20.0
<configuration xmlns:xsi="http://www.w3.org/2001/XMLSchema-instance" xsi:noNamespaceSchemaLocation="http://sumo.dlr.de/xsd/sumoConfiguration.xsd">

    <input>
        <net-file value="osm.net.xml"/>
        <route-files value="xml/route_rl_cluster_4110471701_632031939_0.rou.xml"/>
    </input>

    <output>
        <tripinfo-output value="xml/tripinfo_rl_cluster_4110471701_632031939_0.xml"/>
    </output>

    <traci_server>
        <remote-port value="50981"/>
    </traci_server>

</configuration>
-->

<tripinfos xmlns:xsi="http://www.w3.org/2001/XMLSchema-instance" xsi:noNamespaceSchemaLocation="http://sumo.dlr.de/xsd/tripinfo_file.xsd">
    <tripinfo id="flow_route_83_duration_20250327_2140.0" depart="0.00" departLane="423956929_0" departPos="101.16" departSpeed="0.00" departDelay="0.00" arrival="17.00" arrivalLane="186407685_0" arrivalPos="8.05" arrivalSpeed="6.86" duration="17.00" routeLength="101.45" waitingTime="0.00" waitingCount="0" stopTime="0.00" timeLoss="10.18" rerouteNo="0" devices="tripinfo_flow_route_83_duration_20250327_2140.0" vType="car" speedFactor="1.01" vaporized=""/>
    <tripinfo id="flow_route_62_duration_20250327_2140.0" depart="0.00" departLane="409155823_0" departPos="65.43" departSpeed="0.00" departDelay="0.00" arrival="23.00" arrivalLane="1091883842_0" arrivalPos="165.47" arrivalSpeed="16.29" duration="23.00" routeLength="205.45" waitingTime="0.00" waitingCount="0" stopTime="0.00" timeLoss="10.50" rerouteNo="0" devices="tripinfo_flow_route_62_duration_20250327_2140.0" vType="car" speedFactor="1.06" vaporized=""/>
    <tripinfo id="flow_route_82_duration_20250327_2140.0" depart="0.00" departLane="423956929_0" departPos="45.92" departSpeed="0.00" departDelay="0.00" arrival="24.00" arrivalLane="186407684#0_0" arrivalPos="62.79" arrivalSpeed="15.18" duration="24.00" routeLength="219.95" waitingTime="0.00" waitingCount="0" stopTime="0.00" timeLoss="8.99" rerouteNo="0" devices="tripinfo_flow_route_82_duration_20250327_2140.0" vType="car" speedFactor="0.94" vaporized=""/>
    <tripinfo id="flow_route_87_duration_20250327_2140.1" depart="12.00" departLane="430416184_0" departPos="253.21" departSpeed="0.00" departDelay="0.00" arrival="25.00" arrivalLane="1091883842_0" arrivalPos="11.19" arrivalSpeed="7.47" duration="13.00" routeLength="58.43" waitingTime="0.00" waitingCount="0" stopTime="0.00" timeLoss="8.12" rerouteNo="0" devices="tripinfo_flow_route_87_duration_20250327_2140.1" vType="car" speedFactor="0.94" vaporized=""/>
    <tripinfo id="flow_route_88_duration_20250327_2140.0" depart="0.00" departLane="430416184_0" departPos="194.63" departSpeed="0.00" departDelay="0.00" arrival="48.00" arrivalLane="186407684#0_1" arrivalPos="3.84" arrivalSpeed="7.53" duration="48.00" routeLength="126.85" waitingTime="19.00" waitingCount="1" stopTime="0.00" timeLoss="38.48" rerouteNo="0" devices="tripinfo_flow_route_88_duration_20250327_2140.0" vType="car" speedFactor="0.83" vaporized=""/>
    <tripinfo id="flow_route_87_duration_20250327_2140.0" depart="0.00" departLane="430416184_0" departPos="1.75" departSpeed="0.00" departDelay="0.00" arrival="51.00" arrivalLane="1091883842_0" arrivalPos="109.56" arrivalSpeed="14.57" duration="51.00" routeLength="408.27" waitingTime="0.00" waitingCount="0" stopTime="0.00" timeLoss="24.76" rerouteNo="0" devices="tripinfo_flow_route_87_duration_20250327_2140.0" vType="car" speedFactor="1.03" vaporized=""/>
    <tripinfo id="flow_route_87_duration_20250327_2140.2" depart="24.00" departLane="430416184_0" departPos="238.38" departSpeed="0.00" departDelay="0.00" arrival="52.00" arrivalLane="1091883842_0" arrivalPos="174.39" arrivalSpeed="16.36" duration="28.00" routeLength="236.46" waitingTime="0.00" waitingCount="0" stopTime="0.00" timeLoss="12.10" rerouteNo="0" devices="tripinfo_flow_route_87_duration_20250327_2140.2" vType="car" speedFactor="1.05" vaporized=""/>
    <tripinfo id="flow_route_86_duration_20250327_2140.0" depart="0.00" departLane="430416184_0" departPos="215.48" departSpeed="0.00" departDelay="0.00" arrival="54.00" arrivalLane="186407685_1" arrivalPos="87.02" arrivalSpeed="13.58" duration="54.00" routeLength="195.42" waitingTime="21.00" waitingCount="1" stopTime="0.00" timeLoss="42.05" rerouteNo="0" devices="tripinfo_flow_route_86_duration_20250327_2140.0" vType="car" speedFactor="1.08" vaporized=""/>
    <tripinfo id="flow_route_88_duration_20250327_2140.1" depart="5.00" departLane="430416184_0" departPos="130.75" departSpeed="0.00" departDelay="0.00" arrival="54.00" arrivalLane="186407684#0_1" arrivalPos="41.08" arrivalSpeed="11.58" duration="49.00" routeLength="227.97" waitingTime="11.00" waitingCount="1" stopTime="0.00" timeLoss="33.96" rerouteNo="0" devices="tripinfo_flow_route_88_duration_20250327_2140.1" vType="car" speedFactor="1.05" vaporized=""/>
    <tripinfo id="flow_route_88_duration_20250327_2140.8" depart="40.00" departLane="430416184_0" departPos="278.94" departSpeed="0.00" departDelay="0.00" arrival="59.00" arrivalLane="186407684#0_1" arrivalPos="36.25" arrivalSpeed="10.06" duration="19.00" routeLength="74.95" waitingTime="3.00" waitingCount="2" stopTime="0.00" timeLoss="13.65" rerouteNo="0" devices="tripinfo_flow_route_88_duration_20250327_2140.8" vType="car" speedFactor="1.02" vaporized=""/>
    <tripinfo id="flow_route_88_duration_20250327_2140.4" depart="20.00" departLane="430416184_0" departPos="183.20" departSpeed="0.00" departDelay="0.00" arrival="60.00" arrivalLane="186407684#0_1" arrivalPos="27.06" arrivalSpeed="10.01" duration="40.00" routeLength="161.50" waitingTime="4.00" waitingCount="2" stopTime="0.00" timeLoss="29.50" rerouteNo="0" devices="tripinfo_flow_route_88_duration_20250327_2140.4" vType="car" speedFactor="1.03" vaporized=""/>
    <tripinfo id="flow_route_88_duration_20250327_2140.3" depart="15.00" departLane="430416184_0" departPos="148.34" departSpeed="0.00" departDelay="0.00" arrival="65.00" arrivalLane="186407684#0_1" arrivalPos="60.25" arrivalSpeed="12.30" duration="50.00" routeLength="229.53" waitingTime="1.00" waitingCount="1" stopTime="0.00" timeLoss="35.28" rerouteNo="0" devices="tripinfo_flow_route_88_duration_20250327_2140.3" vType="car" speedFactor="1.09" vaporized=""/>
    <tripinfo id="flow_route_88_duration_20250327_2140.2" depart="10.00" departLane="430416184_0" departPos="76.50" departSpeed="0.00" departDelay="0.00" arrival="66.00" arrivalLane="186407684#0_1" arrivalPos="49.91" arrivalSpeed="12.23" duration="56.00" routeLength="291.04" waitingTime="0.00" waitingCount="0" stopTime="0.00" timeLoss="36.46" rerouteNo="0" devices="tripinfo_flow_route_88_duration_20250327_2140.2" vType="car" speedFactor="0.89" vaporized=""/>
    <tripinfo id="flow_route_87_duration_20250327_2140.4" depart="48.00" departLane="430416184_0" departPos="234.74" departSpeed="0.00" departDelay="0.00" arrival="68.00" arrivalLane="1091883842_0" arrivalPos="44.83" arrivalSpeed="10.00" duration="20.00" routeLength="110.54" waitingTime="0.00" waitingCount="0" stopTime="0.00" timeLoss="11.61" rerouteNo="0" devices="tripinfo_flow_route_87_duration_20250327_2140.4" vType="car" speedFactor="0.89" vaporized=""/>
    <tripinfo id="flow_route_88_duration_20250327_2140.5" depart="25.00" departLane="430416184_0" departPos="114.69" departSpeed="0.00" departDelay="0.00" arrival="70.00" arrivalLane="186407684#0_1" arrivalPos="78.23" arrivalSpeed="14.29" duration="45.00" routeLength="281.17" waitingTime="0.00" waitingCount="0" stopTime="0.00" timeLoss="27.03" rerouteNo="0" devices="tripinfo_flow_route_88_duration_20250327_2140.5" vType="car" speedFactor="1.12" vaporized=""/>
    <tripinfo id="flow_route_87_duration_20250327_2140.3" depart="36.00" departLane="430416184_0" departPos="36.26" departSpeed="0.00" departDelay="0.00" arrival="70.00" arrivalLane="1091883842_0" arrivalPos="24.03" arrivalSpeed="9.07" duration="34.00" routeLength="288.22" waitingTime="0.00" waitingCount="0" stopTime="0.00" timeLoss="15.61" rerouteNo="0" devices="tripinfo_flow_route_87_duration_20250327_2140.3" vType="car" speedFactor="1.16" vaporized=""/>
    <tripinfo id="flow_route_88_duration_20250327_2140.10" depart="50.00" departLane="430416184_0" departPos="193.22" departSpeed="0.00" departDelay="0.00" arrival="70.00" arrivalLane="186407684#0_1" arrivalPos="7.85" arrivalSpeed="9.58" duration="20.00" routeLength="132.26" waitingTime="0.00" waitingCount="0" stopTime="0.00" timeLoss="9.59" rerouteNo="0" devices="tripinfo_flow_route_88_duration_20250327_2140.10" vType="car" speedFactor="0.83" vaporized=""/>
    <tripinfo id="flow_route_88_duration_20250327_2140.7" depart="35.00" departLane="430416184_0" departPos="95.81" departSpeed="0.00" departDelay="0.00" arrival="71.00" arrivalLane="186407684#0_1" arrivalPos="60.38" arrivalSpeed="14.01" duration="36.00" routeLength="282.19" waitingTime="0.00" waitingCount="0" stopTime="0.00" timeLoss="16.73" rerouteNo="0" devices="tripinfo_flow_route_88_duration_20250327_2140.7" vType="car" speedFactor="0.94" vaporized=""/>
    <tripinfo id="flow_route_88_duration_20250327_2140.9" depart="45.00" departLane="430416184_0" departPos="165.30" departSpeed="0.00" departDelay="0.00" arrival="74.00" arrivalLane="186407684#0_1" arrivalPos="19.66" arrivalSpeed="11.65" duration="29.00" routeLength="171.99" waitingTime="0.00" waitingCount="0" stopTime="0.00" timeLoss="17.59" rerouteNo="0" devices="tripinfo_flow_route_88_duration_20250327_2140.9" vType="car" speedFactor="0.97" vaporized=""/>
    <tripinfo id="flow_route_88_duration_20250327_2140.6" depart="30.00" departLane="430416184_0" departPos="8.62" departSpeed="0.00" departDelay="0.00" arrival="77.00" arrivalLane="186407684#0_1" arrivalPos="26.59" arrivalSpeed="11.97" duration="47.00" routeLength="335.60" waitingTime="0.00" waitingCount="0" stopTime="0.00" timeLoss="24.91" rerouteNo="0" devices="tripinfo_flow_route_88_duration_20250327_2140.6" vType="car" speedFactor="0.94" vaporized=""/>
    <tripinfo id="flow_route_83_duration_20250327_2140.2" depart="30.00" departLane="423956929_0" departPos="177.48" departSpeed="0.00" departDelay="0.00" arrival="81.00" arrivalLane="186407685_0" arrivalPos="5.74" arrivalSpeed="4.93" duration="51.00" routeLength="22.82" waitingTime="40.00" waitingCount="1" stopTime="0.00" timeLoss="48.67" rerouteNo="0" devices="tripinfo_flow_route_83_duration_20250327_2140.2" vType="car" speedFactor="0.88" vaporized=""/>
    <tripinfo id="flow_route_82_duration_20250327_2140.1" depart="30.00" departLane="423956929_0" departPos="29.52" departSpeed="0.00" departDelay="0.00" arrival="85.00" arrivalLane="186407684#0_0" arrivalPos="20.86" arrivalSpeed="7.38" duration="55.00" routeLength="194.42" waitingTime="21.00" waitingCount="1" stopTime="0.00" timeLoss="42.02" rerouteNo="0" devices="tripinfo_flow_route_82_duration_20250327_2140.1" vType="car" speedFactor="0.93" vaporized=""/>
    <tripinfo id="flow_route_83_duration_20250327_2140.1" depart="15.00" departLane="423956929_0" departPos="8.57" departSpeed="0.00" departDelay="0.00" arrival="90.00" arrivalLane="186407685_0" arrivalPos="57.01" arrivalSpeed="10.83" duration="75.00" routeLength="243.00" waitingTime="36.00" waitingCount="1" stopTime="0.00" timeLoss="56.92" rerouteNo="0" devices="tripinfo_flow_route_83_duration_20250327_2140.1" vType="car" speedFactor="0.86" vaporized=""/>
    <tripinfo id="flow_route_62_duration_20250327_2140.1" depart="30.00" departLane="409155823_0" departPos="67.30" departSpeed="0.00" departDelay="0.00" arrival="91.00" arrivalLane="1091883842_0" arrivalPos="101.08" arrivalSpeed="13.47" duration="61.00" routeLength="139.20" waitingTime="36.00" waitingCount="1" stopTime="0.00" timeLoss="52.30" rerouteNo="0" devices="tripinfo_flow_route_62_duration_20250327_2140.1" vType="car" speedFactor="0.99" vaporized=""/>
    <tripinfo id="flow_route_83_duration_20250327_2140.3" depart="45.00" departLane="423956929_0" departPos="31.16" departSpeed="0.00" departDelay="0.00" arrival="91.00" arrivalLane="186407685_0" arrivalPos="46.76" arrivalSpeed="10.25" duration="46.00" routeLength="210.16" waitingTime="11.00" waitingCount="1" stopTime="0.00" timeLoss="32.64" rerouteNo="0" devices="tripinfo_flow_route_83_duration_20250327_2140.3" vType="car" speedFactor="1.01" vaporized=""/>
    <tripinfo id="flow_route_88_duration_20250327_2140.11" depart="59.00" departLane="430416184_0" departPos="89.01" departSpeed="0.00" departDelay="4.00" arrival="127.00" arrivalLane="186407684#0_1" arrivalPos="63.06" arrivalSpeed="11.59" duration="68.00" routeLength="291.68" waitingTime="27.00" waitingCount="1" stopTime="0.00" timeLoss="47.92" rerouteNo="0" devices="tripinfo_flow_route_88_duration_20250327_2140.11" vType="car" speedFactor="0.87" vaporized=""/>
</tripinfos>
