<?xml version="1.0" encoding="UTF-8"?>

<!-- generated on 2025-05-06 21:08:43 by Eclipse SUMO sumo Version 1.20.0
<configuration xmlns:xsi="http://www.w3.org/2001/XMLSchema-instance" xsi:noNamespaceSchemaLocation="http://sumo.dlr.de/xsd/sumoConfiguration.xsd">

    <input>
        <net-file value="osm.net.xml"/>
        <route-files value="xml/route_rl_cluster_4110471701_632031939_6.rou.xml"/>
    </input>

    <output>
        <tripinfo-output value="xml/tripinfo_rl_cluster_4110471701_632031939_6.xml"/>
    </output>

    <traci_server>
        <remote-port value="59563"/>
    </traci_server>

</configuration>
-->

<tripinfos xmlns:xsi="http://www.w3.org/2001/XMLSchema-instance" xsi:noNamespaceSchemaLocation="http://sumo.dlr.de/xsd/tripinfo_file.xsd">
    <tripinfo id="flow_route_83_duration_20250327_1940.0" depart="0.00" departLane="423956929_0" departPos="101.16" departSpeed="0.00" departDelay="0.00" arrival="17.00" arrivalLane="186407685_0" arrivalPos="8.05" arrivalSpeed="6.86" duration="17.00" routeLength="101.45" waitingTime="0.00" waitingCount="0" stopTime="0.00" timeLoss="10.18" rerouteNo="0" devices="tripinfo_flow_route_83_duration_20250327_1940.0" vType="car" speedFactor="1.01" vaporized=""/>
    <tripinfo id="flow_route_62_duration_20250327_1940.0" depart="0.00" departLane="409155823_0" departPos="65.43" departSpeed="0.00" departDelay="0.00" arrival="23.00" arrivalLane="1091883842_0" arrivalPos="165.47" arrivalSpeed="16.57" duration="23.00" routeLength="205.45" waitingTime="0.00" waitingCount="0" stopTime="0.00" timeLoss="10.50" rerouteNo="0" devices="tripinfo_flow_route_62_duration_20250327_1940.0" vType="car" speedFactor="1.06" vaporized=""/>
    <tripinfo id="flow_route_82_duration_20250327_1940.0" depart="0.00" departLane="423956929_0" departPos="45.92" departSpeed="0.00" departDelay="0.00" arrival="24.00" arrivalLane="186407684#0_0" arrivalPos="62.79" arrivalSpeed="15.18" duration="24.00" routeLength="219.95" waitingTime="0.00" waitingCount="0" stopTime="0.00" timeLoss="8.99" rerouteNo="0" devices="tripinfo_flow_route_82_duration_20250327_1940.0" vType="car" speedFactor="0.94" vaporized=""/>
    <tripinfo id="flow_route_62_duration_20250327_1940.1" depart="7.00" departLane="409155823_0" departPos="55.77" departSpeed="0.00" departDelay="0.33" arrival="27.00" arrivalLane="1091883842_0" arrivalPos="95.26" arrivalSpeed="14.09" duration="20.00" routeLength="144.91" waitingTime="0.00" waitingCount="0" stopTime="0.00" timeLoss="11.17" rerouteNo="0" devices="tripinfo_flow_route_62_duration_20250327_1940.1" vType="car" speedFactor="1.03" vaporized=""/>
    <tripinfo id="flow_route_62_duration_20250327_1940.2" depart="14.00" departLane="409155823_0" departPos="36.21" departSpeed="0.00" departDelay="0.67" arrival="33.00" arrivalLane="1091883842_1" arrivalPos="61.53" arrivalSpeed="13.03" duration="19.00" routeLength="130.73" waitingTime="0.00" waitingCount="0" stopTime="0.00" timeLoss="10.59" rerouteNo="0" devices="tripinfo_flow_route_62_duration_20250327_1940.2" vType="car" speedFactor="0.94" vaporized=""/>
    <tripinfo id="flow_route_83_duration_20250327_1940.1" depart="15.00" departLane="423956929_0" departPos="106.05" departSpeed="0.00" departDelay="0.00" arrival="36.00" arrivalLane="186407685_0" arrivalPos="46.76" arrivalSpeed="10.49" duration="21.00" routeLength="135.27" waitingTime="0.00" waitingCount="0" stopTime="0.00" timeLoss="12.09" rerouteNo="0" devices="tripinfo_flow_route_83_duration_20250327_1940.1" vType="car" speedFactor="1.16" vaporized=""/>
    <tripinfo id="flow_route_62_duration_20250327_1940.3" depart="20.00" departLane="409155823_0" departPos="84.06" departSpeed="0.00" departDelay="0.00" arrival="44.00" arrivalLane="1091883842_0" arrivalPos="178.27" arrivalSpeed="13.46" duration="24.00" routeLength="199.62" waitingTime="0.00" waitingCount="0" stopTime="0.00" timeLoss="8.73" rerouteNo="0" devices="tripinfo_flow_route_62_duration_20250327_1940.3" vType="car" speedFactor="0.83" vaporized=""/>
    <tripinfo id="flow_route_87_duration_20250327_1940.1" depart="3.00" departLane="430416184_0" departPos="163.76" departSpeed="0.00" departDelay="0.00" arrival="47.00" arrivalLane="1091883842_0" arrivalPos="86.57" arrivalSpeed="13.33" duration="44.00" routeLength="223.26" waitingTime="6.00" waitingCount="1" stopTime="0.00" timeLoss="29.04" rerouteNo="0" devices="tripinfo_flow_route_87_duration_20250327_1940.1" vType="car" speedFactor="1.05" vaporized=""/>
    <tripinfo id="flow_route_83_duration_20250327_1940.2" depart="30.00" departLane="423956929_0" departPos="181.23" departSpeed="0.00" departDelay="0.00" arrival="47.00" arrivalLane="186407685_0" arrivalPos="90.81" arrivalSpeed="13.09" duration="17.00" routeLength="104.14" waitingTime="0.00" waitingCount="0" stopTime="0.00" timeLoss="9.46" rerouteNo="0" devices="tripinfo_flow_route_83_duration_20250327_1940.2" vType="car" speedFactor="1.02" vaporized=""/>
    <tripinfo id="flow_route_87_duration_20250327_1940.2" depart="8.00" departLane="430416184_0" departPos="271.56" departSpeed="0.00" departDelay="2.00" arrival="50.00" arrivalLane="1091883842_0" arrivalPos="162.60" arrivalSpeed="13.84" duration="42.00" routeLength="191.49" waitingTime="12.00" waitingCount="1" stopTime="0.00" timeLoss="27.17" rerouteNo="0" devices="tripinfo_flow_route_87_duration_20250327_1940.2" vType="car" speedFactor="0.86" vaporized=""/>
    <tripinfo id="flow_route_88_duration_20250327_1940.0" depart="0.00" departLane="430416184_0" departPos="194.63" departSpeed="0.00" departDelay="0.00" arrival="51.00" arrivalLane="186407684#0_1" arrivalPos="3.84" arrivalSpeed="8.51" duration="51.00" routeLength="126.85" waitingTime="17.00" waitingCount="1" stopTime="0.00" timeLoss="41.65" rerouteNo="0" devices="tripinfo_flow_route_88_duration_20250327_1940.0" vType="car" speedFactor="0.83" vaporized=""/>
    <tripinfo id="flow_route_88_duration_20250327_1940.2" depart="8.00" departLane="430416184_0" departPos="238.38" departSpeed="0.00" departDelay="2.55" arrival="51.00" arrivalLane="186407684#0_1" arrivalPos="28.37" arrivalSpeed="9.79" duration="43.00" routeLength="107.62" waitingTime="18.00" waitingCount="1" stopTime="0.00" timeLoss="35.55" rerouteNo="0" devices="tripinfo_flow_route_88_duration_20250327_1940.2" vType="car" speedFactor="1.09" vaporized=""/>
    <tripinfo id="flow_route_87_duration_20250327_1940.7" depart="21.00" departLane="430416184_0" departPos="268.40" departSpeed="0.00" departDelay="0.00" arrival="51.00" arrivalLane="1091883842_0" arrivalPos="119.16" arrivalSpeed="14.48" duration="30.00" routeLength="151.21" waitingTime="5.00" waitingCount="1" stopTime="0.00" timeLoss="19.42" rerouteNo="0" devices="tripinfo_flow_route_87_duration_20250327_1940.7" vType="car" speedFactor="0.95" vaporized=""/>
    <tripinfo id="flow_route_86_duration_20250327_1940.0" depart="0.00" departLane="430416184_0" departPos="215.48" departSpeed="0.00" departDelay="0.00" arrival="54.00" arrivalLane="186407685_1" arrivalPos="87.02" arrivalSpeed="13.00" duration="54.00" routeLength="195.42" waitingTime="20.00" waitingCount="1" stopTime="0.00" timeLoss="42.11" rerouteNo="0" devices="tripinfo_flow_route_86_duration_20250327_1940.0" vType="car" speedFactor="1.08" vaporized=""/>
    <tripinfo id="flow_route_87_duration_20250327_1940.3" depart="9.00" departLane="430416184_0" departPos="157.41" departSpeed="0.00" departDelay="0.00" arrival="56.00" arrivalLane="1091883842_0" arrivalPos="164.84" arrivalSpeed="16.15" duration="47.00" routeLength="307.88" waitingTime="3.00" waitingCount="1" stopTime="0.00" timeLoss="26.77" rerouteNo="0" devices="tripinfo_flow_route_87_duration_20250327_1940.3" vType="car" speedFactor="1.05" vaporized=""/>
    <tripinfo id="flow_route_86_duration_20250327_1940.1" depart="6.00" departLane="430416184_0" departPos="197.69" departSpeed="0.00" departDelay="0.00" arrival="61.00" arrivalLane="186407685_1" arrivalPos="10.67" arrivalSpeed="9.40" duration="55.00" routeLength="136.86" waitingTime="18.00" waitingCount="2" stopTime="0.00" timeLoss="46.44" rerouteNo="0" devices="tripinfo_flow_route_86_duration_20250327_1940.1" vType="car" speedFactor="0.94" vaporized=""/>
    <tripinfo id="flow_route_86_duration_20250327_1940.6" depart="41.00" departLane="430416184_0" departPos="282.89" departSpeed="0.00" departDelay="5.00" arrival="63.00" arrivalLane="186407685_1" arrivalPos="60.71" arrivalSpeed="12.73" duration="22.00" routeLength="101.70" waitingTime="3.00" waitingCount="2" stopTime="0.00" timeLoss="15.21" rerouteNo="0" devices="tripinfo_flow_route_86_duration_20250327_1940.6" vType="car" speedFactor="1.09" vaporized=""/>
    <tripinfo id="flow_route_87_duration_20250327_1940.5" depart="20.00" departLane="430416184_0" departPos="167.75" departSpeed="0.00" departDelay="5.00" arrival="64.00" arrivalLane="1091883842_0" arrivalPos="41.44" arrivalSpeed="9.75" duration="44.00" routeLength="174.14" waitingTime="5.00" waitingCount="2" stopTime="0.00" timeLoss="32.99" rerouteNo="0" devices="tripinfo_flow_route_87_duration_20250327_1940.5" vType="car" speedFactor="1.02" vaporized=""/>
    <tripinfo id="flow_route_88_duration_20250327_1940.4" depart="11.00" departLane="430416184_0" departPos="87.27" departSpeed="0.00" departDelay="0.09" arrival="65.00" arrivalLane="186407684#0_1" arrivalPos="2.86" arrivalSpeed="9.60" duration="54.00" routeLength="233.22" waitingTime="10.00" waitingCount="2" stopTime="0.00" timeLoss="39.03" rerouteNo="0" devices="tripinfo_flow_route_88_duration_20250327_1940.4" vType="car" speedFactor="0.99" vaporized=""/>
    <tripinfo id="flow_route_88_duration_20250327_1940.1" depart="3.00" departLane="430416184_0" departPos="76.50" departSpeed="0.00" departDelay="0.27" arrival="67.00" arrivalLane="186407684#0_1" arrivalPos="39.84" arrivalSpeed="11.41" duration="64.00" routeLength="280.98" waitingTime="14.00" waitingCount="2" stopTime="0.00" timeLoss="45.04" rerouteNo="0" devices="tripinfo_flow_route_88_duration_20250327_1940.1" vType="car" speedFactor="0.89" vaporized=""/>
    <tripinfo id="flow_route_88_duration_20250327_1940.10" depart="32.00" departLane="430416184_0" departPos="253.20" departSpeed="0.00" departDelay="4.73" arrival="67.00" arrivalLane="186407684#0_1" arrivalPos="59.81" arrivalSpeed="12.76" duration="35.00" routeLength="124.24" waitingTime="8.00" waitingCount="2" stopTime="0.00" timeLoss="26.09" rerouteNo="0" devices="tripinfo_flow_route_88_duration_20250327_1940.10" vType="car" speedFactor="0.99" vaporized=""/>
    <tripinfo id="flow_route_88_duration_20250327_1940.7" depart="21.00" departLane="430416184_0" departPos="158.12" departSpeed="0.00" departDelay="1.91" arrival="71.00" arrivalLane="186407684#0_1" arrivalPos="43.41" arrivalSpeed="12.83" duration="50.00" routeLength="202.92" waitingTime="7.00" waitingCount="2" stopTime="0.00" timeLoss="36.01" rerouteNo="0" devices="tripinfo_flow_route_88_duration_20250327_1940.7" vType="car" speedFactor="0.92" vaporized=""/>
    <tripinfo id="flow_route_87_duration_20250327_1940.0" depart="0.00" departLane="430416184_0" departPos="1.75" departSpeed="0.00" departDelay="0.00" arrival="72.00" arrivalLane="1091883842_0" arrivalPos="109.56" arrivalSpeed="15.27" duration="72.00" routeLength="408.27" waitingTime="5.00" waitingCount="2" stopTime="0.00" timeLoss="46.05" rerouteNo="0" devices="tripinfo_flow_route_87_duration_20250327_1940.0" vType="car" speedFactor="1.03" vaporized=""/>
    <tripinfo id="flow_route_88_duration_20250327_1940.3" depart="9.00" departLane="430416184_0" departPos="68.46" departSpeed="0.00" departDelay="0.82" arrival="72.00" arrivalLane="186407684#0_1" arrivalPos="34.95" arrivalSpeed="12.34" duration="63.00" routeLength="284.12" waitingTime="6.00" waitingCount="1" stopTime="0.00" timeLoss="44.87" rerouteNo="0" devices="tripinfo_flow_route_88_duration_20250327_1940.3" vType="car" speedFactor="1.12" vaporized=""/>
    <tripinfo id="flow_route_88_duration_20250327_1940.5" depart="15.00" departLane="430416184_0" departPos="48.57" departSpeed="0.00" departDelay="1.37" arrival="72.00" arrivalLane="186407684#0_1" arrivalPos="11.40" arrivalSpeed="10.64" duration="57.00" routeLength="280.46" waitingTime="6.00" waitingCount="1" stopTime="0.00" timeLoss="38.68" rerouteNo="0" devices="tripinfo_flow_route_88_duration_20250327_1940.5" vType="car" speedFactor="0.94" vaporized=""/>
    <tripinfo id="flow_route_87_duration_20250327_1940.8" depart="28.00" departLane="430416184_0" departPos="122.39" departSpeed="0.00" departDelay="4.00" arrival="73.00" arrivalLane="1091883842_0" arrivalPos="62.96" arrivalSpeed="11.87" duration="45.00" routeLength="241.02" waitingTime="2.00" waitingCount="1" stopTime="0.00" timeLoss="29.63" rerouteNo="0" devices="tripinfo_flow_route_87_duration_20250327_1940.8" vType="car" speedFactor="1.18" vaporized=""/>
    <tripinfo id="flow_route_87_duration_20250327_1940.10" depart="33.00" departLane="430416184_0" departPos="205.54" departSpeed="0.00" departDelay="3.00" arrival="73.00" arrivalLane="1091883842_0" arrivalPos="108.64" arrivalSpeed="13.97" duration="40.00" routeLength="203.55" waitingTime="3.00" waitingCount="1" stopTime="0.00" timeLoss="26.85" rerouteNo="0" devices="tripinfo_flow_route_87_duration_20250327_1940.10" vType="car" speedFactor="1.18" vaporized=""/>
    <tripinfo id="flow_route_87_duration_20250327_1940.4" depart="14.00" departLane="430416184_0" departPos="36.26" departSpeed="0.00" departDelay="2.00" arrival="76.00" arrivalLane="1091883842_0" arrivalPos="29.55" arrivalSpeed="9.06" duration="62.00" routeLength="293.74" waitingTime="2.00" waitingCount="1" stopTime="0.00" timeLoss="42.41" rerouteNo="0" devices="tripinfo_flow_route_87_duration_20250327_1940.4" vType="car" speedFactor="0.88" vaporized=""/>
    <tripinfo id="flow_route_87_duration_20250327_1940.6" depart="21.00" departLane="430416184_0" departPos="80.64" departSpeed="0.00" departDelay="3.00" arrival="81.00" arrivalLane="1091883842_0" arrivalPos="110.73" arrivalSpeed="14.13" duration="60.00" routeLength="330.54" waitingTime="2.00" waitingCount="1" stopTime="0.00" timeLoss="37.29" rerouteNo="0" devices="tripinfo_flow_route_87_duration_20250327_1940.6" vType="car" speedFactor="0.89" vaporized=""/>
    <tripinfo id="flow_route_86_duration_20250327_1940.2" depart="13.00" departLane="430416184_0" departPos="8.62" departSpeed="0.00" departDelay="1.00" arrival="82.00" arrivalLane="186407685_1" arrivalPos="135.37" arrivalSpeed="16.20" duration="69.00" routeLength="450.63" waitingTime="3.00" waitingCount="2" stopTime="0.00" timeLoss="41.77" rerouteNo="0" devices="tripinfo_flow_route_86_duration_20250327_1940.2" vType="car" speedFactor="0.93" vaporized=""/>
    <tripinfo id="flow_route_87_duration_20250327_1940.9" depart="31.00" departLane="430416184_0" departPos="87.55" departSpeed="0.00" departDelay="4.00" arrival="82.00" arrivalLane="1091883842_0" arrivalPos="65.34" arrivalSpeed="11.86" duration="51.00" routeLength="278.24" waitingTime="1.00" waitingCount="1" stopTime="0.00" timeLoss="33.11" rerouteNo="0" devices="tripinfo_flow_route_87_duration_20250327_1940.9" vType="car" speedFactor="1.17" vaporized=""/>
    <tripinfo id="flow_route_82_duration_20250327_1940.1" depart="20.00" departLane="423956929_0" departPos="34.02" departSpeed="0.00" departDelay="0.00" arrival="85.00" arrivalLane="186407684#0_0" arrivalPos="27.13" arrivalSpeed="8.40" duration="65.00" routeLength="196.19" waitingTime="31.00" waitingCount="1" stopTime="0.00" timeLoss="51.14" rerouteNo="0" devices="tripinfo_flow_route_82_duration_20250327_1940.1" vType="car" speedFactor="0.87" vaporized=""/>
    <tripinfo id="flow_route_82_duration_20250327_1940.2" depart="40.00" departLane="423956929_0" departPos="72.48" departSpeed="0.00" departDelay="0.00" arrival="86.00" arrivalLane="186407684#0_0" arrivalPos="32.75" arrivalSpeed="9.37" duration="46.00" routeLength="163.35" waitingTime="15.00" waitingCount="1" stopTime="0.00" timeLoss="34.32" rerouteNo="0" devices="tripinfo_flow_route_82_duration_20250327_1940.2" vType="car" speedFactor="0.88" vaporized=""/>
    <tripinfo id="flow_route_62_duration_20250327_1940.8" depart="55.00" departLane="409155823_0" departPos="42.91" departSpeed="0.00" departDelay="1.67" arrival="93.00" arrivalLane="1091883842_1" arrivalPos="90.33" arrivalSpeed="12.68" duration="38.00" routeLength="152.83" waitingTime="10.00" waitingCount="1" stopTime="0.00" timeLoss="28.39" rerouteNo="0" devices="tripinfo_flow_route_62_duration_20250327_1940.8" vType="car" speedFactor="1.02" vaporized=""/>
    <tripinfo id="flow_route_62_duration_20250327_1940.4" depart="27.00" departLane="409155823_0" departPos="18.69" departSpeed="0.00" departDelay="0.34" arrival="94.00" arrivalLane="1091883842_0" arrivalPos="134.06" arrivalSpeed="15.42" duration="67.00" routeLength="220.77" waitingTime="33.00" waitingCount="1" stopTime="0.00" timeLoss="53.21" rerouteNo="0" devices="tripinfo_flow_route_62_duration_20250327_1940.4" vType="car" speedFactor="1.01" vaporized=""/>
    <tripinfo id="flow_route_62_duration_20250327_1940.5" depart="34.00" departLane="409155823_0" departPos="26.09" departSpeed="0.00" departDelay="0.67" arrival="95.00" arrivalLane="1091883842_1" arrivalPos="162.28" arrivalSpeed="15.77" duration="61.00" routeLength="241.60" waitingTime="27.00" waitingCount="1" stopTime="0.00" timeLoss="45.67" rerouteNo="0" devices="tripinfo_flow_route_62_duration_20250327_1940.5" vType="car" speedFactor="0.96" vaporized=""/>
    <tripinfo id="flow_route_83_duration_20250327_1940.3" depart="45.00" departLane="423956929_0" departPos="19.09" departSpeed="0.00" departDelay="0.00" arrival="95.00" arrivalLane="186407685_0" arrivalPos="120.56" arrivalSpeed="14.94" duration="50.00" routeLength="296.03" waitingTime="7.00" waitingCount="1" stopTime="0.00" timeLoss="30.71" rerouteNo="0" devices="tripinfo_flow_route_83_duration_20250327_1940.3" vType="car" speedFactor="1.10" vaporized=""/>
    <tripinfo id="flow_route_62_duration_20250327_1940.7" depart="47.00" departLane="409155823_0" departPos="48.35" departSpeed="0.00" departDelay="0.34" arrival="95.00" arrivalLane="1091883842_0" arrivalPos="119.06" arrivalSpeed="14.14" duration="48.00" routeLength="176.12" waitingTime="17.00" waitingCount="1" stopTime="0.00" timeLoss="37.23" rerouteNo="0" devices="tripinfo_flow_route_62_duration_20250327_1940.7" vType="car" speedFactor="1.00" vaporized=""/>
    <tripinfo id="flow_route_62_duration_20250327_1940.6" depart="40.00" departLane="409155823_0" departPos="3.75" departSpeed="0.00" departDelay="0.00" arrival="96.00" arrivalLane="1091883842_1" arrivalPos="163.80" arrivalSpeed="14.82" duration="56.00" routeLength="265.46" waitingTime="17.00" waitingCount="1" stopTime="0.00" timeLoss="37.94" rerouteNo="0" devices="tripinfo_flow_route_62_duration_20250327_1940.6" vType="car" speedFactor="0.90" vaporized=""/>
    <tripinfo id="flow_route_87_duration_20250327_1940.13" depart="49.00" departLane="430416184_0" departPos="139.59" departSpeed="0.00" departDelay="10.00" arrival="100.00" arrivalLane="1091883842_0" arrivalPos="52.22" arrivalSpeed="10.61" duration="51.00" routeLength="213.08" waitingTime="4.00" waitingCount="2" stopTime="0.00" timeLoss="37.01" rerouteNo="0" devices="tripinfo_flow_route_87_duration_20250327_1940.13" vType="car" speedFactor="1.09" vaporized=""/>
    <tripinfo id="flow_route_87_duration_20250327_1940.18" depart="69.00" departLane="430416184_0" departPos="246.03" departSpeed="0.00" departDelay="15.00" arrival="100.00" arrivalLane="1091883842_0" arrivalPos="76.49" arrivalSpeed="12.10" duration="31.00" routeLength="130.90" waitingTime="4.00" waitingCount="1" stopTime="0.00" timeLoss="21.74" rerouteNo="0" devices="tripinfo_flow_route_87_duration_20250327_1940.18" vType="car" speedFactor="0.94" vaporized=""/>
    <tripinfo id="flow_route_87_duration_20250327_1940.19" depart="71.00" departLane="430416184_0" departPos="272.04" departSpeed="0.00" departDelay="14.00" arrival="103.00" arrivalLane="1091883842_0" arrivalPos="145.60" arrivalSpeed="14.97" duration="32.00" routeLength="174.01" waitingTime="5.00" waitingCount="1" stopTime="0.00" timeLoss="19.46" rerouteNo="0" devices="tripinfo_flow_route_87_duration_20250327_1940.19" vType="car" speedFactor="0.91" vaporized=""/>
    <tripinfo id="flow_route_87_duration_20250327_1940.11" depart="39.00" departLane="430416184_0" departPos="35.95" departSpeed="0.00" departDelay="6.00" arrival="109.00" arrivalLane="1091883842_0" arrivalPos="91.50" arrivalSpeed="12.45" duration="70.00" routeLength="356.00" waitingTime="1.00" waitingCount="1" stopTime="0.00" timeLoss="46.62" rerouteNo="0" devices="tripinfo_flow_route_87_duration_20250327_1940.11" vType="car" speedFactor="0.90" vaporized=""/>
    <tripinfo id="flow_route_87_duration_20250327_1940.12" depart="42.00" departLane="430416184_0" departPos="99.64" departSpeed="0.00" departDelay="6.00" arrival="109.00" arrivalLane="1091883842_0" arrivalPos="129.90" arrivalSpeed="14.68" duration="67.00" routeLength="330.71" waitingTime="4.00" waitingCount="2" stopTime="0.00" timeLoss="45.80" rerouteNo="0" devices="tripinfo_flow_route_87_duration_20250327_1940.12" vType="car" speedFactor="1.04" vaporized=""/>
    <tripinfo id="flow_route_87_duration_20250327_1940.15" depart="59.00" departLane="430416184_0" departPos="129.13" departSpeed="0.00" departDelay="14.00" arrival="112.00" arrivalLane="1091883842_0" arrivalPos="110.07" arrivalSpeed="14.06" duration="53.00" routeLength="281.39" waitingTime="0.00" waitingCount="0" stopTime="0.00" timeLoss="34.84" rerouteNo="0" devices="tripinfo_flow_route_87_duration_20250327_1940.15" vType="car" speedFactor="1.00" vaporized=""/>
    <tripinfo id="flow_route_87_duration_20250327_1940.14" depart="58.00" departLane="430416184_0" departPos="96.25" departSpeed="0.00" departDelay="16.00" arrival="118.00" arrivalLane="1091883842_1" arrivalPos="167.96" arrivalSpeed="16.18" duration="60.00" routeLength="372.16" waitingTime="0.00" waitingCount="0" stopTime="0.00" timeLoss="37.17" rerouteNo="0" devices="tripinfo_flow_route_87_duration_20250327_1940.14" vType="car" speedFactor="1.17" vaporized=""/>
    <tripinfo id="flow_route_88_duration_20250327_1940.12" depart="39.00" departLane="430416184_0" departPos="206.27" departSpeed="0.00" departDelay="6.28" arrival="124.00" arrivalLane="186407684#0_1" arrivalPos="37.46" arrivalSpeed="9.75" duration="85.00" routeLength="148.82" waitingTime="40.00" waitingCount="3" stopTime="0.00" timeLoss="75.30" rerouteNo="0" devices="tripinfo_flow_route_88_duration_20250327_1940.12" vType="car" speedFactor="1.03" vaporized=""/>
    <tripinfo id="flow_route_88_duration_20250327_1940.18" depart="64.00" departLane="430416184_0" departPos="228.32" departSpeed="0.00" departDelay="14.91" arrival="127.00" arrivalLane="186407684#0_1" arrivalPos="14.76" arrivalSpeed="9.23" duration="63.00" routeLength="104.07" waitingTime="33.00" waitingCount="3" stopTime="0.00" timeLoss="55.58" rerouteNo="0" devices="tripinfo_flow_route_88_duration_20250327_1940.18" vType="car" speedFactor="0.97" vaporized=""/>
    <tripinfo id="flow_route_88_duration_20250327_1940.6" depart="21.00" departLane="430416184_0" departPos="43.91" departSpeed="0.00" departDelay="4.64" arrival="132.00" arrivalLane="186407684#0_1" arrivalPos="7.85" arrivalSpeed="10.47" duration="111.00" routeLength="281.57" waitingTime="33.00" waitingCount="2" stopTime="0.00" timeLoss="93.05" rerouteNo="0" devices="tripinfo_flow_route_88_duration_20250327_1940.6" vType="car" speedFactor="1.01" vaporized=""/>
    <tripinfo id="flow_route_88_duration_20250327_1940.11" depart="34.00" departLane="430416184_0" departPos="165.89" departSpeed="0.00" departDelay="4.00" arrival="133.00" arrivalLane="186407684#0_1" arrivalPos="36.77" arrivalSpeed="11.89" duration="99.00" routeLength="188.50" waitingTime="32.00" waitingCount="3" stopTime="0.00" timeLoss="86.69" rerouteNo="0" devices="tripinfo_flow_route_88_duration_20250327_1940.11" vType="car" speedFactor="1.10" vaporized=""/>
    <tripinfo id="flow_route_88_duration_20250327_1940.15" depart="52.00" departLane="430416184_0" departPos="190.47" departSpeed="0.00" departDelay="11.10" arrival="133.00" arrivalLane="186407684#0_1" arrivalPos="59.52" arrivalSpeed="12.44" duration="81.00" routeLength="186.68" waitingTime="33.00" waitingCount="3" stopTime="0.00" timeLoss="67.50" rerouteNo="0" devices="tripinfo_flow_route_88_duration_20250327_1940.15" vType="car" speedFactor="0.85" vaporized=""/>
    <tripinfo id="flow_route_86_duration_20250327_1940.5" depart="32.00" departLane="430416184_0" departPos="180.81" departSpeed="0.00" departDelay="2.00" arrival="134.00" arrivalLane="186407685_1" arrivalPos="146.18" arrivalSpeed="16.38" duration="102.00" routeLength="289.25" waitingTime="40.00" waitingCount="2" stopTime="0.00" timeLoss="84.20" rerouteNo="0" devices="tripinfo_flow_route_86_duration_20250327_1940.5" vType="car" speedFactor="0.97" vaporized=""/>
    <tripinfo id="flow_route_88_duration_20250327_1940.8" depart="24.00" departLane="430416184_0" departPos="24.88" departSpeed="0.00" departDelay="2.18" arrival="135.00" arrivalLane="186407684#0_1" arrivalPos="5.90" arrivalSpeed="10.63" duration="111.00" routeLength="298.66" waitingTime="31.00" waitingCount="2" stopTime="0.00" timeLoss="91.83" rerouteNo="0" devices="tripinfo_flow_route_88_duration_20250327_1940.8" vType="car" speedFactor="1.13" vaporized=""/>
    <tripinfo id="flow_route_86_duration_20250327_1940.8" depart="64.00" departLane="430416184_0" departPos="167.60" departSpeed="0.00" departDelay="16.00" arrival="137.00" arrivalLane="186407685_1" arrivalPos="2.59" arrivalSpeed="11.39" duration="73.00" routeLength="158.87" waitingTime="30.00" waitingCount="1" stopTime="0.00" timeLoss="62.85" rerouteNo="0" devices="tripinfo_flow_route_86_duration_20250327_1940.8" vType="car" speedFactor="1.14" vaporized=""/>
    <tripinfo id="flow_route_88_duration_20250327_1940.13" depart="43.00" departLane="430416184_0" departPos="124.60" departSpeed="0.00" departDelay="7.55" arrival="147.00" arrivalLane="186407684#0_1" arrivalPos="8.95" arrivalSpeed="11.76" duration="104.00" routeLength="201.98" waitingTime="31.00" waitingCount="2" stopTime="0.00" timeLoss="90.33" rerouteNo="0" devices="tripinfo_flow_route_88_duration_20250327_1940.13" vType="car" speedFactor="1.04" vaporized=""/>
    <tripinfo id="flow_route_88_duration_20250327_1940.21" depart="71.00" departLane="430416184_0" departPos="63.80" departSpeed="0.00" departDelay="13.73" arrival="147.00" arrivalLane="186407684#0_1" arrivalPos="74.35" arrivalSpeed="14.38" duration="76.00" routeLength="328.18" waitingTime="30.00" waitingCount="2" stopTime="0.00" timeLoss="53.82" rerouteNo="0" devices="tripinfo_flow_route_88_duration_20250327_1940.21" vType="car" speedFactor="0.91" vaporized=""/>
    <tripinfo id="flow_route_86_duration_20250327_1940.4" depart="26.00" departLane="430416184_0" departPos="13.55" departSpeed="0.00" departDelay="2.00" arrival="149.00" arrivalLane="186407685_1" arrivalPos="55.58" arrivalSpeed="14.78" duration="123.00" routeLength="365.91" waitingTime="33.00" waitingCount="3" stopTime="0.00" timeLoss="100.29" rerouteNo="0" devices="tripinfo_flow_route_86_duration_20250327_1940.4" vType="car" speedFactor="0.93" vaporized=""/>
    <tripinfo id="flow_route_88_duration_20250327_1940.9" depart="31.00" departLane="430416184_0" departPos="6.90" departSpeed="0.00" departDelay="6.46" arrival="149.00" arrivalLane="186407684#0_1" arrivalPos="18.26" arrivalSpeed="12.81" duration="118.00" routeLength="328.99" waitingTime="31.00" waitingCount="2" stopTime="0.00" timeLoss="97.21" rerouteNo="0" devices="tripinfo_flow_route_88_duration_20250327_1940.9" vType="car" speedFactor="1.15" vaporized=""/>
    <tripinfo id="flow_route_86_duration_20250327_1940.3" depart="21.00" departLane="430416184_0" departPos="8.05" departSpeed="0.00" departDelay="3.00" arrival="152.00" arrivalLane="186407685_1" arrivalPos="126.70" arrivalSpeed="16.29" duration="131.00" routeLength="442.53" waitingTime="37.00" waitingCount="4" stopTime="0.00" timeLoss="103.55" rerouteNo="0" devices="tripinfo_flow_route_86_duration_20250327_1940.3" vType="car" speedFactor="0.97" vaporized=""/>
    <tripinfo id="flow_route_87_duration_20250327_1940.16" depart="64.00" departLane="430416184_0" departPos="37.45" departSpeed="0.00" departDelay="16.00" arrival="155.00" arrivalLane="1091883842_0" arrivalPos="182.17" arrivalSpeed="16.59" duration="91.00" routeLength="445.17" waitingTime="28.00" waitingCount="2" stopTime="0.00" timeLoss="63.16" rerouteNo="0" devices="tripinfo_flow_route_87_duration_20250327_1940.16" vType="car" speedFactor="1.02" vaporized=""/>
    <tripinfo id="flow_route_87_duration_20250327_1940.17" depart="65.00" departLane="430416184_0" departPos="28.25" departSpeed="0.00" departDelay="14.00" arrival="155.00" arrivalLane="1091883842_0" arrivalPos="148.19" arrivalSpeed="16.31" duration="90.00" routeLength="420.38" waitingTime="27.00" waitingCount="2" stopTime="0.00" timeLoss="63.22" rerouteNo="0" devices="tripinfo_flow_route_87_duration_20250327_1940.17" vType="car" speedFactor="1.08" vaporized=""/>
    <tripinfo id="flow_route_88_duration_20250327_1940.16" depart="58.00" departLane="430416184_0" departPos="60.01" departSpeed="0.00" departDelay="14.37" arrival="198.00" arrivalLane="186407684#0_1" arrivalPos="24.44" arrivalSpeed="8.40" duration="140.00" routeLength="282.06" waitingTime="66.00" waitingCount="3" stopTime="0.00" timeLoss="121.87" rerouteNo="0" devices="tripinfo_flow_route_88_duration_20250327_1940.16" vType="car" speedFactor="1.02" vaporized=""/>