<?xml version="1.0" encoding="UTF-8"?>

<!-- generated on 2025-05-06 21:08:21 by Eclipse SUMO sumo Version 1.20.0
<configuration xmlns:xsi="http://www.w3.org/2001/XMLSchema-instance" xsi:noNamespaceSchemaLocation="http://sumo.dlr.de/xsd/sumoConfiguration.xsd">

    <input>
        <net-file value="osm.net.xml"/>
        <route-files value="xml/route_rl_cluster_3839031475_3839031476_4110471700_4234582615_4.rou.xml"/>
    </input>

    <output>
        <tripinfo-output value="xml/tripinfo_rl_cluster_3839031475_3839031476_4110471700_4234582615_4.xml"/>
    </output>

    <traci_server>
        <remote-port value="50855"/>
    </traci_server>

</configuration>
-->

<tripinfos xmlns:xsi="http://www.w3.org/2001/XMLSchema-instance" xsi:noNamespaceSchemaLocation="http://sumo.dlr.de/xsd/tripinfo_file.xsd">
    <tripinfo id="flow_route_85_duration_20250327_2050.0" depart="0.00" departLane="1091883842_0" departPos="162.60" departSpeed="0.00" departDelay="0.00" arrival="16.00" arrivalLane="133000063_0" arrivalPos="42.63" arrivalSpeed="9.42" duration="16.00" routeLength="74.77" waitingTime="0.00" waitingCount="0" stopTime="0.00" timeLoss="9.16" rerouteNo="0" devices="tripinfo_flow_route_85_duration_20250327_2050.0" vType="car" speedFactor="0.89" vaporized=""/>
    <tripinfo id="flow_route_84_duration_20250327_2050.1" depart="5.00" departLane="1091883842_0" departPos="57.02" departSpeed="0.00" departDelay="0.00" arrival="26.00" arrivalLane="136617981_1" arrivalPos="13.09" arrivalSpeed="15.42" duration="21.00" routeLength="174.36" waitingTime="0.00" waitingCount="0" stopTime="0.00" timeLoss="10.45" rerouteNo="0" devices="tripinfo_flow_route_84_duration_20250327_2050.1" vType="car" speedFactor="1.09" vaporized=""/>
    <tripinfo id="flow_route_79_duration_20250327_2050.0" depart="0.00" departLane="380344611#0_0" departPos="128.21" departSpeed="0.00" departDelay="0.00" arrival="28.00" arrivalLane="423956929_1" arrivalPos="91.18" arrivalSpeed="16.55" duration="28.00" routeLength="278.79" waitingTime="0.00" waitingCount="0" stopTime="0.00" timeLoss="10.86" rerouteNo="0" devices="tripinfo_flow_route_79_duration_20250327_2050.0" vType="car" speedFactor="1.08" vaporized=""/>
    <tripinfo id="flow_route_84_duration_20250327_2050.3" depart="15.00" departLane="1091883842_0" departPos="179.13" departSpeed="0.00" departDelay="0.00" arrival="30.00" arrivalLane="136617981_0" arrivalPos="36.67" arrivalSpeed="10.36" duration="15.00" routeLength="75.83" waitingTime="0.00" waitingCount="0" stopTime="0.00" timeLoss="9.82" rerouteNo="0" devices="tripinfo_flow_route_84_duration_20250327_2050.3" vType="car" speedFactor="1.02" vaporized=""/>
    <tripinfo id="flow_route_80_duration_20250327_2050.0" depart="0.00" departLane="380344611#0_0" departPos="160.58" departSpeed="0.00" departDelay="0.00" arrival="31.00" arrivalLane="380593307#0_0" arrivalPos="102.42" arrivalSpeed="13.82" duration="31.00" routeLength="234.46" waitingTime="0.00" waitingCount="0" stopTime="0.00" timeLoss="16.07" rerouteNo="0" devices="tripinfo_flow_route_80_duration_20250327_2050.0" vType="car" speedFactor="1.03" vaporized=""/>
    <tripinfo id="flow_route_90_duration_20250327_2050.0" depart="0.00" departLane="380585338#0_0" departPos="118.71" departSpeed="0.00" departDelay="0.00" arrival="33.00" arrivalLane="136617981_0" arrivalPos="211.18" arrivalSpeed="13.95" duration="33.00" routeLength="279.54" waitingTime="0.00" waitingCount="0" stopTime="0.00" timeLoss="11.74" rerouteNo="0" devices="tripinfo_flow_route_90_duration_20250327_2050.0" vType="car" speedFactor="0.86" vaporized=""/>
    <tripinfo id="flow_route_84_duration_20250327_2050.0" depart="0.00" departLane="1091883842_0" departPos="11.19" departSpeed="0.00" departDelay="0.00" arrival="37.00" arrivalLane="136617981_1" arrivalPos="210.65" arrivalSpeed="16.50" duration="37.00" routeLength="417.75" waitingTime="0.00" waitingCount="0" stopTime="0.00" timeLoss="10.93" rerouteNo="0" devices="tripinfo_flow_route_84_duration_20250327_2050.0" vType="car" speedFactor="1.05" vaporized=""/>
    <tripinfo id="flow_route_81_duration_20250327_2050.0" depart="0.00" departLane="380344611#0_0" departPos="75.01" departSpeed="0.00" departDelay="0.00" arrival="44.00" arrivalLane="133000063_2" arrivalPos="7.51" arrivalSpeed="7.12" duration="44.00" routeLength="248.37" waitingTime="7.00" waitingCount="1" stopTime="0.00" timeLoss="25.00" rerouteNo="0" devices="tripinfo_flow_route_81_duration_20250327_2050.0" vType="car" speedFactor="0.83" vaporized=""/>
    <tripinfo id="flow_route_84_duration_20250327_2050.2" depart="10.00" departLane="1091883842_0" departPos="6.02" departSpeed="0.00" departDelay="0.00" arrival="45.00" arrivalLane="136617981_1" arrivalPos="154.27" arrivalSpeed="16.29" duration="35.00" routeLength="366.54" waitingTime="0.00" waitingCount="0" stopTime="0.00" timeLoss="11.90" rerouteNo="0" devices="tripinfo_flow_route_84_duration_20250327_2050.2" vType="car" speedFactor="0.99" vaporized=""/>
    <tripinfo id="flow_route_84_duration_20250327_2050.4" depart="20.00" departLane="1091883842_0" departPos="128.44" departSpeed="0.00" departDelay="0.00" arrival="49.00" arrivalLane="136617981_0" arrivalPos="189.36" arrivalSpeed="13.50" duration="29.00" routeLength="279.21" waitingTime="0.00" waitingCount="0" stopTime="0.00" timeLoss="8.54" rerouteNo="0" devices="tripinfo_flow_route_84_duration_20250327_2050.4" vType="car" speedFactor="0.83" vaporized=""/>
    <tripinfo id="flow_route_80_duration_20250327_2050.1" depart="30.00" departLane="380344611#0_0" departPos="192.45" departSpeed="0.00" departDelay="0.00" arrival="49.00" arrivalLane="380593307#0_0" arrivalPos="13.89" arrivalSpeed="7.70" duration="19.00" routeLength="114.06" waitingTime="0.00" waitingCount="0" stopTime="0.00" timeLoss="11.47" rerouteNo="0" devices="tripinfo_flow_route_80_duration_20250327_2050.1" vType="car" speedFactor="1.02" vaporized=""/>
    <tripinfo id="flow_route_81_duration_20250327_2050.3" depart="17.00" departLane="380344611#0_0" departPos="63.27" departSpeed="0.00" departDelay="0.64" arrival="55.00" arrivalLane="133000063_2" arrivalPos="45.48" arrivalSpeed="11.41" duration="38.00" routeLength="298.08" waitingTime="0.00" waitingCount="0" stopTime="0.00" timeLoss="19.30" rerouteNo="0" devices="tripinfo_flow_route_81_duration_20250327_2050.3" vType="car" speedFactor="1.01" vaporized=""/>
    <tripinfo id="flow_route_81_duration_20250327_2050.4" depart="22.00" departLane="380344611#0_0" departPos="270.78" departSpeed="0.00" departDelay="0.18" arrival="55.00" arrivalLane="133000063_2" arrivalPos="84.84" arrivalSpeed="13.40" duration="33.00" routeLength="129.93" waitingTime="7.00" waitingCount="1" stopTime="0.00" timeLoss="23.37" rerouteNo="0" devices="tripinfo_flow_route_81_duration_20250327_2050.4" vType="car" speedFactor="0.92" vaporized=""/>
    <tripinfo id="flow_route_81_duration_20250327_2050.1" depart="6.00" departLane="380344611#0_0" departPos="233.75" departSpeed="0.00" departDelay="0.55" arrival="56.00" arrivalLane="133000063_2" arrivalPos="161.74" arrivalSpeed="16.56" duration="50.00" routeLength="243.86" waitingTime="13.00" waitingCount="1" stopTime="0.00" timeLoss="33.78" rerouteNo="0" devices="tripinfo_flow_route_81_duration_20250327_2050.1" vType="car" speedFactor="1.05" vaporized=""/>
    <tripinfo id="flow_route_79_duration_20250327_2050.1" depart="30.00" departLane="380344611#0_0" departPos="60.22" departSpeed="0.00" departDelay="0.00" arrival="57.00" arrivalLane="423956929_0" arrivalPos="8.69" arrivalSpeed="16.50" duration="27.00" routeLength="264.29" waitingTime="0.00" waitingCount="0" stopTime="0.00" timeLoss="10.74" rerouteNo="0" devices="tripinfo_flow_route_79_duration_20250327_2050.1" vType="car" speedFactor="0.99" vaporized=""/>
    <tripinfo id="flow_route_81_duration_20250327_2050.2" depart="11.00" departLane="380344611#0_0" departPos="45.12" departSpeed="0.00" departDelay="0.09" arrival="60.00" arrivalLane="133000063_2" arrivalPos="131.68" arrivalSpeed="14.43" duration="49.00" routeLength="402.43" waitingTime="0.00" waitingCount="0" stopTime="0.00" timeLoss="20.14" rerouteNo="0" devices="tripinfo_flow_route_81_duration_20250327_2050.2" vType="car" speedFactor="0.88" vaporized=""/>
    <tripinfo id="flow_route_81_duration_20250327_2050.6" depart="33.00" departLane="380344611#0_0" departPos="145.42" departSpeed="0.00" departDelay="0.28" arrival="67.00" arrivalLane="133000063_2" arrivalPos="105.95" arrivalSpeed="14.32" duration="34.00" routeLength="276.40" waitingTime="0.00" waitingCount="0" stopTime="0.00" timeLoss="16.70" rerouteNo="0" devices="tripinfo_flow_route_81_duration_20250327_2050.6" vType="car" speedFactor="1.18" vaporized=""/>
    <tripinfo id="flow_route_81_duration_20250327_2050.5" depart="28.00" departLane="380344611#0_0" departPos="96.13" departSpeed="0.00" departDelay="0.73" arrival="70.00" arrivalLane="133000063_2" arrivalPos="30.83" arrivalSpeed="12.56" duration="42.00" routeLength="250.56" waitingTime="0.00" waitingCount="0" stopTime="0.00" timeLoss="25.86" rerouteNo="0" devices="tripinfo_flow_route_81_duration_20250327_2050.5" vType="car" speedFactor="1.18" vaporized=""/>
    <tripinfo id="flow_route_81_duration_20250327_2050.7" depart="39.00" departLane="380344611#0_0" departPos="177.30" departSpeed="0.00" departDelay="0.82" arrival="74.00" arrivalLane="133000063_2" arrivalPos="150.80" arrivalSpeed="16.23" duration="35.00" routeLength="289.38" waitingTime="0.00" waitingCount="0" stopTime="0.00" timeLoss="17.01" rerouteNo="0" devices="tripinfo_flow_route_81_duration_20250327_2050.7" vType="car" speedFactor="1.09" vaporized=""/>
    <tripinfo id="flow_route_89_duration_20250327_2050.2" depart="10.00" departLane="380585338#0_0" departPos="52.40" departSpeed="0.00" departDelay="0.77" arrival="87.00" arrivalLane="380593307#0_2" arrivalPos="41.10" arrivalSpeed="11.10" duration="77.00" routeLength="198.97" waitingTime="44.00" waitingCount="1" stopTime="0.00" timeLoss="63.48" rerouteNo="0" devices="tripinfo_flow_route_89_duration_20250327_2050.2" vType="car" speedFactor="0.93" vaporized=""/>
    <tripinfo id="flow_route_90_duration_20250327_2050.2" depart="19.00" departLane="380585338#0_0" departPos="140.95" departSpeed="0.00" departDelay="1.86" arrival="87.00" arrivalLane="136617981_0" arrivalPos="47.60" arrivalSpeed="10.54" duration="68.00" routeLength="93.72" waitingTime="45.00" waitingCount="1" stopTime="0.00" timeLoss="61.18" rerouteNo="0" devices="tripinfo_flow_route_90_duration_20250327_2050.2" vType="car" speedFactor="0.97" vaporized=""/>
    <tripinfo id="flow_route_89_duration_20250327_2050.4" depart="22.00" departLane="380585338#0_0" departPos="100.73" departSpeed="0.00" departDelay="3.54" arrival="88.00" arrivalLane="380593307#0_2" arrivalPos="41.91" arrivalSpeed="10.67" duration="66.00" routeLength="151.45" waitingTime="34.00" waitingCount="1" stopTime="0.00" timeLoss="55.79" rerouteNo="0" devices="tripinfo_flow_route_89_duration_20250327_2050.4" vType="car" speedFactor="0.89" vaporized=""/>
    <tripinfo id="flow_route_77_duration_20250327_2050.2" depart="30.00" departLane="133342692#0_0" departPos="60.32" departSpeed="0.00" departDelay="0.00" arrival="88.00" arrivalLane="423956929_0" arrivalPos="38.44" arrivalSpeed="9.62" duration="58.00" routeLength="160.64" waitingTime="25.00" waitingCount="1" stopTime="0.00" timeLoss="47.12" rerouteNo="0" devices="tripinfo_flow_route_77_duration_20250327_2050.2" vType="car" speedFactor="1.01" vaporized=""/>
    <tripinfo id="flow_route_89_duration_20250327_2050.5" depart="25.00" departLane="380585338#0_0" departPos="4.83" departSpeed="0.00" departDelay="1.93" arrival="90.00" arrivalLane="380593307#0_2" arrivalPos="31.83" arrivalSpeed="11.45" duration="65.00" routeLength="237.27" waitingTime="27.00" waitingCount="1" stopTime="0.00" timeLoss="49.36" rerouteNo="0" devices="tripinfo_flow_route_89_duration_20250327_2050.5" vType="car" speedFactor="0.95" vaporized=""/>
    <tripinfo id="flow_route_77_duration_20250327_2050.0" depart="0.00" departLane="133342692#0_0" departPos="115.39" departSpeed="0.00" departDelay="0.00" arrival="91.00" arrivalLane="423956929_0" arrivalPos="132.19" arrivalSpeed="14.48" duration="91.00" routeLength="199.33" waitingTime="60.00" waitingCount="1" stopTime="0.00" timeLoss="77.21" rerouteNo="0" devices="tripinfo_flow_route_77_duration_20250327_2050.0" vType="car" speedFactor="0.94" vaporized=""/>
    <tripinfo id="flow_route_89_duration_20250327_2050.0" depart="0.00" departLane="380585338#0_0" departPos="55.91" departSpeed="0.00" departDelay="0.00" arrival="91.00" arrivalLane="380593307#0_1" arrivalPos="94.67" arrivalSpeed="14.24" duration="91.00" routeLength="249.03" waitingTime="51.00" waitingCount="1" stopTime="0.00" timeLoss="74.55" rerouteNo="0" devices="tripinfo_flow_route_89_duration_20250327_2050.0" vType="car" speedFactor="0.94" vaporized=""/>
    <tripinfo id="flow_route_89_duration_20250327_2050.1" depart="5.00" departLane="380585338#0_0" departPos="110.00" departSpeed="0.00" departDelay="0.39" arrival="91.00" arrivalLane="380593307#0_0" arrivalPos="89.06" arrivalSpeed="14.23" duration="86.00" routeLength="189.32" waitingTime="53.00" waitingCount="1" stopTime="0.00" timeLoss="73.76" rerouteNo="0" devices="tripinfo_flow_route_89_duration_20250327_2050.1" vType="car" speedFactor="1.03" vaporized=""/>
    <tripinfo id="flow_route_77_duration_20250327_2050.1" depart="15.00" departLane="133342692#0_0" departPos="21.50" departSpeed="0.00" departDelay="0.00" arrival="93.00" arrivalLane="423956929_0" arrivalPos="127.10" arrivalSpeed="15.45" duration="78.00" routeLength="288.13" waitingTime="38.00" waitingCount="1" stopTime="0.00" timeLoss="58.08" rerouteNo="0" devices="tripinfo_flow_route_77_duration_20250327_2050.1" vType="car" speedFactor="0.94" vaporized=""/>
    <tripinfo id="flow_route_76_duration_20250327_2050.0" depart="0.00" departLane="133342692#0_0" departPos="1.03" departSpeed="0.00" departDelay="0.00" arrival="94.00" arrivalLane="133000063_0" arrivalPos="153.47" arrivalSpeed="16.19" duration="94.00" routeLength="359.35" waitingTime="49.00" waitingCount="1" stopTime="0.00" timeLoss="71.88" rerouteNo="0" devices="tripinfo_flow_route_76_duration_20250327_2050.0" vType="car" speedFactor="1.06" vaporized=""/>
    <tripinfo id="flow_route_89_duration_20250327_2050.8" depart="37.00" departLane="380585338#0_0" departPos="18.18" departSpeed="0.00" departDelay="0.08" arrival="94.00" arrivalLane="380593307#0_1" arrivalPos="52.56" arrivalSpeed="12.35" duration="57.00" routeLength="244.64" waitingTime="18.00" waitingCount="1" stopTime="0.00" timeLoss="40.98" rerouteNo="0" devices="tripinfo_flow_route_89_duration_20250327_2050.8" vType="car" speedFactor="0.96" vaporized=""/>
    <tripinfo id="flow_route_89_duration_20250327_2050.11" depart="51.00" departLane="380585338#0_0" departPos="117.27" departSpeed="0.00" departDelay="0.24" arrival="94.00" arrivalLane="380593307#0_2" arrivalPos="67.82" arrivalSpeed="13.74" duration="43.00" routeLength="160.82" waitingTime="13.00" waitingCount="1" stopTime="0.00" timeLoss="33.11" rerouteNo="0" devices="tripinfo_flow_route_89_duration_20250327_2050.11" vType="car" speedFactor="1.00" vaporized=""/>
    <tripinfo id="flow_route_89_duration_20250327_2050.7" depart="34.00" departLane="380585338#0_0" departPos="101.59" departSpeed="0.00" departDelay="1.70" arrival="95.00" arrivalLane="380593307#0_0" arrivalPos="67.66" arrivalSpeed="14.20" duration="61.00" routeLength="176.35" waitingTime="28.00" waitingCount="1" stopTime="0.00" timeLoss="49.57" rerouteNo="0" devices="tripinfo_flow_route_89_duration_20250327_2050.7" vType="car" speedFactor="1.10" vaporized=""/>
    <tripinfo id="flow_route_77_duration_20250327_2050.3" depart="45.00" departLane="133342692#0_0" departPos="48.21" departSpeed="0.00" departDelay="0.00" arrival="95.00" arrivalLane="423956929_0" arrivalPos="86.52" arrivalSpeed="13.35" duration="50.00" routeLength="220.83" waitingTime="12.00" waitingCount="1" stopTime="0.00" timeLoss="33.20" rerouteNo="0" devices="tripinfo_flow_route_77_duration_20250327_2050.3" vType="car" speedFactor="0.88" vaporized=""/>
    <tripinfo id="flow_route_89_duration_20250327_2050.3" depart="14.00" departLane="380585338#0_0" departPos="5.18" departSpeed="0.00" departDelay="0.16" arrival="97.00" arrivalLane="380593307#0_1" arrivalPos="166.07" arrivalSpeed="15.65" duration="83.00" routeLength="371.16" waitingTime="36.00" waitingCount="1" stopTime="0.00" timeLoss="59.24" rerouteNo="0" devices="tripinfo_flow_route_89_duration_20250327_2050.3" vType="car" speedFactor="0.94" vaporized=""/>
    <tripinfo id="flow_route_89_duration_20250327_2050.6" depart="29.00" departLane="380585338#0_0" departPos="98.49" departSpeed="0.00" departDelay="1.31" arrival="100.00" arrivalLane="380593307#0_1" arrivalPos="172.27" arrivalSpeed="16.52" duration="71.00" routeLength="284.05" waitingTime="32.00" waitingCount="1" stopTime="0.00" timeLoss="53.18" rerouteNo="0" devices="tripinfo_flow_route_89_duration_20250327_2050.6" vType="car" speedFactor="1.15" vaporized=""/>
    <tripinfo id="flow_route_89_duration_20250327_2050.10" depart="47.00" departLane="380585338#0_0" departPos="24.51" departSpeed="0.00" departDelay="0.85" arrival="100.00" arrivalLane="380593307#0_2" arrivalPos="123.83" arrivalSpeed="16.54" duration="53.00" routeLength="309.59" waitingTime="8.00" waitingCount="1" stopTime="0.00" timeLoss="33.55" rerouteNo="0" devices="tripinfo_flow_route_89_duration_20250327_2050.10" vType="car" speedFactor="1.17" vaporized=""/>
    <tripinfo id="flow_route_78_duration_20250327_2050.0" depart="0.00" departLane="133342692#0_0" departPos="79.92" departSpeed="0.00" departDelay="0.00" arrival="101.00" arrivalLane="136617981_2" arrivalPos="12.89" arrivalSpeed="6.48" duration="101.00" routeLength="138.43" waitingTime="67.00" waitingCount="2" stopTime="0.00" timeLoss="91.77" rerouteNo="0" devices="tripinfo_flow_route_78_duration_20250327_2050.0" vType="car" speedFactor="1.01" vaporized=""/>
    <tripinfo id="flow_route_89_duration_20250327_2050.12" depart="57.00" departLane="380585338#0_0" departPos="118.23" departSpeed="0.00" departDelay="1.62" arrival="101.00" arrivalLane="380593307#0_0" arrivalPos="102.27" arrivalSpeed="15.15" duration="44.00" routeLength="194.31" waitingTime="12.00" waitingCount="1" stopTime="0.00" timeLoss="32.28" rerouteNo="0" devices="tripinfo_flow_route_89_duration_20250327_2050.12" vType="car" speedFactor="1.02" vaporized=""/>
    <tripinfo id="flow_route_90_duration_20250327_2050.3" depart="28.00" departLane="380585338#0_0" departPos="54.50" departSpeed="0.00" departDelay="2.29" arrival="102.00" arrivalLane="136617981_0" arrivalPos="154.97" arrivalSpeed="15.43" duration="74.00" routeLength="287.53" waitingTime="28.00" waitingCount="1" stopTime="0.00" timeLoss="53.76" rerouteNo="0" devices="tripinfo_flow_route_90_duration_20250327_2050.3" vType="car" speedFactor="0.93" vaporized=""/>
    <tripinfo id="flow_route_89_duration_20250327_2050.9" depart="43.00" departLane="380585338#0_0" departPos="71.38" departSpeed="0.00" departDelay="1.47" arrival="102.00" arrivalLane="380593307#0_1" arrivalPos="151.71" arrivalSpeed="16.37" duration="59.00" routeLength="290.59" waitingTime="13.00" waitingCount="1" stopTime="0.00" timeLoss="40.79" rerouteNo="0" devices="tripinfo_flow_route_89_duration_20250327_2050.9" vType="car" speedFactor="1.09" vaporized=""/>
    <tripinfo id="flow_route_90_duration_20250327_2050.5" depart="43.00" departLane="380585338#0_0" departPos="59.54" departSpeed="0.00" departDelay="0.15" arrival="102.00" arrivalLane="136617981_0" arrivalPos="83.98" arrivalSpeed="13.01" duration="59.00" routeLength="211.51" waitingTime="11.00" waitingCount="1" stopTime="0.00" timeLoss="45.24" rerouteNo="0" devices="tripinfo_flow_route_90_duration_20250327_2050.5" vType="car" speedFactor="1.00" vaporized=""/>
    <tripinfo id="flow_route_90_duration_20250327_2050.1" depart="9.00" departLane="380585338#0_0" departPos="68.87" departSpeed="0.00" departDelay="0.43" arrival="103.00" arrivalLane="136617981_0" arrivalPos="251.57" arrivalSpeed="16.57" duration="94.00" routeLength="369.78" waitingTime="44.00" waitingCount="1" stopTime="0.00" timeLoss="70.24" rerouteNo="0" devices="tripinfo_flow_route_90_duration_20250327_2050.1" vType="car" speedFactor="1.12" vaporized=""/>
    <tripinfo id="flow_route_90_duration_20250327_2050.4" depart="35.00" departLane="380585338#0_0" departPos="4.14" departSpeed="0.00" departDelay="0.72" arrival="107.00" arrivalLane="136617981_0" arrivalPos="103.50" arrivalSpeed="13.77" duration="72.00" routeLength="286.43" waitingTime="11.00" waitingCount="1" stopTime="0.00" timeLoss="53.67" rerouteNo="0" devices="tripinfo_flow_route_90_duration_20250327_2050.4" vType="car" speedFactor="1.03" vaporized=""/>
    <tripinfo id="flow_route_78_duration_20250327_2050.2" depart="30.00" departLane="133342692#0_0" departPos="49.73" departSpeed="0.00" departDelay="0.00" arrival="109.00" arrivalLane="136617981_2" arrivalPos="51.20" arrivalSpeed="10.63" duration="79.00" routeLength="206.94" waitingTime="38.00" waitingCount="2" stopTime="0.00" timeLoss="66.03" rerouteNo="0" devices="tripinfo_flow_route_78_duration_20250327_2050.2" vType="car" speedFactor="1.17" vaporized=""/>
    <tripinfo id="flow_route_78_duration_20250327_2050.1" depart="15.00" departLane="133342692#0_0" departPos="70.53" departSpeed="0.00" departDelay="0.00" arrival="111.00" arrivalLane="136617981_2" arrivalPos="93.90" arrivalSpeed="13.06" duration="96.00" routeLength="228.83" waitingTime="53.00" waitingCount="2" stopTime="0.00" timeLoss="81.54" rerouteNo="0" devices="tripinfo_flow_route_78_duration_20250327_2050.1" vType="car" speedFactor="1.16" vaporized=""/>
    <tripinfo id="flow_route_90_duration_20250327_2050.6" depart="53.00" departLane="380585338#0_0" departPos="26.67" departSpeed="0.00" departDelay="1.57" arrival="119.00" arrivalLane="136617981_0" arrivalPos="277.25" arrivalSpeed="16.21" duration="66.00" routeLength="437.65" waitingTime="12.00" waitingCount="1" stopTime="0.00" timeLoss="38.76" rerouteNo="0" devices="tripinfo_flow_route_90_duration_20250327_2050.6" vType="car" speedFactor="1.00" vaporized=""/>
    <tripinfo id="flow_route_78_duration_20250327_2050.3" depart="45.00" departLane="133342692#0_0" departPos="122.11" departSpeed="0.00" departDelay="0.00" arrival="122.00" arrivalLane="136617981_2" arrivalPos="187.57" arrivalSpeed="14.09" duration="77.00" routeLength="270.92" waitingTime="33.00" waitingCount="2" stopTime="0.00" timeLoss="56.95" rerouteNo="0" devices="tripinfo_flow_route_78_duration_20250327_2050.3" vType="car" speedFactor="0.85" vaporized=""/>
    <tripinfo id="flow_route_84_duration_20250327_2050.5" depart="25.00" departLane="1091883842_0" departPos="51.78" departSpeed="0.00" departDelay="0.00" arrival="161.00" arrivalLane="136617981_1" arrivalPos="43.03" arrivalSpeed="10.74" duration="136.00" routeLength="209.54" waitingTime="100.00" waitingCount="1" stopTime="0.00" timeLoss="122.84" rerouteNo="0" devices="tripinfo_flow_route_84_duration_20250327_2050.5" vType="car" speedFactor="1.13" vaporized=""/>
    <tripinfo id="flow_route_84_duration_20250327_2050.7" depart="35.00" departLane="1091883842_0" departPos="181.41" departSpeed="0.00" departDelay="0.00" arrival="166.00" arrivalLane="136617981_0" arrivalPos="118.24" arrivalSpeed="14.61" duration="131.00" routeLength="155.12" waitingTime="108.00" waitingCount="1" stopTime="0.00" timeLoss="120.45" rerouteNo="0" devices="tripinfo_flow_route_84_duration_20250327_2050.7" vType="car" speedFactor="0.90" vaporized=""/>
    <tripinfo id="flow_route_84_duration_20250327_2050.10" depart="50.00" departLane="1091883842_0" departPos="7.91" departSpeed="0.00" departDelay="0.00" arrival="167.00" arrivalLane="136617981_2" arrivalPos="105.32" arrivalSpeed="15.68" duration="117.00" routeLength="315.70" waitingTime="72.00" waitingCount="1" stopTime="0.00" timeLoss="97.30" rerouteNo="0" devices="tripinfo_flow_route_84_duration_20250327_2050.10" vType="car" speedFactor="1.10" vaporized=""/>
    <tripinfo id="flow_route_85_duration_20250327_2050.2" depart="42.00" departLane="1091883842_0" departPos="106.53" departSpeed="0.00" departDelay="2.00" arrival="168.00" arrivalLane="133000063_0" arrivalPos="84.86" arrivalSpeed="12.49" duration="126.00" routeLength="173.08" waitingTime="93.00" waitingCount="1" stopTime="0.00" timeLoss="114.94" rerouteNo="0" devices="tripinfo_flow_route_85_duration_20250327_2050.2" vType="car" speedFactor="1.04" vaporized=""/>
    <tripinfo id="flow_route_85_duration_20250327_2050.1" depart="22.00" departLane="1091883842_0" departPos="31.27" departSpeed="0.00" departDelay="2.00" arrival="169.00" arrivalLane="133000063_0" arrivalPos="123.25" arrivalSpeed="14.25" duration="147.00" routeLength="286.72" waitingTime="98.00" waitingCount="1" stopTime="0.00" timeLoss="125.94" rerouteNo="0" devices="tripinfo_flow_route_85_duration_20250327_2050.1" vType="car" speedFactor="0.87" vaporized=""/>
    <tripinfo id="flow_route_84_duration_20250327_2050.11" depart="56.00" departLane="1091883842_0" departPos="51.49" departSpeed="0.00" departDelay="1.00" arrival="169.00" arrivalLane="136617981_1" arrivalPos="97.65" arrivalSpeed="14.64" duration="113.00" routeLength="264.45" waitingTime="72.00" waitingCount="1" stopTime="0.00" timeLoss="96.58" rerouteNo="0" devices="tripinfo_flow_route_84_duration_20250327_2050.11" vType="car" speedFactor="1.14" vaporized=""/>
    <tripinfo id="flow_route_84_duration_20250327_2050.6" depart="30.00" departLane="1091883842_0" departPos="78.60" departSpeed="0.00" departDelay="0.00" arrival="174.00" arrivalLane="136617981_0" arrivalPos="204.59" arrivalSpeed="16.00" duration="144.00" routeLength="344.29" waitingTime="99.00" waitingCount="1" stopTime="0.00" timeLoss="121.96" rerouteNo="0" devices="tripinfo_flow_route_84_duration_20250327_2050.6" vType="car" speedFactor="0.97" vaporized=""/>
    <tripinfo id="flow_route_84_duration_20250327_2050.8" depart="40.00" departLane="1091883842_0" departPos="78.95" departSpeed="0.00" departDelay="0.00" arrival="175.00" arrivalLane="136617981_1" arrivalPos="262.14" arrivalSpeed="16.24" duration="135.00" routeLength="401.48" waitingTime="87.00" waitingCount="1" stopTime="0.00" timeLoss="110.31" rerouteNo="0" devices="tripinfo_flow_route_84_duration_20250327_2050.8" vType="car" speedFactor="1.04" vaporized=""/>
    <tripinfo id="flow_route_84_duration_20250327_2050.9" depart="45.00" departLane="1091883842_0" departPos="23.08" departSpeed="0.00" departDelay="0.00" arrival="176.00" arrivalLane="136617981_1" arrivalPos="221.35" arrivalSpeed="14.01" duration="131.00" routeLength="416.56" waitingTime="79.00" waitingCount="1" stopTime="0.00" timeLoss="100.98" rerouteNo="0" devices="tripinfo_flow_route_84_duration_20250327_2050.9" vType="car" speedFactor="0.85" vaporized=""/>
    <tripinfo id="flow_route_81_duration_20250327_2050.10" depart="55.00" departLane="380344611#0_0" departPos="188.09" departSpeed="0.00" departDelay="0.46" arrival="180.00" arrivalLane="133000063_2" arrivalPos="155.78" arrivalSpeed="14.98" duration="125.00" routeLength="283.56" waitingTime="80.00" waitingCount="2" stopTime="0.00" timeLoss="105.38" rerouteNo="0" devices="tripinfo_flow_route_81_duration_20250327_2050.10" vType="car" speedFactor="0.90" vaporized=""/>
    <tripinfo id="flow_route_81_duration_20250327_2050.8" depart="44.00" departLane="380344611#0_0" departPos="28.79" departSpeed="0.00" departDelay="0.37" arrival="182.00" arrivalLane="133000063_2" arrivalPos="120.48" arrivalSpeed="14.58" duration="138.00" routeLength="407.56" waitingTime="78.00" waitingCount="2" stopTime="0.00" timeLoss="109.84" rerouteNo="0" devices="tripinfo_flow_route_81_duration_20250327_2050.8" vType="car" speedFactor="0.90" vaporized=""/>
    <tripinfo id="flow_route_81_duration_20250327_2050.9" depart="50.00" departLane="380344611#0_0" departPos="136.12" departSpeed="0.00" departDelay="0.91" arrival="182.00" arrivalLane="133000063_2" arrivalPos="151.92" arrivalSpeed="16.16" duration="132.00" routeLength="331.67" waitingTime="78.00" waitingCount="2" stopTime="0.00" timeLoss="111.07" rerouteNo="0" devices="tripinfo_flow_route_81_duration_20250327_2050.9" vType="car" speedFactor="1.02" vaporized=""/>
</tripinfos>
