<?xml version="1.0" encoding="UTF-8"?>

<!-- generated on 2025-05-06 21:09:08 by Eclipse SUMO sumo Version 1.20.0
<configuration xmlns:xsi="http://www.w3.org/2001/XMLSchema-instance" xsi:noNamespaceSchemaLocation="http://sumo.dlr.de/xsd/sumoConfiguration.xsd">

    <input>
        <net-file value="osm.net.xml"/>
        <route-files value="xml/route_static_cluster3839130731_cluster_11644940326_11644940327_11648561426_8.rou.xml"/>
    </input>

    <output>
        <tripinfo-output value="xml/tripinfo_static_cluster3839130731_cluster_11644940326_11644940327_11648561426_8.xml"/>
    </output>

    <traci_server>
        <remote-port value="46111"/>
    </traci_server>

</configuration>
-->

<tripinfos xmlns:xsi="http://www.w3.org/2001/XMLSchema-instance" xsi:noNamespaceSchemaLocation="http://sumo.dlr.de/xsd/tripinfo_file.xsd">
    <tripinfo id="flow_route_96_duration_without_traffic.0" depart="0.00" departLane="1341093416#0_0" departPos="184.53" departSpeed="0.00" departDelay="0.00" arrival="20.00" arrivalLane="1254519229#0_1" arrivalPos="3.62" arrivalSpeed="5.63" duration="20.00" routeLength="114.10" waitingTime="0.00" waitingCount="0" stopTime="0.00" timeLoss="11.88" rerouteNo="0" devices="tripinfo_flow_route_96_duration_without_traffic.0" vType="car" speedFactor="1.01" vaporized=""/>
    <tripinfo id="flow_route_123_duration_without_traffic.0" depart="0.00" departLane="189240000#0-AddedOnRampEdge_0" departPos="5.69" departSpeed="0.00" departDelay="0.00" arrival="22.00" arrivalLane="1254519229#0_0" arrivalPos="19.69" arrivalSpeed="11.80" duration="22.00" routeLength="156.33" waitingTime="0.00" waitingCount="0" stopTime="0.00" timeLoss="10.61" rerouteNo="0" devices="tripinfo_flow_route_123_duration_without_traffic.0" vType="car" speedFactor="0.89" vaporized=""/>
    <tripinfo id="flow_route_111_duration_without_traffic.0" depart="0.00" departLane="1253188486#8_0" departPos="138.93" departSpeed="0.00" departDelay="0.00" arrival="33.00" arrivalLane="1254519229#0_0" arrivalPos="3.47" arrivalSpeed="7.05" duration="33.00" routeLength="140.76" waitingTime="5.00" waitingCount="1" stopTime="0.00" timeLoss="24.24" rerouteNo="0" devices="tripinfo_flow_route_111_duration_without_traffic.0" vType="car" speedFactor="0.83" vaporized=""/>
    <tripinfo id="flow_route_124_duration_without_traffic.0" depart="0.00" departLane="189240000#0-AddedOnRampEdge_0" departPos="82.66" departSpeed="0.00" departDelay="0.00" arrival="35.00" arrivalLane="1254519225#0.109_3" arrivalPos="34.02" arrivalSpeed="15.36" duration="35.00" routeLength="196.39" waitingTime="3.00" waitingCount="1" stopTime="0.00" timeLoss="20.56" rerouteNo="0" devices="tripinfo_flow_route_124_duration_without_traffic.0" vType="car" speedFactor="0.94" vaporized=""/>
    <tripinfo id="flow_route_94_duration_without_traffic.0" depart="0.00" departLane="1341093416#0_0" departPos="204.30" departSpeed="0.00" departDelay="0.00" arrival="37.00" arrivalLane="799091563#0_0" arrivalPos="338.33" arrivalSpeed="16.37" duration="37.00" routeLength="440.38" waitingTime="0.00" waitingCount="0" stopTime="0.00" timeLoss="9.96" rerouteNo="0" devices="tripinfo_flow_route_94_duration_without_traffic.0" vType="car" speedFactor="1.06" vaporized=""/>
    <tripinfo id="flow_route_104_duration_without_traffic.0" depart="0.00" departLane="189240001_0" departPos="36.52" departSpeed="0.00" departDelay="0.00" arrival="43.00" arrivalLane="1254519225#0.109_0" arrivalPos="30.66" arrivalSpeed="14.72" duration="43.00" routeLength="198.30" waitingTime="11.00" waitingCount="1" stopTime="0.00" timeLoss="30.92" rerouteNo="0" devices="tripinfo_flow_route_104_duration_without_traffic.0" vType="car" speedFactor="1.08" vaporized=""/>
    <tripinfo id="flow_route_111_duration_without_traffic.1" depart="15.00" departLane="1253188486#8_0" departPos="11.33" departSpeed="0.00" departDelay="0.00" arrival="45.00" arrivalLane="1254519229#0_1" arrivalPos="54.39" arrivalSpeed="16.35" duration="30.00" routeLength="319.28" waitingTime="0.00" waitingCount="0" stopTime="0.00" timeLoss="10.70" rerouteNo="0" devices="tripinfo_flow_route_111_duration_without_traffic.1" vType="car" speedFactor="0.86" vaporized=""/>
    <tripinfo id="flow_route_112_duration_without_traffic.0" depart="0.00" departLane="1253188486#8_0" departPos="64.90" departSpeed="0.00" departDelay="0.00" arrival="50.00" arrivalLane="799091563#0_0" arrivalPos="282.23" arrivalSpeed="16.36" duration="50.00" routeLength="472.04" waitingTime="0.00" waitingCount="0" stopTime="0.00" timeLoss="20.36" rerouteNo="0" devices="tripinfo_flow_route_112_duration_without_traffic.0" vType="car" speedFactor="1.05" vaporized=""/>
    <tripinfo id="flow_route_111_duration_without_traffic.2" depart="30.00" departLane="1253188486#8_0" departPos="217.77" departSpeed="0.00" departDelay="0.00" arrival="51.00" arrivalLane="1254519229#0_0" arrivalPos="74.72" arrivalSpeed="13.62" duration="21.00" routeLength="133.17" waitingTime="0.00" waitingCount="0" stopTime="0.00" timeLoss="12.22" rerouteNo="0" devices="tripinfo_flow_route_111_duration_without_traffic.2" vType="car" speedFactor="1.05" vaporized=""/>
    <tripinfo id="flow_route_112_duration_without_traffic.1" depart="20.00" departLane="1253188486#8_0" departPos="75.33" departSpeed="0.00" departDelay="0.00" arrival="60.00" arrivalLane="799091563#0_0" arrivalPos="194.78" arrivalSpeed="16.55" duration="40.00" routeLength="374.16" waitingTime="0.00" waitingCount="0" stopTime="0.00" timeLoss="16.30" rerouteNo="0" devices="tripinfo_flow_route_112_duration_without_traffic.1" vType="car" speedFactor="1.09" vaporized=""/>
    <tripinfo id="flow_route_105_duration_without_traffic.0" depart="1.00" departLane="189240001_0" departPos="25.23" departSpeed="0.00" departDelay="1.00" arrival="69.00" arrivalLane="799091563#0_2" arrivalPos="224.02" arrivalSpeed="16.11" duration="68.00" routeLength="308.35" waitingTime="23.00" waitingCount="2" stopTime="0.00" timeLoss="49.36" rerouteNo="0" devices="tripinfo_flow_route_105_duration_without_traffic.0" vType="car" speedFactor="1.03" vaporized=""/>
    <tripinfo id="flow_route_95_duration_without_traffic.0" depart="0.00" departLane="1341093416#0_0" departPos="1.65" departSpeed="0.00" departDelay="0.00" arrival="74.00" arrivalLane="1254519225#0.109_0" arrivalPos="44.45" arrivalSpeed="15.36" duration="74.00" routeLength="425.17" waitingTime="24.00" waitingCount="1" stopTime="0.00" timeLoss="45.97" rerouteNo="0" devices="tripinfo_flow_route_95_duration_without_traffic.0" vType="car" speedFactor="0.94" vaporized=""/>
    <tripinfo id="flow_route_95_duration_without_traffic.1" depart="30.00" departLane="1341093416#0_0" departPos="226.02" departSpeed="0.00" departDelay="0.00" arrival="76.00" arrivalLane="1254519225#0.109_0" arrivalPos="39.52" arrivalSpeed="16.03" duration="46.00" routeLength="195.88" waitingTime="14.00" waitingCount="1" stopTime="0.00" timeLoss="32.51" rerouteNo="0" devices="tripinfo_flow_route_95_duration_without_traffic.1" vType="car" speedFactor="1.03" vaporized=""/>
    <tripinfo id="flow_route_111_duration_without_traffic.3" depart="45.00" departLane="1253188486#8_0" departPos="7.95" departSpeed="0.00" departDelay="0.00" arrival="90.00" arrivalLane="1254519229#0_0" arrivalPos="18.84" arrivalSpeed="8.73" duration="45.00" routeLength="287.10" waitingTime="6.00" waitingCount="1" stopTime="0.00" timeLoss="27.25" rerouteNo="0" devices="tripinfo_flow_route_111_duration_without_traffic.3" vType="car" speedFactor="0.99" vaporized=""/>
    <tripinfo id="flow_route_112_duration_without_traffic.2" depart="40.00" departLane="1253188486#8_0" departPos="133.54" departSpeed="0.00" departDelay="0.00" arrival="98.00" arrivalLane="799091563#0_0" arrivalPos="150.59" arrivalSpeed="15.41" duration="58.00" routeLength="271.76" waitingTime="20.00" waitingCount="1" stopTime="0.00" timeLoss="41.02" rerouteNo="0" devices="tripinfo_flow_route_112_duration_without_traffic.2" vType="car" speedFactor="1.12" vaporized=""/>
</tripinfos>
