<?xml version="1.0" encoding="UTF-8"?>

<!-- generated on 2025-05-06 21:09:07 by Eclipse SUMO sumo Version 1.20.0
<configuration xmlns:xsi="http://www.w3.org/2001/XMLSchema-instance" xsi:noNamespaceSchemaLocation="http://sumo.dlr.de/xsd/sumoConfiguration.xsd">

    <input>
        <net-file value="osm.net.xml"/>
        <route-files value="xml/route_static_cluster_2271368471_4779869278_8.rou.xml"/>
    </input>

    <output>
        <tripinfo-output value="xml/tripinfo_static_cluster_2271368471_4779869278_8.xml"/>
    </output>

    <traci_server>
        <remote-port value="52663"/>
    </traci_server>

</configuration>
-->

<tripinfos xmlns:xsi="http://www.w3.org/2001/XMLSchema-instance" xsi:noNamespaceSchemaLocation="http://sumo.dlr.de/xsd/tripinfo_file.xsd">
    <tripinfo id="flow_route_36_duration_20250327_2240.0" depart="0.00" departLane="485211947#0_0" departPos="162.24" departSpeed="0.00" departDelay="0.00" arrival="23.00" arrivalLane="137415945#0_0" arrivalPos="6.94" arrivalSpeed="15.19" duration="23.00" routeLength="189.23" waitingTime="0.00" waitingCount="0" stopTime="0.00" timeLoss="10.24" rerouteNo="0" devices="tripinfo_flow_route_36_duration_20250327_2240.0" vType="car" speedFactor="0.94" vaporized=""/>
    <tripinfo id="flow_route_37_duration_20250327_2240.1" depart="12.00" departLane="485211947#0_0" departPos="178.72" departSpeed="0.00" departDelay="0.00" arrival="28.00" arrivalLane="-430406005#1_1" arrivalPos="59.17" arrivalSpeed="11.27" duration="16.00" routeLength="93.43" waitingTime="0.00" waitingCount="0" stopTime="0.00" timeLoss="9.09" rerouteNo="0" devices="tripinfo_flow_route_37_duration_20250327_2240.1" vType="car" speedFactor="0.99" vaporized=""/>
    <tripinfo id="flow_route_37_duration_20250327_2240.0" depart="0.00" departLane="485211947#0_0" departPos="59.66" departSpeed="0.00" departDelay="0.00" arrival="35.00" arrivalLane="-430406005#1_1" arrivalPos="133.07" arrivalSpeed="15.34" duration="35.00" routeLength="286.39" waitingTime="0.00" waitingCount="0" stopTime="0.00" timeLoss="14.86" rerouteNo="0" devices="tripinfo_flow_route_37_duration_20250327_2240.0" vType="car" speedFactor="0.86" vaporized=""/>
    <tripinfo id="flow_route_36_duration_20250327_2240.1" depart="12.00" departLane="485211947#0_0" departPos="76.22" departSpeed="0.00" departDelay="0.00" arrival="42.00" arrivalLane="137415945#0_1" arrivalPos="8.72" arrivalSpeed="16.38" duration="30.00" routeLength="277.03" waitingTime="0.00" waitingCount="0" stopTime="0.00" timeLoss="12.60" rerouteNo="0" devices="tripinfo_flow_route_36_duration_20250327_2240.1" vType="car" speedFactor="1.12" vaporized=""/>
    <tripinfo id="flow_route_35_duration_20250327_2240.0" depart="0.00" departLane="485211947#0_0" departPos="11.17" departSpeed="0.00" departDelay="0.00" arrival="45.00" arrivalLane="1369578054_0" arrivalPos="74.16" arrivalSpeed="12.47" duration="45.00" routeLength="260.46" waitingTime="0.00" waitingCount="0" stopTime="0.00" timeLoss="26.07" rerouteNo="0" devices="tripinfo_flow_route_35_duration_20250327_2240.0" vType="car" speedFactor="0.89" vaporized=""/>
    <tripinfo id="flow_route_36_duration_20250327_2240.2" depart="25.00" departLane="485211947#0_0" departPos="183.86" departSpeed="0.00" departDelay="1.00" arrival="45.00" arrivalLane="137415945#0_0" arrivalPos="0.35" arrivalSpeed="15.80" duration="20.00" routeLength="161.03" waitingTime="0.00" waitingCount="0" stopTime="0.00" timeLoss="9.54" rerouteNo="0" devices="tripinfo_flow_route_36_duration_20250327_2240.2" vType="car" speedFactor="0.97" vaporized=""/>
    <tripinfo id="flow_route_35_duration_20250327_2240.1" depart="8.00" departLane="485211947#0_0" departPos="55.91" departSpeed="0.00" departDelay="0.50" arrival="49.00" arrivalLane="1369578054_0" arrivalPos="163.10" arrivalSpeed="15.61" duration="41.00" routeLength="304.64" waitingTime="0.00" waitingCount="0" stopTime="0.00" timeLoss="21.70" rerouteNo="0" devices="tripinfo_flow_route_35_duration_20250327_2240.1" vType="car" speedFactor="1.03" vaporized=""/>
    <tripinfo id="flow_route_35_duration_20250327_2240.2" depart="15.00" departLane="485211947#0_0" departPos="110.47" departSpeed="0.00" departDelay="0.00" arrival="53.00" arrivalLane="1369578054_0" arrivalPos="243.22" arrivalSpeed="15.40" duration="38.00" routeLength="330.20" waitingTime="0.00" waitingCount="0" stopTime="0.00" timeLoss="15.49" rerouteNo="0" devices="tripinfo_flow_route_35_duration_20250327_2240.2" vType="car" speedFactor="0.94" vaporized=""/>
    <tripinfo id="flow_route_30_duration_20250327_2240.1" depart="33.00" departLane="1235147073.116_0" departPos="14.96" departSpeed="0.00" departDelay="3.00" arrival="53.00" arrivalLane="133126030#0_1" arrivalPos="14.82" arrivalSpeed="15.57" duration="20.00" routeLength="174.39" waitingTime="0.00" waitingCount="0" stopTime="0.00" timeLoss="8.71" rerouteNo="0" devices="tripinfo_flow_route_30_duration_20250327_2240.1" vType="car" speedFactor="0.95" vaporized=""/>
    <tripinfo id="flow_route_30_duration_20250327_2240.0" depart="0.00" departLane="1235147073.116_0" departPos="7.14" departSpeed="0.00" departDelay="0.00" arrival="56.00" arrivalLane="133126030#0_0" arrivalPos="8.43" arrivalSpeed="6.97" duration="56.00" routeLength="175.81" waitingTime="26.00" waitingCount="1" stopTime="0.00" timeLoss="45.39" rerouteNo="0" devices="tripinfo_flow_route_30_duration_20250327_2240.0" vType="car" speedFactor="1.01" vaporized=""/>
    <tripinfo id="flow_route_31_duration_20250327_2240.1" depart="16.00" departLane="1235147073.116_0" departPos="10.59" departSpeed="0.00" departDelay="4.00" arrival="59.00" arrivalLane="-430406005#1_0" arrivalPos="5.33" arrivalSpeed="6.78" duration="43.00" routeLength="157.70" waitingTime="11.00" waitingCount="1" stopTime="0.00" timeLoss="32.76" rerouteNo="0" devices="tripinfo_flow_route_31_duration_20250327_2240.1" vType="car" speedFactor="1.05" vaporized=""/>
    <tripinfo id="flow_route_31_duration_20250327_2240.2" depart="25.00" departLane="1235147073.116_0" departPos="2.74" departSpeed="0.00" departDelay="1.00" arrival="64.00" arrivalLane="-430406005#1_0" arrivalPos="27.12" arrivalSpeed="9.12" duration="39.00" routeLength="187.34" waitingTime="4.00" waitingCount="1" stopTime="0.00" timeLoss="26.95" rerouteNo="0" devices="tripinfo_flow_route_31_duration_20250327_2240.2" vType="car" speedFactor="1.01" vaporized=""/>
    <tripinfo id="flow_route_31_duration_20250327_2240.0" depart="2.00" departLane="1235147073.116_0" departPos="0.71" departSpeed="0.00" departDelay="2.00" arrival="65.00" arrivalLane="-430406005#1_0" arrivalPos="87.77" arrivalSpeed="12.46" duration="63.00" routeLength="250.02" waitingTime="24.00" waitingCount="1" stopTime="0.00" timeLoss="47.15" rerouteNo="0" devices="tripinfo_flow_route_31_duration_20250327_2240.0" vType="car" speedFactor="1.08" vaporized=""/>
    <tripinfo id="flow_route_32_duration_20250327_2240.2" depart="18.00" departLane="1235147073.116_0" departPos="4.71" departSpeed="0.00" departDelay="4.67" arrival="66.00" arrivalLane="1369578054_1" arrivalPos="66.86" arrivalSpeed="12.41" duration="48.00" routeLength="241.88" waitingTime="10.00" waitingCount="1" stopTime="0.00" timeLoss="30.97" rerouteNo="0" devices="tripinfo_flow_route_32_duration_20250327_2240.2" vType="car" speedFactor="0.93" vaporized=""/>
    <tripinfo id="flow_route_31_duration_20250327_2240.3" depart="37.00" departLane="1235147073.116_0" departPos="6.51" departSpeed="0.00" departDelay="1.00" arrival="66.00" arrivalLane="-430406005#1_0" arrivalPos="18.70" arrivalSpeed="9.49" duration="29.00" routeLength="175.15" waitingTime="0.00" waitingCount="0" stopTime="0.00" timeLoss="17.17" rerouteNo="0" devices="tripinfo_flow_route_31_duration_20250327_2240.3" vType="car" speedFactor="1.01" vaporized=""/>
    <tripinfo id="flow_route_32_duration_20250327_2240.5" depart="34.00" departLane="1235147073.116_0" departPos="4.63" departSpeed="0.00" departDelay="0.67" arrival="68.00" arrivalLane="1369578054_1" arrivalPos="7.15" arrivalSpeed="9.45" duration="34.00" routeLength="182.24" waitingTime="0.00" waitingCount="0" stopTime="0.00" timeLoss="22.21" rerouteNo="0" devices="tripinfo_flow_route_32_duration_20250327_2240.5" vType="car" speedFactor="1.15" vaporized=""/>
    <tripinfo id="flow_route_32_duration_20250327_2240.0" depart="8.00" departLane="1235147073.116_0" departPos="3.62" departSpeed="0.00" departDelay="8.00" arrival="69.00" arrivalLane="1369578054_1" arrivalPos="176.77" arrivalSpeed="16.27" duration="61.00" routeLength="352.88" waitingTime="18.00" waitingCount="1" stopTime="0.00" timeLoss="39.01" rerouteNo="0" devices="tripinfo_flow_route_32_duration_20250327_2240.0" vType="car" speedFactor="1.03" vaporized=""/>
    <tripinfo id="flow_route_32_duration_20250327_2240.4" depart="30.00" departLane="1235147073.116_0" departPos="3.25" departSpeed="0.00" departDelay="3.34" arrival="73.00" arrivalLane="1369578054_1" arrivalPos="101.58" arrivalSpeed="13.32" duration="43.00" routeLength="278.06" waitingTime="1.00" waitingCount="1" stopTime="0.00" timeLoss="21.71" rerouteNo="0" devices="tripinfo_flow_route_32_duration_20250327_2240.4" vType="car" speedFactor="0.83" vaporized=""/>
    <tripinfo id="flow_route_32_duration_20250327_2240.3" depart="22.00" departLane="1235147073.116_0" departPos="14.62" departSpeed="0.00" departDelay="2.00" arrival="74.00" arrivalLane="1369578054_1" arrivalPos="147.59" arrivalSpeed="16.35" duration="52.00" routeLength="312.70" waitingTime="5.00" waitingCount="1" stopTime="0.00" timeLoss="32.12" rerouteNo="0" devices="tripinfo_flow_route_32_duration_20250327_2240.3" vType="car" speedFactor="1.16" vaporized=""/>
    <tripinfo id="flow_route_32_duration_20250327_2240.7" depart="47.00" departLane="1235147073.116_0" departPos="13.50" departSpeed="0.00" departDelay="0.34" arrival="76.00" arrivalLane="1369578054_1" arrivalPos="42.30" arrivalSpeed="12.34" duration="29.00" routeLength="208.52" waitingTime="0.00" waitingCount="0" stopTime="0.00" timeLoss="15.23" rerouteNo="0" devices="tripinfo_flow_route_32_duration_20250327_2240.7" vType="car" speedFactor="1.03" vaporized=""/>
    <tripinfo id="flow_route_32_duration_20250327_2240.1" depart="12.00" departLane="1235147073.116_0" departPos="1.98" departSpeed="0.00" departDelay="5.33" arrival="77.00" arrivalLane="1369578054_1" arrivalPos="265.97" arrivalSpeed="16.38" duration="65.00" routeLength="443.72" waitingTime="15.00" waitingCount="1" stopTime="0.00" timeLoss="37.51" rerouteNo="0" devices="tripinfo_flow_route_32_duration_20250327_2240.1" vType="car" speedFactor="1.09" vaporized=""/>
    <tripinfo id="flow_route_31_duration_20250327_2240.4" depart="48.00" departLane="1235147073.116_0" departPos="5.98" departSpeed="0.00" departDelay="0.00" arrival="77.00" arrivalLane="-430406005#1_0" arrivalPos="66.37" arrivalSpeed="12.35" duration="29.00" routeLength="223.35" waitingTime="0.00" waitingCount="0" stopTime="0.00" timeLoss="13.71" rerouteNo="0" devices="tripinfo_flow_route_31_duration_20250327_2240.4" vType="car" speedFactor="0.96" vaporized=""/>
    <tripinfo id="flow_route_32_duration_20250327_2240.6" depart="42.00" departLane="1235147073.116_0" departPos="1.55" departSpeed="0.00" departDelay="2.00" arrival="80.00" arrivalLane="1369578054_1" arrivalPos="123.18" arrivalSpeed="15.77" duration="38.00" routeLength="301.35" waitingTime="0.00" waitingCount="0" stopTime="0.00" timeLoss="18.00" rerouteNo="0" devices="tripinfo_flow_route_32_duration_20250327_2240.6" vType="car" speedFactor="0.97" vaporized=""/>
    <tripinfo id="flow_route_32_duration_20250327_2240.8" depart="54.00" departLane="1235147073.116_0" departPos="4.25" departSpeed="0.00" departDelay="0.67" arrival="90.00" arrivalLane="1369578054_1" arrivalPos="176.52" arrivalSpeed="16.14" duration="36.00" routeLength="352.00" waitingTime="0.00" waitingCount="0" stopTime="0.00" timeLoss="14.15" rerouteNo="0" devices="tripinfo_flow_route_32_duration_20250327_2240.8" vType="car" speedFactor="1.09" vaporized=""/>
    <tripinfo id="flow_route_33_duration_20250327_2240.0" depart="0.00" departLane="133126008#0_0" departPos="101.07" departSpeed="0.00" departDelay="0.00" arrival="103.00" arrivalLane="1369578054_0" arrivalPos="13.07" arrivalSpeed="8.18" duration="103.00" routeLength="125.36" waitingTime="76.00" waitingCount="1" stopTime="0.00" timeLoss="95.14" rerouteNo="0" devices="tripinfo_flow_route_33_duration_20250327_2240.0" vType="car" speedFactor="0.83" vaporized=""/>
    <tripinfo id="flow_route_28_duration_20250327_2240.2" depart="30.00" departLane="-422986370#2_0" departPos="203.30" departSpeed="0.00" departDelay="0.00" arrival="109.00" arrivalLane="-430406005#1_0" arrivalPos="32.26" arrivalSpeed="10.81" duration="79.00" routeLength="163.40" waitingTime="48.00" waitingCount="1" stopTime="0.00" timeLoss="68.13" rerouteNo="0" devices="tripinfo_flow_route_28_duration_20250327_2240.2" vType="car" speedFactor="0.87" vaporized=""/>
    <tripinfo id="flow_route_34_duration_20250327_2240.1" depart="30.00" departLane="133126008#0_0" departPos="91.53" departSpeed="0.00" departDelay="0.00" arrival="111.00" arrivalLane="133126030#0_0" arrivalPos="65.19" arrivalSpeed="11.73" duration="81.00" routeLength="161.19" waitingTime="48.00" waitingCount="1" stopTime="0.00" timeLoss="69.08" rerouteNo="0" devices="tripinfo_flow_route_34_duration_20250327_2240.1" vType="car" speedFactor="0.93" vaporized=""/>
    <tripinfo id="flow_route_29_duration_20250327_2240.0" depart="0.00" departLane="-422986370#2_0" departPos="201.60" departSpeed="0.00" departDelay="0.00" arrival="112.00" arrivalLane="137415945#0_0" arrivalPos="9.07" arrivalSpeed="14.52" duration="112.00" routeLength="253.29" waitingTime="73.00" waitingCount="1" stopTime="0.00" timeLoss="95.00" rerouteNo="0" devices="tripinfo_flow_route_29_duration_20250327_2240.0" vType="car" speedFactor="0.94" vaporized=""/>
    <tripinfo id="flow_route_34_duration_20250327_2240.0" depart="0.00" departLane="133126008#0_0" departPos="47.21" departSpeed="0.00" departDelay="0.00" arrival="113.00" arrivalLane="133126030#0_0" arrivalPos="137.72" arrivalSpeed="15.17" duration="113.00" routeLength="278.03" waitingTime="73.00" waitingCount="1" stopTime="0.00" timeLoss="94.95" rerouteNo="0" devices="tripinfo_flow_route_34_duration_20250327_2240.0" vType="car" speedFactor="1.05" vaporized=""/>
    <tripinfo id="flow_route_28_duration_20250327_2240.1" depart="15.00" departLane="-422986370#2_0" departPos="200.14" departSpeed="0.00" departDelay="0.00" arrival="113.00" arrivalLane="-430406005#1_1" arrivalPos="102.08" arrivalSpeed="14.22" duration="98.00" routeLength="236.38" waitingTime="59.00" waitingCount="1" stopTime="0.00" timeLoss="82.77" rerouteNo="0" devices="tripinfo_flow_route_28_duration_20250327_2240.1" vType="car" speedFactor="0.88" vaporized=""/>
    <tripinfo id="flow_route_29_duration_20250327_2240.1" depart="15.00" departLane="-422986370#2_0" departPos="214.35" departSpeed="0.00" departDelay="0.00" arrival="114.00" arrivalLane="137415945#0_0" arrivalPos="3.07" arrivalSpeed="15.10" duration="99.00" routeLength="234.55" waitingTime="63.00" waitingCount="1" stopTime="0.00" timeLoss="83.11" rerouteNo="0" devices="tripinfo_flow_route_29_duration_20250327_2240.1" vType="car" speedFactor="0.94" vaporized=""/>
    <tripinfo id="flow_route_28_duration_20250327_2240.3" depart="45.00" departLane="-422986370#2_0" departPos="84.24" departSpeed="0.00" departDelay="0.00" arrival="114.00" arrivalLane="-430406005#1_1" arrivalPos="83.28" arrivalSpeed="14.30" duration="69.00" routeLength="333.48" waitingTime="24.00" waitingCount="1" stopTime="0.00" timeLoss="48.07" rerouteNo="0" devices="tripinfo_flow_route_28_duration_20250327_2240.3" vType="car" speedFactor="1.18" vaporized=""/>
    <tripinfo id="flow_route_28_duration_20250327_2240.0" depart="0.00" departLane="-422986370#2_0" departPos="1.81" departSpeed="0.00" departDelay="0.00" arrival="115.00" arrivalLane="-430406005#1_1" arrivalPos="159.13" arrivalSpeed="16.56" duration="115.00" routeLength="491.75" waitingTime="61.00" waitingCount="1" stopTime="0.00" timeLoss="84.83" rerouteNo="0" devices="tripinfo_flow_route_28_duration_20250327_2240.0" vType="car" speedFactor="1.06" vaporized=""/>
    <tripinfo id="flow_route_29_duration_20250327_2240.2" depart="30.00" departLane="-422986370#2_0" departPos="126.78" departSpeed="0.00" departDelay="0.00" arrival="118.00" arrivalLane="137415945#0_0" arrivalPos="0.60" arrivalSpeed="15.15" duration="88.00" routeLength="319.64" waitingTime="44.00" waitingCount="1" stopTime="0.00" timeLoss="65.91" rerouteNo="0" devices="tripinfo_flow_route_29_duration_20250327_2240.2" vType="car" speedFactor="0.92" vaporized=""/>
    <tripinfo id="flow_route_33_duration_20250327_2240.1" depart="30.00" departLane="133126008#0_0" departPos="69.56" departSpeed="0.00" departDelay="0.00" arrival="119.00" arrivalLane="1369578054_0" arrivalPos="216.30" arrivalSpeed="16.31" duration="89.00" routeLength="360.10" waitingTime="44.00" waitingCount="1" stopTime="0.00" timeLoss="66.38" rerouteNo="0" devices="tripinfo_flow_route_33_duration_20250327_2240.1" vType="car" speedFactor="1.13" vaporized=""/>
    <tripinfo id="flow_route_29_duration_20250327_2240.3" depart="46.00" departLane="-422986370#2_0" departPos="213.66" departSpeed="0.00" departDelay="1.00" arrival="121.00" arrivalLane="137415945#0_0" arrivalPos="8.42" arrivalSpeed="16.60" duration="75.00" routeLength="240.58" waitingTime="37.00" waitingCount="1" stopTime="0.00" timeLoss="58.49" rerouteNo="0" devices="tripinfo_flow_route_29_duration_20250327_2240.3" vType="car" speedFactor="1.10" vaporized=""/>
    <tripinfo id="flow_route_37_duration_20250327_2240.2" depart="25.00" departLane="485211947#0_0" departPos="58.16" departSpeed="0.00" departDelay="1.00" arrival="142.00" arrivalLane="-430406005#1_1" arrivalPos="49.80" arrivalSpeed="10.82" duration="117.00" routeLength="204.62" waitingTime="84.00" waitingCount="1" stopTime="0.00" timeLoss="102.17" rerouteNo="0" devices="tripinfo_flow_route_37_duration_20250327_2240.2" vType="car" speedFactor="0.89" vaporized=""/>
    <tripinfo id="flow_route_35_duration_20250327_2240.3" depart="25.00" departLane="485211947#0_0" departPos="12.41" departSpeed="0.00" departDelay="2.50" arrival="145.00" arrivalLane="1369578054_0" arrivalPos="54.94" arrivalSpeed="11.03" duration="120.00" routeLength="239.99" waitingTime="76.00" waitingCount="1" stopTime="0.00" timeLoss="104.86" rerouteNo="0" devices="tripinfo_flow_route_35_duration_20250327_2240.3" vType="car" speedFactor="1.02" vaporized=""/>
    <tripinfo id="flow_route_37_duration_20250327_2240.4" depart="52.00" departLane="485211947#0_0" departPos="63.84" departSpeed="0.00" departDelay="4.00" arrival="145.00" arrivalLane="-430406005#1_1" arrivalPos="7.61" arrivalSpeed="8.33" duration="93.00" routeLength="156.74" waitingTime="62.00" waitingCount="1" stopTime="0.00" timeLoss="82.19" rerouteNo="0" devices="tripinfo_flow_route_37_duration_20250327_2240.4" vType="car" speedFactor="1.04" vaporized=""/>
    <tripinfo id="flow_route_35_duration_20250327_2240.4" depart="31.00" departLane="485211947#0_0" departPos="77.30" departSpeed="0.00" departDelay="1.00" arrival="146.00" arrivalLane="1369578054_0" arrivalPos="86.91" arrivalSpeed="13.64" duration="115.00" routeLength="207.07" waitingTime="76.00" waitingCount="1" stopTime="0.00" timeLoss="101.35" rerouteNo="0" devices="tripinfo_flow_route_35_duration_20250327_2240.4" vType="car" speedFactor="1.18" vaporized=""/>
    <tripinfo id="flow_route_36_duration_20250327_2240.3" depart="37.00" departLane="485211947#0_0" departPos="131.69" departSpeed="0.00" departDelay="1.00" arrival="150.00" arrivalLane="137415945#0_0" arrivalPos="11.15" arrivalSpeed="16.23" duration="113.00" routeLength="223.98" waitingTime="78.00" waitingCount="1" stopTime="0.00" timeLoss="98.93" rerouteNo="0" devices="tripinfo_flow_route_36_duration_20250327_2240.3" vType="car" speedFactor="1.17" vaporized=""/>
    <tripinfo id="flow_route_37_duration_20250327_2240.3" depart="39.00" departLane="485211947#0_0" departPos="180.01" departSpeed="0.00" departDelay="3.00" arrival="152.00" arrivalLane="-430406005#1_1" arrivalPos="111.66" arrivalSpeed="14.30" duration="113.00" routeLength="144.63" waitingTime="89.00" waitingCount="1" stopTime="0.00" timeLoss="102.97" rerouteNo="0" devices="tripinfo_flow_route_37_duration_20250327_2240.3" vType="car" speedFactor="0.99" vaporized=""/>
    <tripinfo id="flow_route_36_duration_20250327_2240.4" depart="48.00" departLane="485211947#0_0" departPos="125.13" departSpeed="0.00" departDelay="0.00" arrival="154.00" arrivalLane="137415945#0_1" arrivalPos="6.11" arrivalSpeed="16.30" duration="106.00" routeLength="225.51" waitingTime="71.00" waitingCount="1" stopTime="0.00" timeLoss="91.57" rerouteNo="0" devices="tripinfo_flow_route_36_duration_20250327_2240.4" vType="car" speedFactor="1.09" vaporized=""/>
    <tripinfo id="flow_route_35_duration_20250327_2240.7" depart="53.00" departLane="485211947#0_0" departPos="79.83" departSpeed="0.00" departDelay="0.50" arrival="159.00" arrivalLane="1369578054_0" arrivalPos="198.75" arrivalSpeed="16.24" duration="106.00" routeLength="316.38" waitingTime="63.00" waitingCount="1" stopTime="0.00" timeLoss="85.34" rerouteNo="0" devices="tripinfo_flow_route_35_duration_20250327_2240.7" vType="car" speedFactor="1.04" vaporized=""/>
    <tripinfo id="flow_route_35_duration_20250327_2240.5" depart="39.00" departLane="485211947#0_0" departPos="54.91" departSpeed="0.00" departDelay="1.50" arrival="161.00" arrivalLane="1369578054_0" arrivalPos="261.83" arrivalSpeed="16.36" duration="122.00" routeLength="404.39" waitingTime="73.00" waitingCount="1" stopTime="0.00" timeLoss="96.37" rerouteNo="0" devices="tripinfo_flow_route_35_duration_20250327_2240.5" vType="car" speedFactor="1.02" vaporized=""/>
    <tripinfo id="flow_route_35_duration_20250327_2240.6" depart="45.00" departLane="485211947#0_0" departPos="23.03" departSpeed="0.00" departDelay="0.00" arrival="166.00" arrivalLane="1369578054_0" arrivalPos="234.02" arrivalSpeed="14.94" duration="121.00" routeLength="408.45" waitingTime="63.00" waitingCount="1" stopTime="0.00" timeLoss="92.13" rerouteNo="0" devices="tripinfo_flow_route_35_duration_20250327_2240.6" vType="car" speedFactor="0.90" vaporized=""/>
</tripinfos>
