<?xml version="1.0" encoding="UTF-8"?>

<!-- generated on 2025-05-06 21:07:45 by Eclipse SUMO sumo Version 1.20.0
<configuration xmlns:xsi="http://www.w3.org/2001/XMLSchema-instance" xsi:noNamespaceSchemaLocation="http://sumo.dlr.de/xsd/sumoConfiguration.xsd">

    <input>
        <net-file value="osm.net.xml"/>
        <route-files value="xml/route_static_cluster_4110471701_632031939_0.rou.xml"/>
    </input>

    <output>
        <tripinfo-output value="xml/tripinfo_static_cluster_4110471701_632031939_0.xml"/>
    </output>

    <traci_server>
        <remote-port value="45425"/>
    </traci_server>

</configuration>
-->

<tripinfos xmlns:xsi="http://www.w3.org/2001/XMLSchema-instance" xsi:noNamespaceSchemaLocation="http://sumo.dlr.de/xsd/tripinfo_file.xsd">
    <tripinfo id="flow_route_83_duration_20250327_2020.0" depart="0.00" departLane="423956929_0" departPos="101.16" departSpeed="0.00" departDelay="0.00" arrival="17.00" arrivalLane="186407685_0" arrivalPos="8.05" arrivalSpeed="6.86" duration="17.00" routeLength="101.45" waitingTime="0.00" waitingCount="0" stopTime="0.00" timeLoss="10.18" rerouteNo="0" devices="tripinfo_flow_route_83_duration_20250327_2020.0" vType="car" speedFactor="1.01" vaporized=""/>
    <tripinfo id="flow_route_62_duration_20250327_2020.0" depart="0.00" departLane="409155823_0" departPos="65.43" departSpeed="0.00" departDelay="0.00" arrival="23.00" arrivalLane="1091883842_0" arrivalPos="165.47" arrivalSpeed="16.20" duration="23.00" routeLength="205.45" waitingTime="0.00" waitingCount="0" stopTime="0.00" timeLoss="10.51" rerouteNo="0" devices="tripinfo_flow_route_62_duration_20250327_2020.0" vType="car" speedFactor="1.06" vaporized=""/>
    <tripinfo id="flow_route_82_duration_20250327_2020.0" depart="0.00" departLane="423956929_0" departPos="45.92" departSpeed="0.00" departDelay="0.00" arrival="24.00" arrivalLane="186407684#0_0" arrivalPos="62.79" arrivalSpeed="15.18" duration="24.00" routeLength="219.95" waitingTime="0.00" waitingCount="0" stopTime="0.00" timeLoss="8.99" rerouteNo="0" devices="tripinfo_flow_route_82_duration_20250327_2020.0" vType="car" speedFactor="0.94" vaporized=""/>
    <tripinfo id="flow_route_62_duration_20250327_2020.1" depart="10.00" departLane="409155823_0" departPos="4.07" departSpeed="0.00" departDelay="0.00" arrival="32.00" arrivalLane="1091883842_0" arrivalPos="59.79" arrivalSpeed="13.85" duration="22.00" routeLength="161.14" waitingTime="0.00" waitingCount="0" stopTime="0.00" timeLoss="9.76" rerouteNo="0" devices="tripinfo_flow_route_62_duration_20250327_2020.1" vType="car" speedFactor="0.86" vaporized=""/>
    <tripinfo id="flow_route_87_duration_20250327_2020.1" depart="12.00" departLane="430416184_0" departPos="271.56" departSpeed="0.00" departDelay="2.00" arrival="33.00" arrivalLane="1091883842_0" arrivalPos="126.95" arrivalSpeed="14.93" duration="21.00" routeLength="155.84" waitingTime="0.00" waitingCount="0" stopTime="0.00" timeLoss="10.39" rerouteNo="0" devices="tripinfo_flow_route_87_duration_20250327_2020.1" vType="car" speedFactor="1.09" vaporized=""/>
    <tripinfo id="flow_route_86_duration_20250327_2020.1" depart="9.00" departLane="430416184_0" departPos="253.21" departSpeed="0.00" departDelay="0.43" arrival="43.00" arrivalLane="186407685_1" arrivalPos="10.67" arrivalSpeed="8.25" duration="34.00" routeLength="81.34" waitingTime="13.00" waitingCount="1" stopTime="0.00" timeLoss="29.04" rerouteNo="0" devices="tripinfo_flow_route_86_duration_20250327_2020.1" vType="car" speedFactor="0.94" vaporized=""/>
    <tripinfo id="flow_route_88_duration_20250327_2020.0" depart="0.00" departLane="430416184_0" departPos="194.63" departSpeed="0.00" departDelay="0.00" arrival="44.00" arrivalLane="186407684#0_1" arrivalPos="3.84" arrivalSpeed="8.43" duration="44.00" routeLength="126.85" waitingTime="13.00" waitingCount="1" stopTime="0.00" timeLoss="34.56" rerouteNo="0" devices="tripinfo_flow_route_88_duration_20250327_2020.0" vType="car" speedFactor="0.83" vaporized=""/>
    <tripinfo id="flow_route_86_duration_20250327_2020.0" depart="0.00" departLane="430416184_0" departPos="215.48" departSpeed="0.00" departDelay="0.00" arrival="47.00" arrivalLane="186407685_1" arrivalPos="87.02" arrivalSpeed="13.85" duration="47.00" routeLength="195.42" waitingTime="14.00" waitingCount="1" stopTime="0.00" timeLoss="35.09" rerouteNo="0" devices="tripinfo_flow_route_86_duration_20250327_2020.0" vType="car" speedFactor="1.08" vaporized=""/>
    <tripinfo id="flow_route_87_duration_20250327_2020.3" depart="30.00" departLane="430416184_0" departPos="277.61" departSpeed="0.00" departDelay="0.00" arrival="50.00" arrivalLane="1091883842_0" arrivalPos="124.08" arrivalSpeed="14.35" duration="20.00" routeLength="146.92" waitingTime="0.00" waitingCount="0" stopTime="0.00" timeLoss="8.18" rerouteNo="0" devices="tripinfo_flow_route_87_duration_20250327_2020.3" vType="car" speedFactor="0.89" vaporized=""/>
    <tripinfo id="flow_route_88_duration_20250327_2020.1" depart="4.00" departLane="430416184_0" departPos="130.75" departSpeed="0.00" departDelay="0.25" arrival="51.00" arrivalLane="186407684#0_1" arrivalPos="41.08" arrivalSpeed="12.03" duration="47.00" routeLength="227.97" waitingTime="10.00" waitingCount="1" stopTime="0.00" timeLoss="32.40" rerouteNo="0" devices="tripinfo_flow_route_88_duration_20250327_2020.1" vType="car" speedFactor="1.05" vaporized=""/>
    <tripinfo id="flow_route_88_duration_20250327_2020.3" depart="12.00" departLane="430416184_0" departPos="238.38" departSpeed="0.00" departDelay="0.75" arrival="51.00" arrivalLane="186407684#0_1" arrivalPos="55.83" arrivalSpeed="13.31" duration="39.00" routeLength="135.08" waitingTime="10.00" waitingCount="1" stopTime="0.00" timeLoss="29.50" rerouteNo="0" devices="tripinfo_flow_route_88_duration_20250327_2020.3" vType="car" speedFactor="1.03" vaporized=""/>
    <tripinfo id="flow_route_87_duration_20250327_2020.0" depart="0.00" departLane="430416184_0" departPos="1.75" departSpeed="0.00" departDelay="0.00" arrival="53.00" arrivalLane="1091883842_0" arrivalPos="109.56" arrivalSpeed="14.60" duration="53.00" routeLength="408.27" waitingTime="0.00" waitingCount="0" stopTime="0.00" timeLoss="26.87" rerouteNo="0" devices="tripinfo_flow_route_87_duration_20250327_2020.0" vType="car" speedFactor="1.03" vaporized=""/>
    <tripinfo id="flow_route_88_duration_20250327_2020.2" depart="8.00" departLane="430416184_0" departPos="76.50" departSpeed="0.00" departDelay="0.50" arrival="54.00" arrivalLane="186407684#0_1" arrivalPos="49.91" arrivalSpeed="12.06" duration="46.00" routeLength="291.04" waitingTime="3.00" waitingCount="1" stopTime="0.00" timeLoss="26.89" rerouteNo="0" devices="tripinfo_flow_route_88_duration_20250327_2020.2" vType="car" speedFactor="0.89" vaporized=""/>
    <tripinfo id="flow_route_88_duration_20250327_2020.5" depart="19.00" departLane="430416184_0" departPos="87.27" departSpeed="0.00" departDelay="0.25" arrival="55.00" arrivalLane="186407684#0_1" arrivalPos="2.86" arrivalSpeed="11.14" duration="36.00" routeLength="233.22" waitingTime="0.00" waitingCount="0" stopTime="0.00" timeLoss="20.48" rerouteNo="0" devices="tripinfo_flow_route_88_duration_20250327_2020.5" vType="car" speedFactor="0.99" vaporized=""/>
    <tripinfo id="flow_route_88_duration_20250327_2020.4" depart="15.00" departLane="430416184_0" departPos="114.69" departSpeed="0.00" departDelay="0.00" arrival="58.00" arrivalLane="186407684#0_1" arrivalPos="78.23" arrivalSpeed="14.72" duration="43.00" routeLength="281.17" waitingTime="0.00" waitingCount="0" stopTime="0.00" timeLoss="25.17" rerouteNo="0" devices="tripinfo_flow_route_88_duration_20250327_2020.4" vType="car" speedFactor="1.05" vaporized=""/>
    <tripinfo id="flow_route_88_duration_20250327_2020.7" depart="30.00" departLane="430416184_0" departPos="172.42" departSpeed="0.00" departDelay="3.75" arrival="58.00" arrivalLane="186407684#0_1" arrivalPos="19.66" arrivalSpeed="11.30" duration="28.00" routeLength="164.87" waitingTime="0.00" waitingCount="0" stopTime="0.00" timeLoss="17.06" rerouteNo="0" devices="tripinfo_flow_route_88_duration_20250327_2020.7" vType="car" speedFactor="1.02" vaporized=""/>
    <tripinfo id="flow_route_88_duration_20250327_2020.6" depart="23.00" departLane="430416184_0" departPos="118.96" departSpeed="0.00" departDelay="0.50" arrival="60.00" arrivalLane="186407684#0_1" arrivalPos="11.05" arrivalSpeed="10.89" duration="37.00" routeLength="209.72" waitingTime="0.00" waitingCount="0" stopTime="0.00" timeLoss="22.60" rerouteNo="0" devices="tripinfo_flow_route_88_duration_20250327_2020.6" vType="car" speedFactor="0.94" vaporized=""/>
    <tripinfo id="flow_route_88_duration_20250327_2020.12" depart="46.00" departLane="430416184_0" departPos="196.27" departSpeed="0.00" departDelay="1.00" arrival="66.00" arrivalLane="186407684#0_1" arrivalPos="31.01" arrivalSpeed="14.05" duration="20.00" routeLength="152.37" waitingTime="0.00" waitingCount="0" stopTime="0.00" timeLoss="9.70" rerouteNo="0" devices="tripinfo_flow_route_88_duration_20250327_2020.12" vType="car" speedFactor="1.17" vaporized=""/>
    <tripinfo id="flow_route_86_duration_20250327_2020.2" depart="18.00" departLane="430416184_0" departPos="68.46" departSpeed="0.00" departDelay="0.86" arrival="67.00" arrivalLane="186407685_1" arrivalPos="96.38" arrivalSpeed="16.32" duration="49.00" routeLength="351.81" waitingTime="0.00" waitingCount="0" stopTime="0.00" timeLoss="27.74" rerouteNo="0" devices="tripinfo_flow_route_86_duration_20250327_2020.2" vType="car" speedFactor="1.12" vaporized=""/>
    <tripinfo id="flow_route_87_duration_20250327_2020.2" depart="21.00" departLane="430416184_0" departPos="37.41" departSpeed="0.00" departDelay="1.00" arrival="70.00" arrivalLane="1091883842_0" arrivalPos="177.65" arrivalSpeed="15.58" duration="49.00" routeLength="440.68" waitingTime="0.00" waitingCount="0" stopTime="0.00" timeLoss="19.92" rerouteNo="0" devices="tripinfo_flow_route_87_duration_20250327_2020.2" vType="car" speedFactor="0.94" vaporized=""/>
    <tripinfo id="flow_route_88_duration_20250327_2020.8" depart="32.00" departLane="430416184_0" departPos="48.70" departSpeed="0.00" departDelay="2.00" arrival="73.00" arrivalLane="186407684#0_1" arrivalPos="63.06" arrivalSpeed="13.35" duration="41.00" routeLength="331.99" waitingTime="0.00" waitingCount="0" stopTime="0.00" timeLoss="17.47" rerouteNo="0" devices="tripinfo_flow_route_88_duration_20250327_2020.8" vType="car" speedFactor="0.83" vaporized=""/>
    <tripinfo id="flow_route_86_duration_20250327_2020.3" depart="26.00" departLane="430416184_0" departPos="76.37" departSpeed="0.00" departDelay="0.29" arrival="74.00" arrivalLane="186407685_1" arrivalPos="170.79" arrivalSpeed="16.56" duration="48.00" routeLength="418.30" waitingTime="0.00" waitingCount="0" stopTime="0.00" timeLoss="21.93" rerouteNo="0" devices="tripinfo_flow_route_86_duration_20250327_2020.3" vType="car" speedFactor="1.16" vaporized=""/>
    <tripinfo id="flow_route_82_duration_20250327_2020.1" depart="31.00" departLane="423956929_0" departPos="91.39" departSpeed="0.00" departDelay="1.00" arrival="75.00" arrivalLane="186407684#0_2" arrivalPos="7.85" arrivalSpeed="6.76" duration="44.00" routeLength="119.54" waitingTime="18.00" waitingCount="1" stopTime="0.00" timeLoss="36.43" rerouteNo="0" devices="tripinfo_flow_route_82_duration_20250327_2020.1" vType="car" speedFactor="0.97" vaporized=""/>
    <tripinfo id="flow_route_83_duration_20250327_2020.1" depart="20.00" departLane="423956929_0" departPos="127.10" departSpeed="0.00" departDelay="0.00" arrival="77.00" arrivalLane="186407685_0" arrivalPos="28.17" arrivalSpeed="7.70" duration="57.00" routeLength="95.63" waitingTime="33.00" waitingCount="1" stopTime="0.00" timeLoss="49.87" rerouteNo="0" devices="tripinfo_flow_route_83_duration_20250327_2020.1" vType="car" speedFactor="0.88" vaporized=""/>
    <tripinfo id="flow_route_62_duration_20250327_2020.5" depart="50.00" departLane="409155823_0" departPos="72.67" departSpeed="0.00" departDelay="0.00" arrival="84.00" arrivalLane="1091883842_0" arrivalPos="72.38" arrivalSpeed="11.77" duration="34.00" routeLength="105.12" waitingTime="12.00" waitingCount="1" stopTime="0.00" timeLoss="27.61" rerouteNo="0" devices="tripinfo_flow_route_62_duration_20250327_2020.5" vType="car" speedFactor="1.02" vaporized=""/>
    <tripinfo id="flow_route_62_duration_20250327_2020.4" depart="40.00" departLane="409155823_0" departPos="15.76" departSpeed="0.00" departDelay="0.00" arrival="85.00" arrivalLane="1091883842_2" arrivalPos="101.54" arrivalSpeed="14.52" duration="45.00" routeLength="191.20" waitingTime="11.00" waitingCount="1" stopTime="0.00" timeLoss="32.80" rerouteNo="0" devices="tripinfo_flow_route_62_duration_20250327_2020.4" vType="car" speedFactor="1.13" vaporized=""/>
    <tripinfo id="flow_route_87_duration_20250327_2020.4" depart="41.00" departLane="430416184_0" departPos="24.88" departSpeed="0.00" departDelay="1.00" arrival="86.00" arrivalLane="1091883842_0" arrivalPos="12.44" arrivalSpeed="6.74" duration="45.00" routeLength="288.01" waitingTime="2.00" waitingCount="1" stopTime="0.00" timeLoss="27.01" rerouteNo="0" devices="tripinfo_flow_route_87_duration_20250327_2020.4" vType="car" speedFactor="1.18" vaporized=""/>
    <tripinfo id="flow_route_62_duration_20250327_2020.3" depart="30.00" departLane="409155823_0" departPos="60.88" departSpeed="0.00" departDelay="0.00" arrival="87.00" arrivalLane="1091883842_0" arrivalPos="150.74" arrivalSpeed="16.38" duration="57.00" routeLength="195.27" waitingTime="28.00" waitingCount="1" stopTime="0.00" timeLoss="44.60" rerouteNo="0" devices="tripinfo_flow_route_62_duration_20250327_2020.3" vType="car" speedFactor="1.01" vaporized=""/>
    <tripinfo id="flow_route_62_duration_20250327_2020.2" depart="20.00" departLane="409155823_0" departPos="2.63" departSpeed="0.00" departDelay="0.00" arrival="88.00" arrivalLane="1091883842_1" arrivalPos="141.98" arrivalSpeed="15.32" duration="68.00" routeLength="244.76" waitingTime="30.00" waitingCount="1" stopTime="0.00" timeLoss="51.37" rerouteNo="0" devices="tripinfo_flow_route_62_duration_20250327_2020.2" vType="car" speedFactor="0.93" vaporized=""/>
    <tripinfo id="flow_route_83_duration_20250327_2020.2" depart="41.00" departLane="423956929_0" departPos="62.90" departSpeed="0.00" departDelay="1.00" arrival="91.00" arrivalLane="186407685_0" arrivalPos="164.34" arrivalSpeed="16.32" duration="50.00" routeLength="296.00" waitingTime="8.00" waitingCount="1" stopTime="0.00" timeLoss="30.24" rerouteNo="0" devices="tripinfo_flow_route_83_duration_20250327_2020.2" vType="car" speedFactor="0.93" vaporized=""/>
    <tripinfo id="flow_route_87_duration_20250327_2020.5" depart="50.00" departLane="430416184_0" departPos="169.18" departSpeed="0.00" departDelay="0.00" arrival="93.00" arrivalLane="1091883842_0" arrivalPos="95.24" arrivalSpeed="12.48" duration="43.00" routeLength="226.51" waitingTime="6.00" waitingCount="1" stopTime="0.00" timeLoss="27.97" rerouteNo="0" devices="tripinfo_flow_route_87_duration_20250327_2020.5" vType="car" speedFactor="0.97" vaporized=""/>
    <tripinfo id="flow_route_88_duration_20250327_2020.10" depart="38.00" departLane="430416184_0" departPos="80.64" departSpeed="0.00" departDelay="0.50" arrival="110.00" arrivalLane="186407684#0_1" arrivalPos="2.45" arrivalSpeed="7.71" duration="72.00" routeLength="239.45" waitingTime="30.00" waitingCount="1" stopTime="0.00" timeLoss="56.29" rerouteNo="0" devices="tripinfo_flow_route_88_duration_20250327_2020.10" vType="car" speedFactor="0.95" vaporized=""/>
    <tripinfo id="flow_route_88_duration_20250327_2020.13" depart="49.00" departLane="430416184_0" departPos="177.89" departSpeed="0.00" departDelay="0.25" arrival="111.00" arrivalLane="186407684#0_1" arrivalPos="37.30" arrivalSpeed="9.51" duration="62.00" routeLength="177.04" waitingTime="30.00" waitingCount="1" stopTime="0.00" timeLoss="50.47" rerouteNo="0" devices="tripinfo_flow_route_88_duration_20250327_2020.13" vType="car" speedFactor="0.99" vaporized=""/>
    <tripinfo id="flow_route_88_duration_20250327_2020.9" depart="34.00" departLane="430416184_0" departPos="53.03" departSpeed="0.00" departDelay="0.25" arrival="119.00" arrivalLane="186407684#0_1" arrivalPos="84.16" arrivalSpeed="13.14" duration="85.00" routeLength="348.76" waitingTime="29.00" waitingCount="1" stopTime="0.00" timeLoss="62.05" rerouteNo="0" devices="tripinfo_flow_route_88_duration_20250327_2020.9" vType="car" speedFactor="0.87" vaporized=""/>
    <tripinfo id="flow_route_86_duration_20250327_2020.5" depart="46.00" departLane="430416184_0" departPos="61.41" departSpeed="0.00" departDelay="3.15" arrival="120.00" arrivalLane="186407685_1" arrivalPos="31.99" arrivalSpeed="12.59" duration="74.00" routeLength="294.46" waitingTime="28.00" waitingCount="1" stopTime="0.00" timeLoss="55.70" rerouteNo="0" devices="tripinfo_flow_route_86_duration_20250327_2020.5" vType="car" speedFactor="1.01" vaporized=""/>
    <tripinfo id="flow_route_86_duration_20250327_2020.4" depart="35.00" departLane="430416184_0" departPos="43.91" departSpeed="0.00" departDelay="0.72" arrival="124.00" arrivalLane="186407685_1" arrivalPos="113.62" arrivalSpeed="16.28" duration="89.00" routeLength="393.59" waitingTime="29.00" waitingCount="1" stopTime="0.00" timeLoss="64.73" rerouteNo="0" devices="tripinfo_flow_route_86_duration_20250327_2020.4" vType="car" speedFactor="0.92" vaporized=""/>
    <tripinfo id="flow_route_86_duration_20250327_2020.6" depart="52.00" departLane="430416184_0" departPos="105.61" departSpeed="0.00" departDelay="0.57" arrival="125.00" arrivalLane="186407685_1" arrivalPos="73.87" arrivalSpeed="14.10" duration="73.00" routeLength="292.14" waitingTime="28.00" waitingCount="1" stopTime="0.00" timeLoss="55.39" rerouteNo="0" devices="tripinfo_flow_route_86_duration_20250327_2020.6" vType="car" speedFactor="1.18" vaporized=""/>
    <tripinfo id="flow_route_88_duration_20250327_2020.11" depart="43.00" departLane="430416184_0" departPos="13.55" departSpeed="0.00" departDelay="1.75" arrival="126.00" arrivalLane="186407684#0_1" arrivalPos="49.98" arrivalSpeed="12.60" duration="83.00" routeLength="354.07" waitingTime="27.00" waitingCount="1" stopTime="0.00" timeLoss="60.64" rerouteNo="0" devices="tripinfo_flow_route_88_duration_20250327_2020.11" vType="car" speedFactor="1.15" vaporized=""/>
    <tripinfo id="flow_route_88_duration_20250327_2020.15" depart="57.00" departLane="430416184_0" departPos="30.28" departSpeed="0.00" departDelay="0.75" arrival="128.00" arrivalLane="186407684#0_1" arrivalPos="26.68" arrivalSpeed="10.65" duration="71.00" routeLength="314.03" waitingTime="25.00" waitingCount="1" stopTime="0.00" timeLoss="50.53" rerouteNo="0" devices="tripinfo_flow_route_88_duration_20250327_2020.15" vType="car" speedFactor="0.90" vaporized=""/>
    <tripinfo id="flow_route_88_duration_20250327_2020.14" depart="53.00" departLane="430416184_0" departPos="6.90" departSpeed="0.00" departDelay="0.50" arrival="130.00" arrivalLane="186407684#0_1" arrivalPos="86.09" arrivalSpeed="15.17" duration="77.00" routeLength="396.82" waitingTime="26.00" waitingCount="1" stopTime="0.00" timeLoss="52.09" rerouteNo="0" devices="tripinfo_flow_route_88_duration_20250327_2020.14" vType="car" speedFactor="1.10" vaporized=""/>
</tripinfos>
