<?xml version="1.0" encoding="UTF-8"?>

<!-- generated on 2025-05-06 21:08:23 by Eclipse SUMO sumo Version 1.20.0
<configuration xmlns:xsi="http://www.w3.org/2001/XMLSchema-instance" xsi:noNamespaceSchemaLocation="http://sumo.dlr.de/xsd/sumoConfiguration.xsd">

    <input>
        <net-file value="osm.net.xml"/>
        <route-files value="xml/route_rl_GS_cluster_1342409365_3839031467_4.rou.xml"/>
    </input>

    <output>
        <tripinfo-output value="xml/tripinfo_rl_GS_cluster_1342409365_3839031467_4.xml"/>
    </output>

    <traci_server>
        <remote-port value="56617"/>
    </traci_server>

</configuration>
-->

<tripinfos xmlns:xsi="http://www.w3.org/2001/XMLSchema-instance" xsi:noNamespaceSchemaLocation="http://sumo.dlr.de/xsd/tripinfo_file.xsd">
    <tripinfo id="flow_route_128_duration_20250327_2130.0" depart="0.00" departLane="134133272_0" departPos="226.49" departSpeed="0.00" departDelay="0.00" arrival="31.00" arrivalLane="380585338#0_0" arrivalPos="7.57" arrivalSpeed="5.61" duration="31.00" routeLength="279.28" waitingTime="0.00" waitingCount="0" stopTime="0.00" timeLoss="10.70" rerouteNo="0" devices="tripinfo_flow_route_128_duration_20250327_2130.0" vType="car" speedFactor="0.83" vaporized=""/>
    <tripinfo id="flow_route_92_duration_20250327_2130.1" depart="4.00" departLane="133000063_0" departPos="161.74" departSpeed="0.00" departDelay="0.25" arrival="33.00" arrivalLane="186409193_0" arrivalPos="17.94" arrivalSpeed="14.57" duration="29.00" routeLength="248.06" waitingTime="0.00" waitingCount="0" stopTime="0.00" timeLoss="13.50" rerouteNo="0" devices="tripinfo_flow_route_92_duration_20250327_2130.1" vType="car" speedFactor="1.09" vaporized=""/>
    <tripinfo id="flow_route_103_duration_20250327_2130.0" depart="1.00" departLane="1342963997_0" departPos="57.81" departSpeed="0.00" departDelay="1.00" arrival="48.00" arrivalLane="683079387#1_0" arrivalPos="6.02" arrivalSpeed="16.58" duration="47.00" routeLength="524.42" waitingTime="0.00" waitingCount="0" stopTime="0.00" timeLoss="14.30" rerouteNo="0" devices="tripinfo_flow_route_103_duration_20250327_2130.0" vType="car" speedFactor="1.03" vaporized=""/>
    <tripinfo id="flow_route_92_duration_20250327_2130.3" depart="14.00" departLane="133000063_0" departPos="102.69" departSpeed="0.00" departDelay="2.75" arrival="48.00" arrivalLane="186409193_0" arrivalPos="13.04" arrivalSpeed="14.14" duration="34.00" routeLength="302.20" waitingTime="0.00" waitingCount="0" stopTime="0.00" timeLoss="13.39" rerouteNo="0" devices="tripinfo_flow_route_92_duration_20250327_2130.3" vType="car" speedFactor="0.94" vaporized=""/>
    <tripinfo id="flow_route_91_duration_20250327_2130.0" depart="0.00" departLane="133000063_0" departPos="128.34" departSpeed="0.00" departDelay="0.00" arrival="50.00" arrivalLane="683079387#1_0" arrivalPos="9.10" arrivalSpeed="16.18" duration="50.00" routeLength="599.49" waitingTime="0.00" waitingCount="0" stopTime="0.00" timeLoss="13.60" rerouteNo="0" devices="tripinfo_flow_route_91_duration_20250327_2130.0" vType="car" speedFactor="1.06" vaporized=""/>
    <tripinfo id="flow_route_92_duration_20250327_2130.0" depart="0.00" departLane="133000063_0" departPos="1.04" departSpeed="0.00" departDelay="0.00" arrival="54.00" arrivalLane="186409193_0" arrivalPos="41.62" arrivalSpeed="15.50" duration="54.00" routeLength="432.44" waitingTime="0.00" waitingCount="0" stopTime="0.00" timeLoss="25.17" rerouteNo="0" devices="tripinfo_flow_route_92_duration_20250327_2130.0" vType="car" speedFactor="0.94" vaporized=""/>
    <tripinfo id="flow_route_92_duration_20250327_2130.2" depart="9.00" departLane="133000063_0" departPos="5.14" departSpeed="0.00" departDelay="1.50" arrival="56.00" arrivalLane="186409193_0" arrivalPos="17.63" arrivalSpeed="14.09" duration="47.00" routeLength="404.35" waitingTime="0.00" waitingCount="0" stopTime="0.00" timeLoss="21.52" rerouteNo="0" devices="tripinfo_flow_route_92_duration_20250327_2130.2" vType="car" speedFactor="0.99" vaporized=""/>
    <tripinfo id="flow_route_128_duration_20250327_2130.3" depart="26.00" departLane="134133272_0" departPos="390.70" departSpeed="0.00" departDelay="0.29" arrival="56.00" arrivalLane="380585338#0_0" arrivalPos="101.59" arrivalSpeed="13.22" duration="30.00" routeLength="209.09" waitingTime="0.00" waitingCount="0" stopTime="0.00" timeLoss="16.55" rerouteNo="0" devices="tripinfo_flow_route_128_duration_20250327_2130.3" vType="car" speedFactor="0.97" vaporized=""/>
    <tripinfo id="flow_route_128_duration_20250327_2130.2" depart="20.00" departLane="134133272_0" departPos="226.84" departSpeed="0.00" departDelay="2.86" arrival="61.00" arrivalLane="380585338#0_0" arrivalPos="111.42" arrivalSpeed="13.56" duration="41.00" routeLength="382.78" waitingTime="0.00" waitingCount="0" stopTime="0.00" timeLoss="15.13" rerouteNo="0" devices="tripinfo_flow_route_128_duration_20250327_2130.2" vType="car" speedFactor="0.95" vaporized=""/>
    <tripinfo id="flow_route_145_duration_20250327_2130.0" depart="0.00" departLane="683079388#0_0" departPos="22.61" departSpeed="0.00" departDelay="0.00" arrival="68.00" arrivalLane="380585336_0" arrivalPos="229.76" arrivalSpeed="15.56" duration="68.00" routeLength="831.39" waitingTime="0.00" waitingCount="0" stopTime="0.00" timeLoss="15.05" rerouteNo="0" devices="tripinfo_flow_route_145_duration_20250327_2130.0" vType="car" speedFactor="0.94" vaporized=""/>
    <tripinfo id="flow_route_128_duration_20250327_2130.1" depart="10.00" departLane="134133272_0" departPos="164.53" departSpeed="0.00" departDelay="1.43" arrival="68.00" arrivalLane="380585338#0_0" arrivalPos="166.11" arrivalSpeed="14.54" duration="58.00" routeLength="499.79" waitingTime="0.00" waitingCount="0" stopTime="0.00" timeLoss="23.63" rerouteNo="0" devices="tripinfo_flow_route_128_duration_20250327_2130.1" vType="car" speedFactor="0.88" vaporized=""/>
    <tripinfo id="flow_route_93_duration_20250327_2130.0" depart="0.00" departLane="133000063_0" departPos="115.92" departSpeed="0.00" departDelay="0.00" arrival="69.00" arrivalLane="380585336_1" arrivalPos="19.16" arrivalSpeed="16.13" duration="69.00" routeLength="758.54" waitingTime="0.00" waitingCount="0" stopTime="0.00" timeLoss="22.45" rerouteNo="0" devices="tripinfo_flow_route_93_duration_20250327_2130.0" vType="car" speedFactor="1.01" vaporized=""/>
    <tripinfo id="flow_route_102_duration_20250327_2130.0" depart="0.00" departLane="1342963997_0" departPos="83.70" departSpeed="0.00" departDelay="0.00" arrival="69.00" arrivalLane="380585336_1" arrivalPos="207.08" arrivalSpeed="16.53" duration="69.00" routeLength="834.32" waitingTime="0.00" waitingCount="0" stopTime="0.00" timeLoss="17.48" rerouteNo="0" devices="tripinfo_flow_route_102_duration_20250327_2130.0" vType="car" speedFactor="1.08" vaporized=""/>
    <tripinfo id="flow_route_93_duration_20250327_2130.5" depart="14.00" departLane="133000063_0" departPos="123.25" departSpeed="0.00" departDelay="4.33" arrival="80.00" arrivalLane="380585336_1" arrivalPos="54.51" arrivalSpeed="14.92" duration="66.00" routeLength="786.56" waitingTime="0.00" waitingCount="0" stopTime="0.00" timeLoss="15.46" rerouteNo="0" devices="tripinfo_flow_route_93_duration_20250327_2130.5" vType="car" speedFactor="0.94" vaporized=""/>
    <tripinfo id="flow_route_93_duration_20250327_2130.2" depart="5.00" departLane="133000063_0" departPos="152.88" departSpeed="0.00" departDelay="1.13" arrival="82.00" arrivalLane="380585336_1" arrivalPos="266.92" arrivalSpeed="16.16" duration="77.00" routeLength="969.33" waitingTime="0.00" waitingCount="0" stopTime="0.00" timeLoss="18.33" rerouteNo="0" devices="tripinfo_flow_route_93_duration_20250327_2130.2" vType="car" speedFactor="1.03" vaporized=""/>
    <tripinfo id="flow_route_129_duration_20250327_2130.0" depart="0.00" departLane="134133272_0" departPos="105.80" departSpeed="0.00" departDelay="0.00" arrival="85.00" arrivalLane="683079387#1_0" arrivalPos="7.59" arrivalSpeed="16.42" duration="85.00" routeLength="945.90" waitingTime="0.00" waitingCount="0" stopTime="0.00" timeLoss="27.62" rerouteNo="0" devices="tripinfo_flow_route_129_duration_20250327_2130.0" vType="car" speedFactor="1.05" vaporized=""/>
    <tripinfo id="flow_route_128_duration_20250327_2130.6" depart="52.00" departLane="134133272_0" departPos="337.44" departSpeed="0.00" departDelay="0.57" arrival="87.00" arrivalLane="380585338#0_0" arrivalPos="136.15" arrivalSpeed="15.77" duration="35.00" routeLength="296.90" waitingTime="0.00" waitingCount="0" stopTime="0.00" timeLoss="15.82" rerouteNo="0" devices="tripinfo_flow_route_128_duration_20250327_2130.6" vType="car" speedFactor="1.04" vaporized=""/>
    <tripinfo id="flow_route_144_duration_20250327_2130.0" depart="0.00" departLane="683079388#0_0" departPos="1.56" departSpeed="0.00" departDelay="0.00" arrival="88.00" arrivalLane="380585338#0_0" arrivalPos="42.98" arrivalSpeed="9.52" duration="88.00" routeLength="621.16" waitingTime="25.00" waitingCount="1" stopTime="0.00" timeLoss="45.84" rerouteNo="0" devices="tripinfo_flow_route_144_duration_20250327_2130.0" vType="car" speedFactor="0.89" vaporized=""/>
    <tripinfo id="flow_route_93_duration_20250327_2130.3" depart="6.00" departLane="133000063_0" departPos="40.77" departSpeed="0.00" departDelay="0.20" arrival="89.00" arrivalLane="380585336_1" arrivalPos="167.10" arrivalSpeed="16.41" duration="83.00" routeLength="981.62" waitingTime="0.00" waitingCount="0" stopTime="0.00" timeLoss="23.64" rerouteNo="0" devices="tripinfo_flow_route_93_duration_20250327_2130.3" vType="car" speedFactor="1.05" vaporized=""/>
    <tripinfo id="flow_route_144_duration_20250327_2130.1" depart="20.00" departLane="683079388#0_0" departPos="5.35" departSpeed="0.00" departDelay="0.00" arrival="90.00" arrivalLane="380585338#0_1" arrivalPos="58.87" arrivalSpeed="11.37" duration="70.00" routeLength="633.26" waitingTime="7.00" waitingCount="1" stopTime="0.00" timeLoss="31.23" rerouteNo="0" devices="tripinfo_flow_route_144_duration_20250327_2130.1" vType="car" speedFactor="1.18" vaporized=""/>
    <tripinfo id="flow_route_144_duration_20250327_2130.2" depart="40.00" departLane="683079388#0_0" departPos="17.58" departSpeed="0.00" departDelay="0.00" arrival="91.00" arrivalLane="380585338#0_0" arrivalPos="48.15" arrivalSpeed="12.11" duration="51.00" routeLength="610.31" waitingTime="0.00" waitingCount="0" stopTime="0.00" timeLoss="13.56" rerouteNo="0" devices="tripinfo_flow_route_144_duration_20250327_2130.2" vType="car" speedFactor="1.00" vaporized=""/>
    <tripinfo id="flow_route_128_duration_20250327_2130.5" depart="43.00" departLane="134133272_0" departPos="193.06" departSpeed="0.00" departDelay="0.15" arrival="93.00" arrivalLane="380585338#0_0" arrivalPos="170.34" arrivalSpeed="15.82" duration="50.00" routeLength="475.48" waitingTime="0.00" waitingCount="0" stopTime="0.00" timeLoss="18.56" rerouteNo="0" devices="tripinfo_flow_route_128_duration_20250327_2130.5" vType="car" speedFactor="0.97" vaporized=""/>
    <tripinfo id="flow_route_93_duration_20250327_2130.1" depart="3.00" departLane="133000063_0" departPos="88.35" departSpeed="0.00" departDelay="1.07" arrival="95.00" arrivalLane="380585336_0" arrivalPos="288.04" arrivalSpeed="14.01" duration="92.00" routeLength="1054.98" waitingTime="0.00" waitingCount="0" stopTime="0.00" timeLoss="18.15" rerouteNo="0" devices="tripinfo_flow_route_93_duration_20250327_2130.1" vType="car" speedFactor="0.86" vaporized=""/>
    <tripinfo id="flow_route_129_duration_20250327_2130.1" depart="30.00" departLane="134133272_0" departPos="164.42" departSpeed="0.00" departDelay="0.00" arrival="95.00" arrivalLane="683079387#1_0" arrivalPos="8.92" arrivalSpeed="16.56" duration="65.00" routeLength="888.61" waitingTime="0.00" waitingCount="0" stopTime="0.00" timeLoss="10.58" rerouteNo="0" devices="tripinfo_flow_route_129_duration_20250327_2130.1" vType="car" speedFactor="1.04" vaporized=""/>
    <tripinfo id="flow_route_145_duration_20250327_2130.1" depart="30.00" departLane="683079388#0_0" departPos="8.85" departSpeed="0.00" departDelay="0.00" arrival="97.00" arrivalLane="380585336_0" arrivalPos="241.71" arrivalSpeed="16.41" duration="67.00" routeLength="857.10" waitingTime="0.00" waitingCount="0" stopTime="0.00" timeLoss="15.04" rerouteNo="0" devices="tripinfo_flow_route_145_duration_20250327_2130.1" vType="car" speedFactor="1.04" vaporized=""/>
    <tripinfo id="flow_route_128_duration_20250327_2130.4" depart="35.00" departLane="134133272_0" departPos="17.04" departSpeed="0.00" departDelay="0.72" arrival="107.00" arrivalLane="380585338#0_0" arrivalPos="153.16" arrivalSpeed="14.11" duration="72.00" routeLength="634.32" waitingTime="5.00" waitingCount="1" stopTime="0.00" timeLoss="26.82" rerouteNo="0" devices="tripinfo_flow_route_128_duration_20250327_2130.4" vType="car" speedFactor="0.85" vaporized=""/>
    <tripinfo id="flow_route_93_duration_20250327_2130.4" depart="10.00" departLane="133000063_0" departPos="21.60" departSpeed="0.00" departDelay="2.26" arrival="108.00" arrivalLane="380585336_0" arrivalPos="322.13" arrivalSpeed="15.43" duration="98.00" routeLength="1155.82" waitingTime="0.00" waitingCount="0" stopTime="0.00" timeLoss="23.46" rerouteNo="0" devices="tripinfo_flow_route_93_duration_20250327_2130.4" vType="car" speedFactor="0.93" vaporized=""/>
    <tripinfo id="flow_route_102_duration_20250327_2130.2" depart="12.00" departLane="1342963997_0" departPos="145.75" departSpeed="0.00" departDelay="0.00" arrival="109.00" arrivalLane="380585336_1" arrivalPos="240.85" arrivalSpeed="16.11" duration="97.00" routeLength="806.05" waitingTime="24.00" waitingCount="1" stopTime="0.00" timeLoss="47.90" rerouteNo="0" devices="tripinfo_flow_route_102_duration_20250327_2130.2" vType="car" speedFactor="1.02" vaporized=""/>
    <tripinfo id="flow_route_102_duration_20250327_2130.1" depart="6.00" departLane="1342963997_0" departPos="5.82" departSpeed="0.00" departDelay="0.00" arrival="111.00" arrivalLane="380585336_1" arrivalPos="229.35" arrivalSpeed="16.49" duration="105.00" routeLength="934.48" waitingTime="21.00" waitingCount="1" stopTime="0.00" timeLoss="47.40" rerouteNo="0" devices="tripinfo_flow_route_102_duration_20250327_2130.1" vType="car" speedFactor="1.12" vaporized=""/>
    <tripinfo id="flow_route_102_duration_20250327_2130.6" depart="36.00" departLane="1342963997_0" departPos="175.65" departSpeed="0.00" departDelay="0.00" arrival="116.00" arrivalLane="380585336_0" arrivalPos="164.61" arrivalSpeed="14.13" duration="80.00" routeLength="696.77" waitingTime="9.00" waitingCount="1" stopTime="0.00" timeLoss="31.25" rerouteNo="0" devices="tripinfo_flow_route_102_duration_20250327_2130.6" vType="car" speedFactor="0.85" vaporized=""/>
    <tripinfo id="flow_route_102_duration_20250327_2130.3" depart="18.00" departLane="1342963997_0" departPos="98.18" departSpeed="0.00" departDelay="0.00" arrival="118.00" arrivalLane="380585336_1" arrivalPos="77.26" arrivalSpeed="14.94" duration="100.00" routeLength="690.03" waitingTime="18.00" waitingCount="2" stopTime="0.00" timeLoss="54.36" rerouteNo="0" devices="tripinfo_flow_route_102_duration_20250327_2130.3" vType="car" speedFactor="0.92" vaporized=""/>
    <tripinfo id="flow_route_92_duration_20250327_2130.4" depart="23.00" departLane="133000063_0" departPos="49.96" departSpeed="0.00" departDelay="8.00" arrival="120.00" arrivalLane="186409193_0" arrivalPos="56.08" arrivalSpeed="14.58" duration="97.00" routeLength="397.98" waitingTime="31.00" waitingCount="1" stopTime="0.00" timeLoss="68.56" rerouteNo="0" devices="tripinfo_flow_route_92_duration_20250327_2130.4" vType="car" speedFactor="0.89" vaporized=""/>
    <tripinfo id="flow_route_92_duration_20250327_2130.6" depart="38.00" departLane="133000063_0" departPos="59.35" departSpeed="0.00" departDelay="15.50" arrival="126.00" arrivalLane="186409193_0" arrivalPos="42.17" arrivalSpeed="15.63" duration="88.00" routeLength="374.69" waitingTime="19.00" waitingCount="2" stopTime="0.00" timeLoss="64.32" rerouteNo="0" devices="tripinfo_flow_route_92_duration_20250327_2130.6" vType="car" speedFactor="1.01" vaporized=""/>
    <tripinfo id="flow_route_102_duration_20250327_2130.4" depart="24.00" departLane="1342963997_0" departPos="69.98" departSpeed="0.00" departDelay="0.00" arrival="128.00" arrivalLane="380585336_1" arrivalPos="178.33" arrivalSpeed="16.34" duration="104.00" routeLength="819.29" waitingTime="14.00" waitingCount="3" stopTime="0.00" timeLoss="53.32" rerouteNo="0" devices="tripinfo_flow_route_102_duration_20250327_2130.4" vType="car" speedFactor="0.99" vaporized=""/>
    <tripinfo id="flow_route_92_duration_20250327_2130.5" depart="31.00" departLane="133000063_0" departPos="17.49" departSpeed="0.00" departDelay="12.25" arrival="129.00" arrivalLane="186409193_0" arrivalPos="3.91" arrivalSpeed="13.62" duration="98.00" routeLength="378.29" waitingTime="17.00" waitingCount="2" stopTime="0.00" timeLoss="74.65" rerouteNo="0" devices="tripinfo_flow_route_92_duration_20250327_2130.5" vType="car" speedFactor="1.13" vaporized=""/>
    <tripinfo id="flow_route_92_duration_20250327_2130.7" depart="46.00" departLane="133000063_0" departPos="58.36" departSpeed="0.00" departDelay="19.75" arrival="132.00" arrivalLane="186409193_0" arrivalPos="1.39" arrivalSpeed="13.70" duration="86.00" routeLength="334.89" waitingTime="9.00" waitingCount="1" stopTime="0.00" timeLoss="64.79" rerouteNo="0" devices="tripinfo_flow_route_92_duration_20250327_2130.7" vType="car" speedFactor="1.18" vaporized=""/>
    <tripinfo id="flow_route_102_duration_20250327_2130.5" depart="30.00" departLane="1342963997_0" departPos="53.21" departSpeed="0.00" departDelay="0.00" arrival="134.00" arrivalLane="380585336_1" arrivalPos="192.05" arrivalSpeed="16.29" duration="104.00" routeLength="849.79" waitingTime="5.00" waitingCount="2" stopTime="0.00" timeLoss="52.04" rerouteNo="0" devices="tripinfo_flow_route_102_duration_20250327_2130.5" vType="car" speedFactor="1.09" vaporized=""/>
    <tripinfo id="flow_route_91_duration_20250327_2130.1" depart="23.00" departLane="133000063_0" departPos="60.60" departSpeed="0.00" departDelay="8.00" arrival="135.00" arrivalLane="683079387#1_0" arrivalPos="9.55" arrivalSpeed="15.77" duration="112.00" routeLength="667.67" waitingTime="32.00" waitingCount="1" stopTime="0.00" timeLoss="70.61" rerouteNo="0" devices="tripinfo_flow_route_91_duration_20250327_2130.1" vType="car" speedFactor="0.97" vaporized=""/>
    <tripinfo id="flow_route_92_duration_20250327_2130.8" depart="54.00" departLane="133000063_0" departPos="55.71" departSpeed="0.00" departDelay="24.00" arrival="136.00" arrivalLane="186409193_0" arrivalPos="24.83" arrivalSpeed="14.82" duration="82.00" routeLength="360.99" waitingTime="12.00" waitingCount="3" stopTime="0.00" timeLoss="59.27" rerouteNo="0" devices="tripinfo_flow_route_92_duration_20250327_2130.8" vType="car" speedFactor="1.03" vaporized=""/>
    <tripinfo id="flow_route_93_duration_20250327_2130.6" depart="18.00" departLane="133000063_0" departPos="26.15" departSpeed="0.00" departDelay="6.39" arrival="137.00" arrivalLane="380585336_1" arrivalPos="70.77" arrivalSpeed="16.19" duration="119.00" routeLength="899.91" waitingTime="27.00" waitingCount="2" stopTime="0.00" timeLoss="64.29" rerouteNo="0" devices="tripinfo_flow_route_93_duration_20250327_2130.6" vType="car" speedFactor="1.16" vaporized=""/>
    <tripinfo id="flow_route_91_duration_20250327_2130.2" depart="51.00" departLane="133000063_0" departPos="83.96" departSpeed="0.00" departDelay="21.00" arrival="138.00" arrivalLane="683079387#1_1" arrivalPos="5.03" arrivalSpeed="14.86" duration="87.00" routeLength="639.80" waitingTime="11.00" waitingCount="1" stopTime="0.00" timeLoss="44.18" rerouteNo="0" devices="tripinfo_flow_route_91_duration_20250327_2130.2" vType="car" speedFactor="0.90" vaporized=""/>
    <tripinfo id="flow_route_91_duration_20250327_2130.3" depart="79.00" departLane="133000063_0" departPos="32.83" departSpeed="0.00" departDelay="34.00" arrival="140.00" arrivalLane="683079387#1_1" arrivalPos="1.71" arrivalSpeed="16.32" duration="61.00" routeLength="687.61" waitingTime="0.00" waitingCount="0" stopTime="0.00" timeLoss="18.66" rerouteNo="0" devices="tripinfo_flow_route_91_duration_20250327_2130.3" vType="car" speedFactor="1.08" vaporized=""/>
    <tripinfo id="flow_route_102_duration_20250327_2130.8" depart="48.00" departLane="1342963997_0" departPos="73.95" departSpeed="0.00" departDelay="0.00" arrival="141.00" arrivalLane="380585336_1" arrivalPos="204.95" arrivalSpeed="15.23" duration="93.00" routeLength="841.95" waitingTime="0.00" waitingCount="0" stopTime="0.00" timeLoss="38.95" rerouteNo="0" devices="tripinfo_flow_route_102_duration_20250327_2130.8" vType="car" speedFactor="0.94" vaporized=""/>
    <tripinfo id="flow_route_102_duration_20250327_2130.9" depart="54.00" departLane="1342963997_0" departPos="79.83" departSpeed="0.00" departDelay="0.00" arrival="142.00" arrivalLane="380585336_1" arrivalPos="188.15" arrivalSpeed="15.97" duration="88.00" routeLength="819.27" waitingTime="0.00" waitingCount="0" stopTime="0.00" timeLoss="36.26" rerouteNo="0" devices="tripinfo_flow_route_102_duration_20250327_2130.9" vType="car" speedFactor="0.97" vaporized=""/>
    <tripinfo id="flow_route_93_duration_20250327_2130.11" depart="35.00" departLane="133000063_0" departPos="64.01" departSpeed="0.00" departDelay="13.72" arrival="143.00" arrivalLane="380585336_2" arrivalPos="19.74" arrivalSpeed="16.28" duration="108.00" routeLength="811.02" waitingTime="17.00" waitingCount="2" stopTime="0.00" timeLoss="58.83" rerouteNo="0" devices="tripinfo_flow_route_93_duration_20250327_2130.11" vType="car" speedFactor="1.15" vaporized=""/>
    <tripinfo id="flow_route_92_duration_20250327_2130.9" depart="57.00" departLane="133000063_0" departPos="38.92" departSpeed="0.00" departDelay="23.25" arrival="143.00" arrivalLane="186409193_0" arrivalPos="7.26" arrivalSpeed="13.30" duration="86.00" routeLength="360.20" waitingTime="4.00" waitingCount="2" stopTime="0.00" timeLoss="60.77" rerouteNo="0" devices="tripinfo_flow_route_92_duration_20250327_2130.9" vType="car" speedFactor="0.90" vaporized=""/>
    <tripinfo id="flow_route_102_duration_20250327_2130.7" depart="42.00" departLane="1342963997_0" departPos="98.62" departSpeed="0.00" departDelay="0.00" arrival="145.00" arrivalLane="380585336_0" arrivalPos="345.98" arrivalSpeed="16.31" duration="103.00" routeLength="958.31" waitingTime="1.00" waitingCount="1" stopTime="0.00" timeLoss="44.70" rerouteNo="0" devices="tripinfo_flow_route_102_duration_20250327_2130.7" vType="car" speedFactor="1.14" vaporized=""/>
    <tripinfo id="flow_route_92_duration_20250327_2130.10" depart="62.00" departLane="133000063_0" departPos="41.07" departSpeed="0.00" departDelay="24.50" arrival="148.00" arrivalLane="186409193_0" arrivalPos="52.84" arrivalSpeed="15.53" duration="86.00" routeLength="403.63" waitingTime="2.00" waitingCount="1" stopTime="0.00" timeLoss="60.47" rerouteNo="0" devices="tripinfo_flow_route_92_duration_20250327_2130.10" vType="car" speedFactor="1.02" vaporized=""/>
    <tripinfo id="flow_route_93_duration_20250327_2130.10" depart="33.00" departLane="133000063_0" departPos="48.44" departSpeed="0.00" departDelay="13.65" arrival="150.00" arrivalLane="380585336_1" arrivalPos="132.25" arrivalSpeed="15.29" duration="117.00" routeLength="939.10" waitingTime="14.00" waitingCount="2" stopTime="0.00" timeLoss="56.05" rerouteNo="0" devices="tripinfo_flow_route_93_duration_20250327_2130.10" vType="car" speedFactor="0.93" vaporized=""/>
    <tripinfo id="flow_route_93_duration_20250327_2130.14" depart="46.00" departLane="133000063_0" departPos="0.15" departSpeed="0.00" departDelay="18.91" arrival="157.00" arrivalLane="380585336_1" arrivalPos="44.12" arrivalSpeed="16.46" duration="111.00" routeLength="899.27" waitingTime="2.00" waitingCount="1" stopTime="0.00" timeLoss="56.67" rerouteNo="0" devices="tripinfo_flow_route_93_duration_20250327_2130.14" vType="car" speedFactor="1.10" vaporized=""/>
    <tripinfo id="flow_route_93_duration_20250327_2130.8" depart="26.00" departLane="133000063_0" departPos="71.85" departSpeed="0.00" departDelay="10.52" arrival="161.00" arrivalLane="380585336_0" arrivalPos="207.55" arrivalSpeed="13.40" duration="135.00" routeLength="990.99" waitingTime="31.00" waitingCount="1" stopTime="0.00" timeLoss="63.99" rerouteNo="0" devices="tripinfo_flow_route_93_duration_20250327_2130.8" vType="car" speedFactor="0.83" vaporized=""/>
    <tripinfo id="flow_route_93_duration_20250327_2130.22" depart="76.00" departLane="133000063_0" departPos="74.11" departSpeed="0.00" departDelay="33.43" arrival="162.00" arrivalLane="380585336_1" arrivalPos="6.16" arrivalSpeed="16.49" duration="86.00" routeLength="787.34" waitingTime="0.00" waitingCount="0" stopTime="0.00" timeLoss="38.54" rerouteNo="0" devices="tripinfo_flow_route_93_duration_20250327_2130.22" vType="car" speedFactor="1.02" vaporized=""/>
    <tripinfo id="flow_route_93_duration_20250327_2130.16" depart="56.00" departLane="133000063_0" departPos="99.82" departSpeed="0.00" departDelay="25.04" arrival="163.00" arrivalLane="380585336_2" arrivalPos="294.73" arrivalSpeed="16.48" duration="107.00" routeLength="1050.20" waitingTime="3.00" waitingCount="1" stopTime="0.00" timeLoss="43.19" rerouteNo="0" devices="tripinfo_flow_route_93_duration_20250327_2130.16" vType="car" speedFactor="1.09" vaporized=""/>
    <tripinfo id="flow_route_93_duration_20250327_2130.9" depart="29.00" departLane="133000063_0" departPos="107.69" departSpeed="0.00" departDelay="11.59" arrival="165.00" arrivalLane="380585336_0" arrivalPos="402.36" arrivalSpeed="14.34" duration="136.00" routeLength="1149.96" waitingTime="31.00" waitingCount="1" stopTime="0.00" timeLoss="57.27" rerouteNo="0" devices="tripinfo_flow_route_93_duration_20250327_2130.9" vType="car" speedFactor="0.87" vaporized=""/>
    <tripinfo id="flow_route_93_duration_20250327_2130.12" depart="41.00" departLane="133000063_0" departPos="98.75" departSpeed="0.00" departDelay="17.78" arrival="168.00" arrivalLane="380585336_1" arrivalPos="285.97" arrivalSpeed="16.24" duration="127.00" routeLength="1042.51" waitingTime="22.00" waitingCount="1" stopTime="0.00" timeLoss="63.65" rerouteNo="0" devices="tripinfo_flow_route_93_duration_20250327_2130.12" vType="car" speedFactor="1.17" vaporized=""/>
    <tripinfo id="flow_route_93_duration_20250327_2130.18" depart="59.00" departLane="133000063_0" departPos="55.26" departSpeed="0.00" departDelay="24.17" arrival="172.00" arrivalLane="380585336_1" arrivalPos="59.48" arrivalSpeed="14.23" duration="113.00" routeLength="859.51" waitingTime="0.00" waitingCount="0" stopTime="0.00" timeLoss="54.14" rerouteNo="0" devices="tripinfo_flow_route_93_duration_20250327_2130.18" vType="car" speedFactor="0.88" vaporized=""/>
    <tripinfo id="flow_route_93_duration_20250327_2130.7" depart="18.00" departLane="133000063_0" departPos="4.79" departSpeed="0.00" departDelay="4.46" arrival="178.00" arrivalLane="380585336_1" arrivalPos="281.52" arrivalSpeed="16.15" duration="160.00" routeLength="1132.02" waitingTime="25.00" waitingCount="2" stopTime="0.00" timeLoss="91.19" rerouteNo="0" devices="tripinfo_flow_route_93_duration_20250327_2130.7" vType="car" speedFactor="1.01" vaporized=""/>
    <tripinfo id="flow_route_93_duration_20250327_2130.19" depart="60.00" departLane="133000063_0" departPos="146.54" departSpeed="0.00" departDelay="23.24" arrival="180.00" arrivalLane="380585336_0" arrivalPos="356.25" arrivalSpeed="16.50" duration="120.00" routeLength="1065.01" waitingTime="14.00" waitingCount="1" stopTime="0.00" timeLoss="55.27" rerouteNo="0" devices="tripinfo_flow_route_93_duration_20250327_2130.19" vType="car" speedFactor="1.17" vaporized=""/>
    <tripinfo id="flow_route_92_duration_20250327_2130.12" depart="82.00" departLane="133000063_0" departPos="91.00" departSpeed="0.00" departDelay="37.00" arrival="180.00" arrivalLane="186409193_0" arrivalPos="20.20" arrivalSpeed="16.00" duration="98.00" routeLength="321.07" waitingTime="40.00" waitingCount="2" stopTime="0.00" timeLoss="77.41" rerouteNo="0" devices="tripinfo_flow_route_92_duration_20250327_2130.12" vType="car" speedFactor="1.12" vaporized=""/>
    <tripinfo id="flow_route_92_duration_20250327_2130.11" depart="74.00" departLane="133000063_0" departPos="1.26" departSpeed="0.00" departDelay="32.75" arrival="186.00" arrivalLane="186409193_0" arrivalPos="37.45" arrivalSpeed="14.60" duration="112.00" routeLength="428.05" waitingTime="32.00" waitingCount="2" stopTime="0.00" timeLoss="82.45" rerouteNo="0" devices="tripinfo_flow_route_92_duration_20250327_2130.11" vType="car" speedFactor="0.90" vaporized=""/>
    <tripinfo id="flow_route_93_duration_20250327_2130.15" depart="56.00" departLane="133000063_0" departPos="27.15" departSpeed="0.00" departDelay="26.98" arrival="187.00" arrivalLane="380585336_2" arrivalPos="299.48" arrivalSpeed="15.51" duration="131.00" routeLength="1127.62" waitingTime="5.00" waitingCount="2" stopTime="0.00" timeLoss="60.37" rerouteNo="0" devices="tripinfo_flow_route_93_duration_20250327_2130.15" vType="car" speedFactor="0.96" vaporized=""/>
    <tripinfo id="flow_route_93_duration_20250327_2130.20" depart="68.00" departLane="133000063_0" departPos="14.57" departSpeed="0.00" departDelay="29.30" arrival="189.00" arrivalLane="380585336_1" arrivalPos="181.55" arrivalSpeed="16.49" duration="121.00" routeLength="1022.27" waitingTime="0.00" waitingCount="0" stopTime="0.00" timeLoss="59.24" rerouteNo="0" devices="tripinfo_flow_route_93_duration_20250327_2130.20" vType="car" speedFactor="1.10" vaporized=""/>