<?xml version="1.0" encoding="UTF-8"?>

<!-- generated on 2025-05-06 21:08:03 by Eclipse SUMO sumo Version 1.20.0
<configuration xmlns:xsi="http://www.w3.org/2001/XMLSchema-instance" xsi:noNamespaceSchemaLocation="http://sumo.dlr.de/xsd/sumoConfiguration.xsd">

    <input>
        <net-file value="osm.net.xml"/>
        <route-files value="xml/route_static_GS_cluster_4854142864_4854142865_2.rou.xml"/>
    </input>

    <output>
        <tripinfo-output value="xml/tripinfo_static_GS_cluster_4854142864_4854142865_2.xml"/>
    </output>

    <traci_server>
        <remote-port value="38083"/>
    </traci_server>

</configuration>
-->

<tripinfos xmlns:xsi="http://www.w3.org/2001/XMLSchema-instance" xsi:noNamespaceSchemaLocation="http://sumo.dlr.de/xsd/tripinfo_file.xsd">
    <tripinfo id="flow_route_38_duration_20250327_1910.1" depart="5.00" departLane="133126030#0_0" departPos="173.99" departSpeed="0.00" departDelay="0.39" arrival="24.00" arrivalLane="134193294#0_0" arrivalPos="117.27" arrivalSpeed="13.70" duration="19.00" routeLength="138.15" waitingTime="0.00" waitingCount="0" stopTime="0.00" timeLoss="8.22" rerouteNo="0" devices="tripinfo_flow_route_38_duration_20250327_1910.1" vType="car" speedFactor="0.86" vaporized=""/>
    <tripinfo id="flow_route_39_duration_20250327_1910.0" depart="0.00" departLane="133126030#0_0" departPos="101.03" departSpeed="0.00" departDelay="0.00" arrival="28.00" arrivalLane="1328664748#0_0" arrivalPos="158.52" arrivalSpeed="15.28" duration="28.00" routeLength="263.70" waitingTime="0.00" waitingCount="0" stopTime="0.00" timeLoss="11.07" rerouteNo="0" devices="tripinfo_flow_route_39_duration_20250327_1910.0" vType="car" speedFactor="0.94" vaporized=""/>
    <tripinfo id="flow_route_38_duration_20250327_1910.0" depart="0.00" departLane="133126030#0_0" departPos="45.86" departSpeed="0.00" departDelay="0.00" arrival="35.00" arrivalLane="134193294#0_0" arrivalPos="152.84" arrivalSpeed="16.50" duration="35.00" routeLength="301.86" waitingTime="0.00" waitingCount="0" stopTime="0.00" timeLoss="15.51" rerouteNo="0" devices="tripinfo_flow_route_38_duration_20250327_1910.0" vType="car" speedFactor="1.06" vaporized=""/>
    <tripinfo id="flow_route_38_duration_20250327_1910.2" depart="10.00" departLane="133126030#0_0" departPos="48.93" departSpeed="0.00" departDelay="0.77" arrival="40.00" arrivalLane="134193294#0_0" arrivalPos="56.83" arrivalSpeed="11.03" duration="30.00" routeLength="202.78" waitingTime="0.00" waitingCount="0" stopTime="0.00" timeLoss="15.31" rerouteNo="0" devices="tripinfo_flow_route_38_duration_20250327_1910.2" vType="car" speedFactor="0.94" vaporized=""/>
    <tripinfo id="flow_route_38_duration_20250327_1910.3" depart="15.00" departLane="133126030#0_0" departPos="118.89" departSpeed="0.00" departDelay="1.16" arrival="41.00" arrivalLane="134193294#0_0" arrivalPos="102.28" arrivalSpeed="13.48" duration="26.00" routeLength="178.27" waitingTime="0.00" waitingCount="0" stopTime="0.00" timeLoss="11.89" rerouteNo="0" devices="tripinfo_flow_route_38_duration_20250327_1910.3" vType="car" speedFactor="0.83" vaporized=""/>
    <tripinfo id="flow_route_43_duration_20250327_1910.3" depart="14.00" departLane="1328664744#0_0" departPos="109.28" departSpeed="0.00" departDelay="0.16" arrival="59.00" arrivalLane="134193294#0_3" arrivalPos="118.64" arrivalSpeed="14.35" duration="45.00" routeLength="249.43" waitingTime="6.00" waitingCount="1" stopTime="0.00" timeLoss="26.25" rerouteNo="0" devices="tripinfo_flow_route_43_duration_20250327_1910.3" vType="car" speedFactor="0.87" vaporized=""/>
    <tripinfo id="flow_route_43_duration_20250327_1910.1" depart="6.00" departLane="1328664744#0_0" departPos="52.52" departSpeed="0.00" departDelay="1.39" arrival="61.00" arrivalLane="134193294#0_3" arrivalPos="87.99" arrivalSpeed="13.60" duration="55.00" routeLength="275.55" waitingTime="4.00" waitingCount="1" stopTime="0.00" timeLoss="36.97" rerouteNo="0" devices="tripinfo_flow_route_43_duration_20250327_1910.1" vType="car" speedFactor="1.03" vaporized=""/>
    <tripinfo id="flow_route_43_duration_20250327_1910.8" depart="37.00" departLane="1328664744#0_0" departPos="200.41" departSpeed="0.00" departDelay="0.08" arrival="68.00" arrivalLane="134193294#0_3" arrivalPos="168.27" arrivalSpeed="16.45" duration="31.00" routeLength="207.93" waitingTime="7.00" waitingCount="1" stopTime="0.00" timeLoss="17.33" rerouteNo="0" devices="tripinfo_flow_route_43_duration_20250327_1910.8" vType="car" speedFactor="0.99" vaporized=""/>
    <tripinfo id="flow_route_43_duration_20250327_1910.0" depart="0.00" departLane="1328664744#0_0" departPos="1.34" departSpeed="0.00" departDelay="0.00" arrival="72.00" arrivalLane="134193294#0_3" arrivalPos="84.30" arrivalSpeed="14.16" duration="72.00" routeLength="323.03" waitingTime="2.00" waitingCount="1" stopTime="0.00" timeLoss="51.24" rerouteNo="0" devices="tripinfo_flow_route_43_duration_20250327_1910.0" vType="car" speedFactor="1.08" vaporized=""/>
    <tripinfo id="flow_route_43_duration_20250327_1910.5" depart="24.00" departLane="1328664744#0_0" departPos="138.71" departSpeed="0.00" departDelay="0.93" arrival="75.00" arrivalLane="134193294#0_3" arrivalPos="167.56" arrivalSpeed="15.74" duration="51.00" routeLength="268.93" waitingTime="4.00" waitingCount="2" stopTime="0.00" timeLoss="32.51" rerouteNo="0" devices="tripinfo_flow_route_43_duration_20250327_1910.5" vType="car" speedFactor="0.96" vaporized=""/>
    <tripinfo id="flow_route_43_duration_20250327_1910.12" depart="56.00" departLane="1328664744#0_0" departPos="200.74" departSpeed="0.00" departDelay="0.62" arrival="78.00" arrivalLane="134193294#0_3" arrivalPos="99.35" arrivalSpeed="14.26" duration="22.00" routeLength="138.68" waitingTime="1.00" waitingCount="1" stopTime="0.00" timeLoss="11.11" rerouteNo="0" devices="tripinfo_flow_route_43_duration_20250327_1910.12" vType="car" speedFactor="0.92" vaporized=""/>
    <tripinfo id="flow_route_43_duration_20250327_1910.2" depart="10.00" departLane="1328664744#0_0" departPos="37.26" departSpeed="0.00" departDelay="0.77" arrival="82.00" arrivalLane="134193294#0_3" arrivalPos="21.51" arrivalSpeed="8.24" duration="72.00" routeLength="224.32" waitingTime="2.00" waitingCount="1" stopTime="0.00" timeLoss="57.65" rerouteNo="0" devices="tripinfo_flow_route_43_duration_20250327_1910.2" vType="car" speedFactor="1.16" vaporized=""/>
    <tripinfo id="flow_route_43_duration_20250327_1910.4" depart="19.00" departLane="1328664744#0_0" departPos="17.75" departSpeed="0.00" departDelay="0.54" arrival="86.00" arrivalLane="134193294#0_3" arrivalPos="35.54" arrivalSpeed="10.32" duration="67.00" routeLength="257.86" waitingTime="0.00" waitingCount="0" stopTime="0.00" timeLoss="50.50" rerouteNo="0" devices="tripinfo_flow_route_43_duration_20250327_1910.4" vType="car" speedFactor="1.17" vaporized=""/>
    <tripinfo id="flow_route_45_duration_20250327_1910.4" depart="14.00" departLane="791826085_0" departPos="313.07" departSpeed="0.00" departDelay="2.57" arrival="93.00" arrivalLane="485211947#0_0" arrivalPos="16.49" arrivalSpeed="7.46" duration="79.00" routeLength="39.19" waitingTime="66.00" waitingCount="1" stopTime="0.00" timeLoss="75.32" rerouteNo="0" devices="tripinfo_flow_route_45_duration_20250327_1910.4" vType="car" speedFactor="0.89" vaporized=""/>
    <tripinfo id="flow_route_44_duration_20250327_1910.3" depart="8.00" departLane="791826085_0" departPos="311.97" departSpeed="0.00" departDelay="0.80" arrival="95.00" arrivalLane="134193294#0_0" arrivalPos="27.29" arrivalSpeed="9.56" duration="87.00" routeLength="69.69" waitingTime="66.00" waitingCount="1" stopTime="0.00" timeLoss="82.13" rerouteNo="0" devices="tripinfo_flow_route_44_duration_20250327_1910.3" vType="car" speedFactor="0.93" vaporized=""/>
    <tripinfo id="flow_route_44_duration_20250327_1910.1" depart="3.00" departLane="791826085_0" departPos="285.55" departSpeed="0.00" departDelay="0.60" arrival="96.00" arrivalLane="134193294#0_0" arrivalPos="45.37" arrivalSpeed="11.27" duration="93.00" routeLength="114.19" waitingTime="68.00" waitingCount="1" stopTime="0.00" timeLoss="84.76" rerouteNo="0" devices="tripinfo_flow_route_44_duration_20250327_1910.1" vType="car" speedFactor="0.89" vaporized=""/>
    <tripinfo id="flow_route_45_duration_20250327_1910.3" depart="9.00" departLane="791826085_0" departPos="223.42" departSpeed="0.00" departDelay="0.43" arrival="97.00" arrivalLane="485211947#0_0" arrivalPos="5.53" arrivalSpeed="6.27" duration="88.00" routeLength="117.86" waitingTime="60.00" waitingCount="1" stopTime="0.00" timeLoss="78.52" rerouteNo="0" devices="tripinfo_flow_route_45_duration_20250327_1910.3" vType="car" speedFactor="0.88" vaporized=""/>
    <tripinfo id="flow_route_45_duration_20250327_1910.0" depart="0.00" departLane="791826085_0" departPos="152.03" departSpeed="0.00" departDelay="0.00" arrival="100.00" arrivalLane="485211947#0_0" arrivalPos="8.08" arrivalSpeed="5.59" duration="100.00" routeLength="191.81" waitingTime="59.00" waitingCount="1" stopTime="0.00" timeLoss="84.87" rerouteNo="0" devices="tripinfo_flow_route_45_duration_20250327_1910.0" vType="car" speedFactor="0.83" vaporized=""/>
    <tripinfo id="flow_route_44_duration_20250327_1910.0" depart="0.00" departLane="791826085_0" departPos="219.49" departSpeed="0.00" departDelay="0.00" arrival="101.00" arrivalLane="134193294#0_2" arrivalPos="101.20" arrivalSpeed="14.54" duration="101.00" routeLength="236.08" waitingTime="64.00" waitingCount="1" stopTime="0.00" timeLoss="85.94" rerouteNo="0" devices="tripinfo_flow_route_44_duration_20250327_1910.0" vType="car" speedFactor="1.03" vaporized=""/>
    <tripinfo id="flow_route_45_duration_20250327_1910.2" depart="6.00" departLane="791826085_0" departPos="249.33" departSpeed="0.00" departDelay="0.29" arrival="102.00" arrivalLane="485211947#0_0" arrivalPos="73.48" arrivalSpeed="12.32" duration="96.00" routeLength="159.91" waitingTime="63.00" waitingCount="1" stopTime="0.00" timeLoss="84.68" rerouteNo="0" devices="tripinfo_flow_route_45_duration_20250327_1910.2" vType="car" speedFactor="0.99" vaporized=""/>
    <tripinfo id="flow_route_44_duration_20250327_1910.4" depart="10.00" departLane="791826085_0" departPos="186.42" departSpeed="0.00" departDelay="0.40" arrival="102.00" arrivalLane="134193294#0_1" arrivalPos="70.56" arrivalSpeed="13.16" duration="92.00" routeLength="238.51" waitingTime="54.00" waitingCount="1" stopTime="0.00" timeLoss="77.41" rerouteNo="0" devices="tripinfo_flow_route_44_duration_20250327_1910.4" vType="car" speedFactor="1.02" vaporized=""/>
    <tripinfo id="flow_route_45_duration_20250327_1910.1" depart="3.00" departLane="791826085_0" departPos="105.00" departSpeed="0.00" departDelay="0.14" arrival="103.00" arrivalLane="485211947#0_0" arrivalPos="11.17" arrivalSpeed="7.40" duration="100.00" routeLength="241.92" waitingTime="60.00" waitingCount="1" stopTime="0.00" timeLoss="83.15" rerouteNo="0" devices="tripinfo_flow_route_45_duration_20250327_1910.1" vType="car" speedFactor="0.94" vaporized=""/>
    <tripinfo id="flow_route_44_duration_20250327_1910.6" depart="15.00" departLane="791826085_0" departPos="9.08" departSpeed="0.00" departDelay="0.60" arrival="103.00" arrivalLane="134193294#0_1" arrivalPos="28.89" arrivalSpeed="11.15" duration="88.00" routeLength="374.18" waitingTime="40.00" waitingCount="1" stopTime="0.00" timeLoss="63.93" rerouteNo="0" devices="tripinfo_flow_route_44_duration_20250327_1910.6" vType="car" speedFactor="0.95" vaporized=""/>
    <tripinfo id="flow_route_44_duration_20250327_1910.8" depart="20.00" departLane="791826085_0" departPos="138.02" departSpeed="0.00" departDelay="0.80" arrival="104.00" arrivalLane="134193294#0_1" arrivalPos="60.36" arrivalSpeed="12.89" duration="84.00" routeLength="276.70" waitingTime="43.00" waitingCount="1" stopTime="0.00" timeLoss="66.82" rerouteNo="0" devices="tripinfo_flow_route_44_duration_20250327_1910.8" vType="car" speedFactor="1.02" vaporized=""/>
    <tripinfo id="flow_route_44_duration_20250327_1910.5" depart="14.00" departLane="791826085_0" departPos="304.95" departSpeed="0.00" departDelay="2.00" arrival="105.00" arrivalLane="134193294#0_1" arrivalPos="139.24" arrivalSpeed="16.02" duration="91.00" routeLength="188.66" waitingTime="61.00" waitingCount="1" stopTime="0.00" timeLoss="78.99" rerouteNo="0" devices="tripinfo_flow_route_44_duration_20250327_1910.5" vType="car" speedFactor="0.97" vaporized=""/>
    <tripinfo id="flow_route_46_duration_20250327_1910.0" depart="1.00" departLane="791826085_0" departPos="184.68" departSpeed="0.00" departDelay="1.00" arrival="106.00" arrivalLane="1328664748#0_1" arrivalPos="165.37" arrivalSpeed="16.47" duration="105.00" routeLength="329.48" waitingTime="62.00" waitingCount="1" stopTime="0.00" timeLoss="84.06" rerouteNo="0" devices="tripinfo_flow_route_46_duration_20250327_1910.0" vType="car" speedFactor="1.05" vaporized=""/>
    <tripinfo id="flow_route_46_duration_20250327_1910.4" depart="20.00" departLane="791826085_0" departPos="127.11" departSpeed="0.00" departDelay="0.00" arrival="106.00" arrivalLane="1328664748#0_1" arrivalPos="47.25" arrivalSpeed="12.29" duration="86.00" routeLength="268.93" waitingTime="42.00" waitingCount="1" stopTime="0.00" timeLoss="68.90" rerouteNo="0" devices="tripinfo_flow_route_46_duration_20250327_1910.4" vType="car" speedFactor="1.18" vaporized=""/>
    <tripinfo id="flow_route_44_duration_20250327_1910.2" depart="6.00" departLane="791826085_0" departPos="10.57" departSpeed="0.00" departDelay="1.20" arrival="107.00" arrivalLane="134193294#0_1" arrivalPos="52.67" arrivalSpeed="12.60" duration="101.00" routeLength="396.47" waitingTime="40.00" waitingCount="1" stopTime="0.00" timeLoss="76.54" rerouteNo="0" devices="tripinfo_flow_route_44_duration_20250327_1910.2" vType="car" speedFactor="1.05" vaporized=""/>
    <tripinfo id="flow_route_46_duration_20250327_1910.1" depart="6.00" departLane="791826085_0" departPos="98.41" departSpeed="0.00" departDelay="1.00" arrival="107.00" arrivalLane="1328664748#0_1" arrivalPos="140.94" arrivalSpeed="16.35" duration="101.00" routeLength="391.32" waitingTime="52.00" waitingCount="1" stopTime="0.00" timeLoss="76.03" rerouteNo="0" devices="tripinfo_flow_route_46_duration_20250327_1910.1" vType="car" speedFactor="1.12" vaporized=""/>
    <tripinfo id="flow_route_46_duration_20250327_1910.3" depart="18.00" departLane="791826085_0" departPos="102.36" departSpeed="0.00" departDelay="3.00" arrival="107.00" arrivalLane="1328664748#0_1" arrivalPos="40.80" arrivalSpeed="11.82" duration="89.00" routeLength="287.23" waitingTime="41.00" waitingCount="1" stopTime="0.00" timeLoss="69.59" rerouteNo="0" devices="tripinfo_flow_route_46_duration_20250327_1910.3" vType="car" speedFactor="0.93" vaporized=""/>
    <tripinfo id="flow_route_46_duration_20250327_1910.5" depart="28.00" departLane="791826085_0" departPos="254.71" departSpeed="0.00" departDelay="3.00" arrival="107.00" arrivalLane="1328664748#0_1" arrivalPos="94.58" arrivalSpeed="14.50" duration="79.00" routeLength="188.66" waitingTime="43.00" waitingCount="1" stopTime="0.00" timeLoss="66.92" rerouteNo="0" devices="tripinfo_flow_route_46_duration_20250327_1910.5" vType="car" speedFactor="1.04" vaporized=""/>
    <tripinfo id="flow_route_44_duration_20250327_1910.10" depart="28.00" departLane="791826085_0" departPos="215.84" departSpeed="0.00" departDelay="4.00" arrival="108.00" arrivalLane="134193294#0_0" arrivalPos="4.09" arrivalSpeed="9.16" duration="80.00" routeLength="142.62" waitingTime="49.00" waitingCount="1" stopTime="0.00" timeLoss="71.26" rerouteNo="0" devices="tripinfo_flow_route_44_duration_20250327_1910.10" vType="car" speedFactor="1.09" vaporized=""/>
    <tripinfo id="flow_route_45_duration_20250327_1910.7" depart="20.00" departLane="791826085_0" departPos="200.61" departSpeed="0.00" departDelay="0.00" arrival="110.00" arrivalLane="485211947#0_0" arrivalPos="53.74" arrivalSpeed="10.60" duration="90.00" routeLength="188.89" waitingTime="54.00" waitingCount="1" stopTime="0.00" timeLoss="76.86" rerouteNo="0" devices="tripinfo_flow_route_45_duration_20250327_1910.7" vType="car" speedFactor="0.97" vaporized=""/>
    <tripinfo id="flow_route_44_duration_20250327_1910.9" depart="24.00" departLane="791826085_0" departPos="98.73" departSpeed="0.00" departDelay="2.40" arrival="111.00" arrivalLane="134193294#0_1" arrivalPos="87.97" arrivalSpeed="15.86" duration="87.00" routeLength="343.61" waitingTime="39.00" waitingCount="1" stopTime="0.00" timeLoss="65.88" rerouteNo="0" devices="tripinfo_flow_route_44_duration_20250327_1910.9" vType="car" speedFactor="1.10" vaporized=""/>
    <tripinfo id="flow_route_46_duration_20250327_1910.2" depart="10.00" departLane="791826085_0" departPos="78.72" departSpeed="0.00" departDelay="0.00" arrival="113.00" arrivalLane="1328664748#0_1" arrivalPos="214.60" arrivalSpeed="16.42" duration="103.00" routeLength="484.67" waitingTime="46.00" waitingCount="1" stopTime="0.00" timeLoss="72.61" rerouteNo="0" devices="tripinfo_flow_route_46_duration_20250327_1910.2" vType="car" speedFactor="1.01" vaporized=""/>
    <tripinfo id="flow_route_46_duration_20250327_1910.6" depart="43.00" departLane="791826085_0" departPos="150.96" departSpeed="0.00" departDelay="13.00" arrival="113.00" arrivalLane="1328664748#0_1" arrivalPos="106.80" arrivalSpeed="15.81" duration="70.00" routeLength="304.63" waitingTime="27.00" waitingCount="1" stopTime="0.00" timeLoss="50.93" rerouteNo="0" devices="tripinfo_flow_route_46_duration_20250327_1910.6" vType="car" speedFactor="1.02" vaporized=""/>
    <tripinfo id="flow_route_44_duration_20250327_1910.14" depart="46.00" departLane="791826085_0" departPos="42.23" departSpeed="0.00" departDelay="12.40" arrival="115.00" arrivalLane="134193294#0_1" arrivalPos="65.09" arrivalSpeed="15.38" duration="69.00" routeLength="377.23" waitingTime="18.00" waitingCount="1" stopTime="0.00" timeLoss="45.63" rerouteNo="0" devices="tripinfo_flow_route_44_duration_20250327_1910.14" vType="car" speedFactor="1.14" vaporized=""/>
    <tripinfo id="flow_route_44_duration_20250327_1910.17" depart="64.00" departLane="791826085_0" departPos="119.21" departSpeed="0.00" departDelay="23.20" arrival="115.00" arrivalLane="134193294#0_1" arrivalPos="19.61" arrivalSpeed="13.55" duration="51.00" routeLength="254.77" waitingTime="11.00" waitingCount="1" stopTime="0.00" timeLoss="35.32" rerouteNo="0" devices="tripinfo_flow_route_44_duration_20250327_1910.17" vType="car" speedFactor="1.02" vaporized=""/>
    <tripinfo id="flow_route_44_duration_20250327_1910.11" depart="34.00" departLane="791826085_0" departPos="222.04" departSpeed="0.00" departDelay="7.60" arrival="116.00" arrivalLane="134193294#0_0" arrivalPos="70.52" arrivalSpeed="14.69" duration="82.00" routeLength="202.84" waitingTime="46.00" waitingCount="1" stopTime="0.00" timeLoss="68.96" rerouteNo="0" devices="tripinfo_flow_route_44_duration_20250327_1910.11" vType="car" speedFactor="1.00" vaporized=""/>
    <tripinfo id="flow_route_44_duration_20250327_1910.7" depart="18.00" departLane="791826085_0" departPos="110.56" departSpeed="0.00" departDelay="1.20" arrival="117.00" arrivalLane="134193294#0_1" arrivalPos="159.21" arrivalSpeed="16.38" duration="99.00" routeLength="403.01" waitingTime="39.00" waitingCount="1" stopTime="0.00" timeLoss="74.60" rerouteNo="0" devices="tripinfo_flow_route_44_duration_20250327_1910.7" vType="car" speedFactor="1.18" vaporized=""/>
    <tripinfo id="flow_route_44_duration_20250327_1910.13" depart="44.00" departLane="791826085_0" departPos="50.01" departSpeed="0.00" departDelay="12.80" arrival="118.00" arrivalLane="134193294#0_1" arrivalPos="145.03" arrivalSpeed="16.59" duration="74.00" routeLength="449.39" waitingTime="19.00" waitingCount="1" stopTime="0.00" timeLoss="46.51" rerouteNo="0" devices="tripinfo_flow_route_44_duration_20250327_1910.13" vType="car" speedFactor="1.10" vaporized=""/>
    <tripinfo id="flow_route_44_duration_20250327_1910.16" depart="53.00" departLane="791826085_0" departPos="140.33" departSpeed="0.00" departDelay="14.60" arrival="118.00" arrivalLane="134193294#0_1" arrivalPos="80.67" arrivalSpeed="14.56" duration="65.00" routeLength="294.72" waitingTime="16.00" waitingCount="1" stopTime="0.00" timeLoss="44.24" rerouteNo="0" devices="tripinfo_flow_route_44_duration_20250327_1910.16" vType="car" speedFactor="0.88" vaporized=""/>
    <tripinfo id="flow_route_44_duration_20250327_1910.19" depart="70.00" departLane="791826085_0" departPos="92.86" departSpeed="0.00" departDelay="24.40" arrival="118.00" arrivalLane="134193294#0_2" arrivalPos="27.04" arrivalSpeed="14.03" duration="48.00" routeLength="288.54" waitingTime="5.00" waitingCount="1" stopTime="0.00" timeLoss="30.29" rerouteNo="0" devices="tripinfo_flow_route_44_duration_20250327_1910.19" vType="car" speedFactor="1.03" vaporized=""/>
    <tripinfo id="flow_route_44_duration_20250327_1910.12" depart="39.00" departLane="791826085_0" departPos="110.51" departSpeed="0.00" departDelay="10.20" arrival="119.00" arrivalLane="134193294#0_2" arrivalPos="122.36" arrivalSpeed="13.89" duration="80.00" routeLength="366.21" waitingTime="21.00" waitingCount="1" stopTime="0.00" timeLoss="53.24" rerouteNo="0" devices="tripinfo_flow_route_44_duration_20250327_1910.12" vType="car" speedFactor="0.85" vaporized=""/>
    <tripinfo id="flow_route_44_duration_20250327_1910.20" depart="71.00" departLane="791826085_0" departPos="177.63" departSpeed="0.00" departDelay="23.00" arrival="119.00" arrivalLane="134193294#0_1" arrivalPos="55.04" arrivalSpeed="15.56" duration="48.00" routeLength="231.78" waitingTime="5.00" waitingCount="1" stopTime="0.00" timeLoss="33.80" rerouteNo="0" devices="tripinfo_flow_route_44_duration_20250327_1910.20" vType="car" speedFactor="1.03" vaporized=""/>
    <tripinfo id="flow_route_46_duration_20250327_1910.7" depart="51.00" departLane="791826085_0" departPos="185.76" departSpeed="0.00" departDelay="16.00" arrival="120.00" arrivalLane="1328664748#0_1" arrivalPos="190.58" arrivalSpeed="16.40" duration="69.00" routeLength="353.61" waitingTime="24.00" waitingCount="1" stopTime="0.00" timeLoss="46.88" rerouteNo="0" devices="tripinfo_flow_route_46_duration_20250327_1910.7" vType="car" speedFactor="1.08" vaporized=""/>
    <tripinfo id="flow_route_46_duration_20250327_1910.8" depart="63.00" departLane="791826085_0" departPos="101.06" departSpeed="0.00" departDelay="23.00" arrival="120.00" arrivalLane="1328664748#0_1" arrivalPos="108.22" arrivalSpeed="16.17" duration="57.00" routeLength="355.95" waitingTime="9.00" waitingCount="1" stopTime="0.00" timeLoss="34.31" rerouteNo="0" devices="tripinfo_flow_route_46_duration_20250327_1910.8" vType="car" speedFactor="1.04" vaporized=""/>
    <tripinfo id="flow_route_44_duration_20250327_1910.18" depart="66.00" departLane="791826085_0" departPos="15.97" departSpeed="0.00" departDelay="22.80" arrival="120.00" arrivalLane="134193294#0_1" arrivalPos="35.60" arrivalSpeed="15.83" duration="54.00" routeLength="373.99" waitingTime="0.00" waitingCount="0" stopTime="0.00" timeLoss="30.62" rerouteNo="0" devices="tripinfo_flow_route_44_duration_20250327_1910.18" vType="car" speedFactor="1.06" vaporized=""/>
    <tripinfo id="flow_route_45_duration_20250327_1910.11" depart="45.00" departLane="791826085_0" departPos="145.00" departSpeed="0.00" departDelay="13.57" arrival="121.00" arrivalLane="485211947#0_0" arrivalPos="28.45" arrivalSpeed="8.70" duration="76.00" routeLength="219.22" waitingTime="31.00" waitingCount="1" stopTime="0.00" timeLoss="61.16" rerouteNo="0" devices="tripinfo_flow_route_45_duration_20250327_1910.11" vType="car" speedFactor="1.00" vaporized=""/>
    <tripinfo id="flow_route_44_duration_20250327_1910.21" depart="87.00" departLane="791826085_0" departPos="15.82" departSpeed="0.00" departDelay="36.60" arrival="121.00" arrivalLane="134193294#0_1" arrivalPos="14.51" arrivalSpeed="14.94" duration="34.00" routeLength="353.06" waitingTime="0.00" waitingCount="0" stopTime="0.00" timeLoss="12.70" rerouteNo="0" devices="tripinfo_flow_route_44_duration_20250327_1910.21" vType="car" speedFactor="1.00" vaporized=""/>
    <tripinfo id="flow_route_45_duration_20250327_1910.14" depart="55.00" departLane="791826085_0" departPos="128.64" departSpeed="0.00" departDelay="15.00" arrival="122.00" arrivalLane="485211947#0_0" arrivalPos="2.16" arrivalSpeed="6.19" duration="67.00" routeLength="209.28" waitingTime="25.00" waitingCount="1" stopTime="0.00" timeLoss="52.39" rerouteNo="0" devices="tripinfo_flow_route_45_duration_20250327_1910.14" vType="car" speedFactor="0.91" vaporized=""/>
    <tripinfo id="flow_route_46_duration_20250327_1910.10" depart="76.00" departLane="791826085_0" departPos="125.54" departSpeed="0.00" departDelay="26.00" arrival="122.00" arrivalLane="1328664748#0_1" arrivalPos="49.09" arrivalSpeed="12.75" duration="46.00" routeLength="272.33" waitingTime="2.00" waitingCount="1" stopTime="0.00" timeLoss="28.15" rerouteNo="0" devices="tripinfo_flow_route_46_duration_20250327_1910.10" vType="car" speedFactor="0.97" vaporized=""/>
    <tripinfo id="flow_route_45_duration_20250327_1910.6" depart="19.00" departLane="791826085_0" departPos="58.92" departSpeed="0.00" departDelay="1.86" arrival="124.00" arrivalLane="485211947#0_0" arrivalPos="183.86" arrivalSpeed="16.21" duration="105.00" routeLength="460.70" waitingTime="42.00" waitingCount="1" stopTime="0.00" timeLoss="75.96" rerouteNo="0" devices="tripinfo_flow_route_45_duration_20250327_1910.6" vType="car" speedFactor="1.15" vaporized=""/>
    <tripinfo id="flow_route_45_duration_20250327_1910.8" depart="24.00" departLane="791826085_0" departPos="34.15" departSpeed="0.00" departDelay="1.14" arrival="125.00" arrivalLane="485211947#0_0" arrivalPos="108.40" arrivalSpeed="13.78" duration="101.00" routeLength="410.01" waitingTime="42.00" waitingCount="1" stopTime="0.00" timeLoss="72.79" rerouteNo="0" devices="tripinfo_flow_route_45_duration_20250327_1910.8" vType="car" speedFactor="0.90" vaporized=""/>
    <tripinfo id="flow_route_44_duration_20250327_1910.15" depart="51.00" departLane="791826085_0" departPos="11.29" departSpeed="0.00" departDelay="15.00" arrival="125.00" arrivalLane="134193294#0_2" arrivalPos="162.07" arrivalSpeed="16.13" duration="74.00" routeLength="505.14" waitingTime="7.00" waitingCount="1" stopTime="0.00" timeLoss="43.06" rerouteNo="0" devices="tripinfo_flow_route_44_duration_20250327_1910.15" vType="car" speedFactor="1.12" vaporized=""/>
    <tripinfo id="flow_route_44_duration_20250327_1910.22" depart="89.00" departLane="791826085_0" departPos="116.44" departSpeed="0.00" departDelay="36.20" arrival="125.00" arrivalLane="134193294#0_1" arrivalPos="100.94" arrivalSpeed="16.17" duration="36.00" routeLength="338.87" waitingTime="0.00" waitingCount="0" stopTime="0.00" timeLoss="15.32" rerouteNo="0" devices="tripinfo_flow_route_44_duration_20250327_1910.22" vType="car" speedFactor="1.01" vaporized=""/>
    <tripinfo id="flow_route_45_duration_20250327_1910.5" depart="17.00" departLane="791826085_0" departPos="21.84" departSpeed="0.00" departDelay="2.72" arrival="126.00" arrivalLane="485211947#0_0" arrivalPos="176.93" arrivalSpeed="16.59" duration="109.00" routeLength="490.85" waitingTime="42.00" waitingCount="1" stopTime="0.00" timeLoss="77.81" rerouteNo="0" devices="tripinfo_flow_route_45_duration_20250327_1910.5" vType="car" speedFactor="1.13" vaporized=""/>
    <tripinfo id="flow_route_45_duration_20250327_1910.9" depart="30.00" departLane="791826085_0" departPos="13.89" departSpeed="0.00" departDelay="4.29" arrival="129.00" arrivalLane="485211947#0_0" arrivalPos="106.29" arrivalSpeed="14.65" duration="99.00" routeLength="428.16" waitingTime="29.00" waitingCount="1" stopTime="0.00" timeLoss="71.85" rerouteNo="0" devices="tripinfo_flow_route_45_duration_20250327_1910.9" vType="car" speedFactor="1.09" vaporized=""/>
    <tripinfo id="flow_route_38_duration_20250327_1910.6" depart="28.00" departLane="133126030#0_0" departPos="131.97" departSpeed="0.00" departDelay="0.31" arrival="131.00" arrivalLane="134193294#0_0" arrivalPos="17.42" arrivalSpeed="6.54" duration="103.00" routeLength="80.33" waitingTime="82.00" waitingCount="1" stopTime="0.00" timeLoss="96.59" rerouteNo="0" devices="tripinfo_flow_route_38_duration_20250327_1910.6" vType="car" speedFactor="0.90" vaporized=""/>
    <tripinfo id="flow_route_38_duration_20250327_1910.8" depart="38.00" departLane="133126030#0_0" departPos="147.85" departSpeed="0.00" departDelay="1.08" arrival="131.00" arrivalLane="134193294#0_0" arrivalPos="2.51" arrivalSpeed="5.16" duration="93.00" routeLength="49.54" waitingTime="76.00" waitingCount="1" stopTime="0.00" timeLoss="89.24" rerouteNo="0" devices="tripinfo_flow_route_38_duration_20250327_1910.8" vType="car" speedFactor="1.02" vaporized=""/>
    <tripinfo id="flow_route_46_duration_20250327_1910.9" depart="69.00" departLane="791826085_0" departPos="65.86" departSpeed="0.00" departDelay="24.00" arrival="132.00" arrivalLane="1328664748#0_1" arrivalPos="160.89" arrivalSpeed="16.04" duration="63.00" routeLength="443.82" waitingTime="0.00" waitingCount="0" stopTime="0.00" timeLoss="33.99" rerouteNo="0" devices="tripinfo_flow_route_46_duration_20250327_1910.9" vType="car" speedFactor="0.98" vaporized=""/>
    <tripinfo id="flow_route_38_duration_20250327_1910.7" depart="33.00" departLane="133126030#0_0" departPos="109.15" departSpeed="0.00" departDelay="0.70" arrival="139.00" arrivalLane="134193294#0_0" arrivalPos="59.11" arrivalSpeed="11.28" duration="106.00" routeLength="144.83" waitingTime="75.00" waitingCount="1" stopTime="0.00" timeLoss="96.27" rerouteNo="0" devices="tripinfo_flow_route_38_duration_20250327_1910.7" vType="car" speedFactor="1.00" vaporized=""/>