<?xml version="1.0" encoding="UTF-8"?>

<!-- generated on 2025-05-06 21:09:15 by Eclipse SUMO sumo Version 1.20.0
<configuration xmlns:xsi="http://www.w3.org/2001/XMLSchema-instance" xsi:noNamespaceSchemaLocation="http://sumo.dlr.de/xsd/sumoConfiguration.xsd">

    <input>
        <net-file value="osm.net.xml"/>
        <route-files value="xml/route_rl_J7_9.rou.xml"/>
    </input>

    <output>
        <tripinfo-output value="xml/tripinfo_rl_J7_9.xml"/>
    </output>

    <traci_server>
        <remote-port value="60603"/>
    </traci_server>

</configuration>
-->

<tripinfos xmlns:xsi="http://www.w3.org/2001/XMLSchema-instance" xsi:noNamespaceSchemaLocation="http://sumo.dlr.de/xsd/tripinfo_file.xsd">
    <tripinfo id="flow_route_127_duration_20250327_2010.1" depart="3.00" departLane="-138000461_0" departPos="174.20" departSpeed="0.00" departDelay="0.00" arrival="21.00" arrivalLane="189240000#0-AddedOnRampEdge_0" arrivalPos="28.99" arrivalSpeed="12.39" duration="18.00" routeLength="113.90" waitingTime="0.00" waitingCount="0" stopTime="0.00" timeLoss="10.47" rerouteNo="0" devices="tripinfo_flow_route_127_duration_20250327_2010.1" vType="car" speedFactor="1.03" vaporized=""/>
    <tripinfo id="flow_route_121_duration_20250327_2010.1" depart="3.00" departLane="799091563#0_0" departPos="356.57" departSpeed="0.00" departDelay="0.14" arrival="26.00" arrivalLane="134194079#0_0" arrivalPos="151.34" arrivalSpeed="15.90" duration="23.00" routeLength="183.92" waitingTime="0.00" waitingCount="0" stopTime="0.00" timeLoss="11.00" rerouteNo="0" devices="tripinfo_flow_route_121_duration_20250327_2010.1" vType="car" speedFactor="1.09" vaporized=""/>
    <tripinfo id="flow_route_131_duration_20250327_2010.0" depart="0.00" departLane="714011134#0_0" departPos="6.35" departSpeed="0.00" departDelay="0.00" arrival="28.00" arrivalLane="134194079#0_1" arrivalPos="73.02" arrivalSpeed="14.32" duration="28.00" routeLength="232.63" waitingTime="0.00" waitingCount="0" stopTime="0.00" timeLoss="11.48" rerouteNo="0" devices="tripinfo_flow_route_131_duration_20250327_2010.0" vType="car" speedFactor="0.89" vaporized=""/>
    <tripinfo id="flow_route_127_duration_20250327_2010.0" depart="0.00" departLane="-138000461_0" departPos="55.90" departSpeed="0.00" departDelay="0.00" arrival="31.00" arrivalLane="189240000#0-AddedOnRampEdge_0" arrivalPos="70.17" arrivalSpeed="13.68" duration="31.00" routeLength="273.38" waitingTime="0.00" waitingCount="0" stopTime="0.00" timeLoss="14.01" rerouteNo="0" devices="tripinfo_flow_route_127_duration_20250327_2010.0" vType="car" speedFactor="1.05" vaporized=""/>
    <tripinfo id="flow_route_132_duration_20250327_2010.0" depart="0.00" departLane="714011134#0_0" departPos="92.28" departSpeed="0.00" departDelay="0.00" arrival="35.00" arrivalLane="189240000#0-AddedOnRampEdge_1" arrivalPos="51.48" arrivalSpeed="15.31" duration="35.00" routeLength="375.34" waitingTime="0.00" waitingCount="0" stopTime="0.00" timeLoss="10.17" rerouteNo="0" devices="tripinfo_flow_route_132_duration_20250327_2010.0" vType="car" speedFactor="0.94" vaporized=""/>
    <tripinfo id="flow_route_127_duration_20250327_2010.5" depart="17.00" departLane="-138000461_0" departPos="143.43" departSpeed="0.00" departDelay="2.00" arrival="35.00" arrivalLane="189240000#0-AddedOnRampEdge_0" arrivalPos="8.12" arrivalSpeed="11.05" duration="18.00" routeLength="123.81" waitingTime="0.00" waitingCount="0" stopTime="0.00" timeLoss="10.32" rerouteNo="0" devices="tripinfo_flow_route_127_duration_20250327_2010.5" vType="car" speedFactor="1.17" vaporized=""/>
    <tripinfo id="flow_route_116_duration_20250327_2010.0" depart="0.00" departLane="177211987#1_0" departPos="0.88" departSpeed="0.00" departDelay="0.00" arrival="38.00" arrivalLane="688883939#0_1" arrivalPos="93.94" arrivalSpeed="16.27" duration="38.00" routeLength="448.08" waitingTime="0.00" waitingCount="0" stopTime="0.00" timeLoss="10.63" rerouteNo="0" devices="tripinfo_flow_route_116_duration_20250327_2010.0" vType="car" speedFactor="1.06" vaporized=""/>
    <tripinfo id="flow_route_132_duration_20250327_2010.3" depart="8.00" departLane="714011134#0_0" departPos="101.65" departSpeed="0.00" departDelay="1.08" arrival="39.00" arrivalLane="189240000#0-AddedOnRampEdge_1" arrivalPos="12.21" arrivalSpeed="15.58" duration="31.00" routeLength="326.70" waitingTime="0.00" waitingCount="0" stopTime="0.00" timeLoss="9.85" rerouteNo="0" devices="tripinfo_flow_route_132_duration_20250327_2010.3" vType="car" speedFactor="0.94" vaporized=""/>
    <tripinfo id="flow_route_131_duration_20250327_2010.1" depart="9.00" departLane="714011134#0_0" departPos="70.41" departSpeed="0.00" departDelay="0.43" arrival="39.00" arrivalLane="134194079#0_0" arrivalPos="168.64" arrivalSpeed="16.14" duration="30.00" routeLength="264.18" waitingTime="0.00" waitingCount="0" stopTime="0.00" timeLoss="13.42" rerouteNo="0" devices="tripinfo_flow_route_131_duration_20250327_2010.1" vType="car" speedFactor="0.97" vaporized=""/>
    <tripinfo id="flow_route_116_duration_20250327_2010.1" depart="11.00" departLane="177211987#1_0" departPos="84.90" departSpeed="0.00" departDelay="2.43" arrival="41.00" arrivalLane="688883939#0_1" arrivalPos="27.84" arrivalSpeed="16.11" duration="30.00" routeLength="297.96" waitingTime="0.00" waitingCount="0" stopTime="0.00" timeLoss="11.36" rerouteNo="0" devices="tripinfo_flow_route_116_duration_20250327_2010.1" vType="car" speedFactor="1.16" vaporized=""/>
    <tripinfo id="flow_route_132_duration_20250327_2010.5" depart="12.00" departLane="714011134#0_0" departPos="97.81" departSpeed="0.00" departDelay="0.47" arrival="43.00" arrivalLane="189240000#0-AddedOnRampEdge_1" arrivalPos="14.33" arrivalSpeed="15.07" duration="31.00" routeLength="332.66" waitingTime="0.00" waitingCount="0" stopTime="0.00" timeLoss="9.33" rerouteNo="0" devices="tripinfo_flow_route_132_duration_20250327_2010.5" vType="car" speedFactor="0.93" vaporized=""/>
    <tripinfo id="flow_route_127_duration_20250327_2010.3" depart="9.00" departLane="-138000461_0" departPos="18.81" departSpeed="0.00" departDelay="0.00" arrival="44.00" arrivalLane="189240000#0-AddedOnRampEdge_0" arrivalPos="15.86" arrivalSpeed="10.79" duration="35.00" routeLength="256.15" waitingTime="0.00" waitingCount="0" stopTime="0.00" timeLoss="18.85" rerouteNo="0" devices="tripinfo_flow_route_127_duration_20250327_2010.3" vType="car" speedFactor="1.01" vaporized=""/>
    <tripinfo id="flow_route_127_duration_20250327_2010.6" depart="19.00" departLane="-138000461_0" departPos="132.13" departSpeed="0.00" departDelay="1.00" arrival="45.00" arrivalLane="189240000#0-AddedOnRampEdge_0" arrivalPos="77.94" arrivalSpeed="13.61" duration="26.00" routeLength="204.92" waitingTime="0.00" waitingCount="0" stopTime="0.00" timeLoss="12.09" rerouteNo="0" devices="tripinfo_flow_route_127_duration_20250327_2010.6" vType="car" speedFactor="0.90" vaporized=""/>
    <tripinfo id="flow_route_127_duration_20250327_2010.2" depart="7.00" departLane="-138000461_0" departPos="26.50" departSpeed="0.00" departDelay="1.00" arrival="48.00" arrivalLane="189240000#0-AddedOnRampEdge_0" arrivalPos="90.31" arrivalSpeed="14.99" duration="41.00" routeLength="322.92" waitingTime="0.00" waitingCount="0" stopTime="0.00" timeLoss="19.55" rerouteNo="0" devices="tripinfo_flow_route_127_duration_20250327_2010.2" vType="car" speedFactor="0.94" vaporized=""/>
    <tripinfo id="flow_route_132_duration_20250327_2010.1" depart="4.00" departLane="714011134#0_0" departPos="41.80" departSpeed="0.00" departDelay="1.69" arrival="49.00" arrivalLane="189240000#0-AddedOnRampEdge_1" arrivalPos="59.81" arrivalSpeed="16.47" duration="45.00" routeLength="434.15" waitingTime="0.00" waitingCount="0" stopTime="0.00" timeLoss="18.57" rerouteNo="0" devices="tripinfo_flow_route_132_duration_20250327_2010.1" vType="car" speedFactor="1.05" vaporized=""/>
    <tripinfo id="flow_route_132_duration_20250327_2010.2" depart="5.00" departLane="714011134#0_0" departPos="31.80" departSpeed="0.00" departDelay="0.39" arrival="49.00" arrivalLane="189240000#0-AddedOnRampEdge_1" arrivalPos="22.35" arrivalSpeed="16.24" duration="44.00" routeLength="406.69" waitingTime="0.00" waitingCount="0" stopTime="0.00" timeLoss="18.54" rerouteNo="0" devices="tripinfo_flow_route_132_duration_20250327_2010.2" vType="car" speedFactor="0.99" vaporized=""/>
    <tripinfo id="flow_route_127_duration_20250327_2010.4" depart="13.00" departLane="-138000461_0" departPos="14.15" departSpeed="0.00" departDelay="1.00" arrival="49.00" arrivalLane="189240000#0-AddedOnRampEdge_0" arrivalPos="60.58" arrivalSpeed="14.45" duration="36.00" routeLength="305.53" waitingTime="0.00" waitingCount="0" stopTime="0.00" timeLoss="16.88" rerouteNo="0" devices="tripinfo_flow_route_127_duration_20250327_2010.4" vType="car" speedFactor="1.13" vaporized=""/>
    <tripinfo id="flow_route_126_duration_20250327_2010.0" depart="0.00" departLane="-138000461_0" departPos="119.67" departSpeed="0.00" departDelay="0.00" arrival="52.00" arrivalLane="138000492#0_1" arrivalPos="18.35" arrivalSpeed="13.72" duration="52.00" routeLength="582.25" waitingTime="0.00" waitingCount="0" stopTime="0.00" timeLoss="9.08" rerouteNo="0" devices="tripinfo_flow_route_126_duration_20250327_2010.0" vType="car" speedFactor="0.83" vaporized=""/>
    <tripinfo id="flow_route_132_duration_20250327_2010.4" depart="11.00" departLane="714011134#0_0" departPos="17.75" departSpeed="0.00" departDelay="1.77" arrival="55.00" arrivalLane="189240000#0-AddedOnRampEdge_1" arrivalPos="65.29" arrivalSpeed="14.44" duration="44.00" routeLength="463.69" waitingTime="0.00" waitingCount="0" stopTime="0.00" timeLoss="11.64" rerouteNo="0" devices="tripinfo_flow_route_132_duration_20250327_2010.4" vType="car" speedFactor="0.87" vaporized=""/>
    <tripinfo id="flow_route_131_duration_20250327_2010.2" depart="25.00" departLane="714011134#0_0" departPos="16.18" departSpeed="0.00" departDelay="7.86" arrival="57.00" arrivalLane="134194079#0_1" arrivalPos="172.59" arrivalSpeed="16.49" duration="32.00" routeLength="322.37" waitingTime="0.00" waitingCount="0" stopTime="0.00" timeLoss="12.53" rerouteNo="0" devices="tripinfo_flow_route_131_duration_20250327_2010.2" vType="car" speedFactor="1.03" vaporized=""/>
    <tripinfo id="flow_route_127_duration_20250327_2010.12" depart="38.00" departLane="-138000461_0" departPos="156.61" departSpeed="0.00" departDelay="2.00" arrival="57.00" arrivalLane="189240000#0-AddedOnRampEdge_0" arrivalPos="17.99" arrivalSpeed="10.68" duration="19.00" routeLength="120.49" waitingTime="0.00" waitingCount="0" stopTime="0.00" timeLoss="10.63" rerouteNo="0" devices="tripinfo_flow_route_127_duration_20250327_2010.12" vType="car" speedFactor="0.96" vaporized=""/>
    <tripinfo id="flow_route_133_duration_20250327_2010.0" depart="0.00" departLane="714011134#0_0" departPos="33.93" departSpeed="0.00" departDelay="0.00" arrival="59.00" arrivalLane="138000492#0_0" arrivalPos="313.58" arrivalSpeed="14.27" duration="59.00" routeLength="604.48" waitingTime="0.00" waitingCount="0" stopTime="0.00" timeLoss="15.41" rerouteNo="0" devices="tripinfo_flow_route_133_duration_20250327_2010.0" vType="car" speedFactor="0.86" vaporized=""/>
    <tripinfo id="flow_route_132_duration_20250327_2010.7" depart="25.00" departLane="714011134#0_0" departPos="89.11" departSpeed="0.00" departDelay="8.85" arrival="60.00" arrivalLane="189240000#0-AddedOnRampEdge_1" arrivalPos="27.38" arrivalSpeed="16.43" duration="35.00" routeLength="354.42" waitingTime="0.00" waitingCount="0" stopTime="0.00" timeLoss="13.38" rerouteNo="0" devices="tripinfo_flow_route_132_duration_20250327_2010.7" vType="car" speedFactor="1.02" vaporized=""/>
    <tripinfo id="flow_route_117_duration_20250327_2010.0" depart="0.00" departLane="177211987#1_0" departPos="98.51" departSpeed="0.00" departDelay="0.00" arrival="61.00" arrivalLane="138000492#0_0" arrivalPos="299.85" arrivalSpeed="15.52" duration="61.00" routeLength="701.60" waitingTime="0.00" waitingCount="0" stopTime="0.00" timeLoss="15.82" rerouteNo="0" devices="tripinfo_flow_route_117_duration_20250327_2010.0" vType="car" speedFactor="0.94" vaporized=""/>
    <tripinfo id="flow_route_132_duration_20250327_2010.6" depart="17.00" departLane="714011134#0_0" departPos="22.38" departSpeed="0.00" departDelay="3.16" arrival="62.00" arrivalLane="189240000#0-AddedOnRampEdge_1" arrivalPos="16.90" arrivalSpeed="16.47" duration="45.00" routeLength="410.66" waitingTime="0.00" waitingCount="0" stopTime="0.00" timeLoss="19.92" rerouteNo="0" devices="tripinfo_flow_route_132_duration_20250327_2010.6" vType="car" speedFactor="1.18" vaporized=""/>
    <tripinfo id="flow_route_132_duration_20250327_2010.9" depart="27.00" departLane="714011134#0_0" departPos="103.38" departSpeed="0.00" departDelay="6.24" arrival="63.00" arrivalLane="189240000#0-AddedOnRampEdge_1" arrivalPos="91.72" arrivalSpeed="16.23" duration="36.00" routeLength="404.48" waitingTime="0.00" waitingCount="0" stopTime="0.00" timeLoss="10.76" rerouteNo="0" devices="tripinfo_flow_route_132_duration_20250327_2010.9" vType="car" speedFactor="1.00" vaporized=""/>
    <tripinfo id="flow_route_127_duration_20250327_2010.11" depart="33.00" departLane="-138000461_0" departPos="122.48" departSpeed="0.00" departDelay="0.00" arrival="63.00" arrivalLane="189240000#0-AddedOnRampEdge_0" arrivalPos="68.27" arrivalSpeed="12.62" duration="30.00" routeLength="204.90" waitingTime="0.00" waitingCount="0" stopTime="0.00" timeLoss="16.29" rerouteNo="0" devices="tripinfo_flow_route_127_duration_20250327_2010.11" vType="car" speedFactor="0.91" vaporized=""/>
    <tripinfo id="flow_route_132_duration_20250327_2010.11" depart="33.00" departLane="714011134#0_0" departPos="84.50" departSpeed="0.00" departDelay="7.62" arrival="64.00" arrivalLane="189240000#0-AddedOnRampEdge_1" arrivalPos="9.71" arrivalSpeed="16.41" duration="31.00" routeLength="341.36" waitingTime="0.00" waitingCount="0" stopTime="0.00" timeLoss="10.26" rerouteNo="0" devices="tripinfo_flow_route_132_duration_20250327_2010.11" vType="car" speedFactor="1.00" vaporized=""/>
    <tripinfo id="flow_route_127_duration_20250327_2010.9" depart="28.00" departLane="-138000461_0" departPos="99.39" departSpeed="0.00" departDelay="1.00" arrival="64.00" arrivalLane="189240000#0-AddedOnRampEdge_0" arrivalPos="51.85" arrivalSpeed="12.91" duration="36.00" routeLength="211.58" waitingTime="0.00" waitingCount="0" stopTime="0.00" timeLoss="21.48" rerouteNo="0" devices="tripinfo_flow_route_127_duration_20250327_2010.9" vType="car" speedFactor="0.90" vaporized=""/>
    <tripinfo id="flow_route_131_duration_20250327_2010.3" depart="33.00" departLane="714011134#0_0" departPos="38.63" departSpeed="0.00" departDelay="7.29" arrival="65.00" arrivalLane="134194079#0_1" arrivalPos="169.15" arrivalSpeed="16.45" duration="32.00" routeLength="296.48" waitingTime="0.00" waitingCount="0" stopTime="0.00" timeLoss="13.36" rerouteNo="0" devices="tripinfo_flow_route_131_duration_20250327_2010.3" vType="car" speedFactor="1.00" vaporized=""/>
    <tripinfo id="flow_route_127_duration_20250327_2010.10" depart="32.00" departLane="-138000461_0" departPos="94.37" departSpeed="0.00" departDelay="2.00" arrival="68.00" arrivalLane="189240000#0-AddedOnRampEdge_0" arrivalPos="85.83" arrivalSpeed="14.34" duration="36.00" routeLength="250.58" waitingTime="0.00" waitingCount="0" stopTime="0.00" timeLoss="20.41" rerouteNo="0" devices="tripinfo_flow_route_127_duration_20250327_2010.10" vType="car" speedFactor="1.02" vaporized=""/>
    <tripinfo id="flow_route_127_duration_20250327_2010.13" depart="40.00" departLane="-138000461_0" departPos="40.28" departSpeed="0.00" departDelay="1.00" arrival="69.00" arrivalLane="189240000#0-AddedOnRampEdge_0" arrivalPos="11.28" arrivalSpeed="10.13" duration="29.00" routeLength="230.11" waitingTime="0.00" waitingCount="0" stopTime="0.00" timeLoss="13.72" rerouteNo="0" devices="tripinfo_flow_route_127_duration_20250327_2010.13" vType="car" speedFactor="0.98" vaporized=""/>
    <tripinfo id="flow_route_127_duration_20250327_2010.8" depart="25.00" departLane="-138000461_0" departPos="58.60" departSpeed="0.00" departDelay="1.00" arrival="70.00" arrivalLane="189240000#0-AddedOnRampEdge_0" arrivalPos="67.34" arrivalSpeed="12.12" duration="45.00" routeLength="267.85" waitingTime="0.00" waitingCount="0" stopTime="0.00" timeLoss="25.50" rerouteNo="0" devices="tripinfo_flow_route_127_duration_20250327_2010.8" vType="car" speedFactor="0.85" vaporized=""/>
    <tripinfo id="flow_route_131_duration_20250327_2010.4" depart="45.00" departLane="714011134#0_0" departPos="3.32" departSpeed="0.00" departDelay="10.72" arrival="70.00" arrivalLane="134194079#0_1" arrivalPos="67.19" arrivalSpeed="16.18" duration="25.00" routeLength="229.83" waitingTime="0.00" waitingCount="0" stopTime="0.00" timeLoss="10.78" rerouteNo="0" devices="tripinfo_flow_route_131_duration_20250327_2010.4" vType="car" speedFactor="0.97" vaporized=""/>
    <tripinfo id="flow_route_127_duration_20250327_2010.7" depart="24.00" departLane="-138000461_0" departPos="9.00" departSpeed="0.00" departDelay="3.00" arrival="71.00" arrivalLane="189240000#0-AddedOnRampEdge_0" arrivalPos="54.16" arrivalSpeed="12.14" duration="47.00" routeLength="304.27" waitingTime="0.00" waitingCount="0" stopTime="0.00" timeLoss="27.68" rerouteNo="0" devices="tripinfo_flow_route_127_duration_20250327_2010.7" vType="car" speedFactor="1.09" vaporized=""/>
    <tripinfo id="flow_route_132_duration_20250327_2010.13" depart="37.00" departLane="714011134#0_0" departPos="83.58" departSpeed="0.00" departDelay="7.01" arrival="71.00" arrivalLane="189240000#0-AddedOnRampEdge_1" arrivalPos="38.88" arrivalSpeed="16.18" duration="34.00" routeLength="371.45" waitingTime="0.00" waitingCount="0" stopTime="0.00" timeLoss="10.57" rerouteNo="0" devices="tripinfo_flow_route_132_duration_20250327_2010.13" vType="car" speedFactor="0.99" vaporized=""/>
    <tripinfo id="flow_route_132_duration_20250327_2010.8" depart="27.00" departLane="714011134#0_0" departPos="1.54" departSpeed="0.00" departDelay="8.54" arrival="74.00" arrivalLane="189240000#0-AddedOnRampEdge_2" arrivalPos="9.89" arrivalSpeed="15.72" duration="47.00" routeLength="424.49" waitingTime="0.00" waitingCount="0" stopTime="0.00" timeLoss="19.52" rerouteNo="0" devices="tripinfo_flow_route_132_duration_20250327_2010.8" vType="car" speedFactor="0.96" vaporized=""/>
    <tripinfo id="flow_route_132_duration_20250327_2010.10" depart="28.00" departLane="714011134#0_0" departPos="36.45" departSpeed="0.00" departDelay="4.93" arrival="74.00" arrivalLane="189240000#0-AddedOnRampEdge_1" arrivalPos="13.33" arrivalSpeed="13.93" duration="46.00" routeLength="393.02" waitingTime="0.00" waitingCount="0" stopTime="0.00" timeLoss="17.71" rerouteNo="0" devices="tripinfo_flow_route_132_duration_20250327_2010.10" vType="car" speedFactor="0.85" vaporized=""/>
    <tripinfo id="flow_route_132_duration_20250327_2010.12" depart="34.00" departLane="714011134#0_0" departPos="13.65" departSpeed="0.00" departDelay="6.32" arrival="76.00" arrivalLane="189240000#0-AddedOnRampEdge_1" arrivalPos="15.81" arrivalSpeed="16.49" duration="42.00" routeLength="418.31" waitingTime="0.00" waitingCount="0" stopTime="0.00" timeLoss="15.88" rerouteNo="0" devices="tripinfo_flow_route_132_duration_20250327_2010.12" vType="car" speedFactor="1.14" vaporized=""/>
    <tripinfo id="flow_route_133_duration_20250327_2010.1" depart="20.00" departLane="714011134#0_0" departPos="74.91" departSpeed="0.00" departDelay="5.00" arrival="80.00" arrivalLane="138000492#0_1" arrivalPos="238.68" arrivalSpeed="16.58" duration="60.00" routeLength="488.61" waitingTime="6.00" waitingCount="1" stopTime="0.00" timeLoss="29.30" rerouteNo="0" devices="tripinfo_flow_route_133_duration_20250327_2010.1" vType="car" speedFactor="0.99" vaporized=""/>
    <tripinfo id="flow_route_131_duration_20250327_2010.5" depart="56.00" departLane="714011134#0_0" departPos="26.29" departSpeed="0.00" departDelay="13.15" arrival="80.00" arrivalLane="134194079#0_0" arrivalPos="55.46" arrivalSpeed="16.44" duration="24.00" routeLength="195.14" waitingTime="0.00" waitingCount="0" stopTime="0.00" timeLoss="11.47" rerouteNo="0" devices="tripinfo_flow_route_131_duration_20250327_2010.5" vType="car" speedFactor="1.04" vaporized=""/>
    <tripinfo id="flow_route_132_duration_20250327_2010.14" depart="43.00" departLane="714011134#0_0" departPos="36.54" departSpeed="0.00" departDelay="10.70" arrival="82.00" arrivalLane="189240000#0-AddedOnRampEdge_1" arrivalPos="41.97" arrivalSpeed="15.07" duration="39.00" routeLength="421.57" waitingTime="0.00" waitingCount="0" stopTime="0.00" timeLoss="10.92" rerouteNo="0" devices="tripinfo_flow_route_132_duration_20250327_2010.14" vType="car" speedFactor="0.91" vaporized=""/>
    <tripinfo id="flow_route_133_duration_20250327_2010.2" depart="42.00" departLane="714011134#0_0" departPos="24.28" departSpeed="0.00" departDelay="12.00" arrival="83.00" arrivalLane="138000492#0_1" arrivalPos="48.12" arrivalSpeed="11.63" duration="41.00" routeLength="348.68" waitingTime="0.00" waitingCount="0" stopTime="0.00" timeLoss="17.79" rerouteNo="0" devices="tripinfo_flow_route_133_duration_20250327_2010.2" vType="car" speedFactor="0.94" vaporized=""/>
    <tripinfo id="flow_route_127_duration_20250327_2010.15" depart="51.00" departLane="-138000461_0" departPos="38.82" departSpeed="0.00" departDelay="6.00" arrival="84.00" arrivalLane="189240000#0-AddedOnRampEdge_0" arrivalPos="4.62" arrivalSpeed="9.56" duration="33.00" routeLength="224.91" waitingTime="0.00" waitingCount="0" stopTime="0.00" timeLoss="18.97" rerouteNo="0" devices="tripinfo_flow_route_127_duration_20250327_2010.15" vType="car" speedFactor="1.02" vaporized=""/>
    <tripinfo id="flow_route_127_duration_20250327_2010.16" depart="58.00" departLane="-138000461_0" departPos="80.44" departSpeed="0.00" departDelay="10.00" arrival="85.00" arrivalLane="189240000#0-AddedOnRampEdge_0" arrivalPos="36.34" arrivalSpeed="12.29" duration="27.00" routeLength="215.01" waitingTime="0.00" waitingCount="0" stopTime="0.00" timeLoss="12.98" rerouteNo="0" devices="tripinfo_flow_route_127_duration_20250327_2010.16" vType="car" speedFactor="1.06" vaporized=""/>
    <tripinfo id="flow_route_127_duration_20250327_2010.14" depart="44.00" departLane="-138000461_0" departPos="2.81" departSpeed="0.00" departDelay="2.00" arrival="86.00" arrivalLane="189240000#0-AddedOnRampEdge_0" arrivalPos="1.10" arrivalSpeed="9.30" duration="42.00" routeLength="257.40" waitingTime="0.00" waitingCount="0" stopTime="0.00" timeLoss="25.40" rerouteNo="0" devices="tripinfo_flow_route_127_duration_20250327_2010.14" vType="car" speedFactor="0.97" vaporized=""/>
    <tripinfo id="flow_route_132_duration_20250327_2010.16" depart="52.00" departLane="714011134#0_0" departPos="53.36" departSpeed="0.00" departDelay="15.09" arrival="88.00" arrivalLane="189240000#0-AddedOnRampEdge_1" arrivalPos="53.68" arrivalSpeed="16.12" duration="36.00" routeLength="416.46" waitingTime="0.00" waitingCount="0" stopTime="0.00" timeLoss="10.52" rerouteNo="0" devices="tripinfo_flow_route_132_duration_20250327_2010.16" vType="car" speedFactor="0.98" vaporized=""/>
    <tripinfo id="flow_route_132_duration_20250327_2010.15" depart="48.00" departLane="714011134#0_0" departPos="35.98" departSpeed="0.00" departDelay="13.40" arrival="89.00" arrivalLane="189240000#0-AddedOnRampEdge_1" arrivalPos="18.44" arrivalSpeed="15.24" duration="41.00" routeLength="398.60" waitingTime="0.00" waitingCount="0" stopTime="0.00" timeLoss="14.64" rerouteNo="0" devices="tripinfo_flow_route_132_duration_20250327_2010.15" vType="car" speedFactor="0.94" vaporized=""/>
    <tripinfo id="flow_route_122_duration_20250327_2010.0" depart="1.00" departLane="799091563#0_0" departPos="17.54" departSpeed="0.00" departDelay="1.00" arrival="92.00" arrivalLane="688883939#0_2" arrivalPos="62.20" arrivalSpeed="14.17" duration="91.00" routeLength="483.30" waitingTime="38.00" waitingCount="1" stopTime="0.00" timeLoss="61.10" rerouteNo="0" devices="tripinfo_flow_route_122_duration_20250327_2010.0" vType="car" speedFactor="1.03" vaporized=""/>
    <tripinfo id="flow_route_121_duration_20250327_2010.3" depart="9.00" departLane="799091563#0_0" departPos="308.22" departSpeed="0.00" departDelay="0.43" arrival="93.00" arrivalLane="134194079#0_0" arrivalPos="65.83" arrivalSpeed="10.60" duration="84.00" routeLength="146.77" waitingTime="52.00" waitingCount="1" stopTime="0.00" timeLoss="73.32" rerouteNo="0" devices="tripinfo_flow_route_121_duration_20250327_2010.3" vType="car" speedFactor="1.02" vaporized=""/>
    <tripinfo id="flow_route_122_duration_20250327_2010.2" depart="10.00" departLane="799091563#0_0" departPos="116.87" departSpeed="0.00" departDelay="0.00" arrival="94.00" arrivalLane="688883939#0_2" arrivalPos="62.86" arrivalSpeed="13.71" duration="84.00" routeLength="384.63" waitingTime="36.00" waitingCount="1" stopTime="0.00" timeLoss="55.24" rerouteNo="0" devices="tripinfo_flow_route_122_duration_20250327_2010.2" vType="car" speedFactor="0.83" vaporized=""/>
    <tripinfo id="flow_route_127_duration_20250327_2010.18" depart="59.00" departLane="-138000461_0" departPos="42.84" departSpeed="0.00" departDelay="5.00" arrival="94.00" arrivalLane="189240000#0-AddedOnRampEdge_0" arrivalPos="57.05" arrivalSpeed="13.01" duration="35.00" routeLength="273.32" waitingTime="0.00" waitingCount="0" stopTime="0.00" timeLoss="18.04" rerouteNo="0" devices="tripinfo_flow_route_127_duration_20250327_2010.18" vType="car" speedFactor="1.01" vaporized=""/>
    <tripinfo id="flow_route_122_duration_20250327_2010.1" depart="5.00" departLane="799091563#0_0" departPos="12.31" departSpeed="0.00" departDelay="0.00" arrival="95.00" arrivalLane="688883939#0_2" arrivalPos="57.39" arrivalSpeed="13.95" duration="90.00" routeLength="483.72" waitingTime="35.00" waitingCount="1" stopTime="0.00" timeLoss="60.61" rerouteNo="0" devices="tripinfo_flow_route_122_duration_20250327_2010.1" vType="car" speedFactor="1.12" vaporized=""/>
    <tripinfo id="flow_route_132_duration_20250327_2010.17" depart="55.00" departLane="714011134#0_0" departPos="36.77" departSpeed="0.00" departDelay="15.78" arrival="95.00" arrivalLane="189240000#0-AddedOnRampEdge_1" arrivalPos="69.77" arrivalSpeed="16.18" duration="40.00" routeLength="449.14" waitingTime="0.00" waitingCount="0" stopTime="0.00" timeLoss="12.10" rerouteNo="0" devices="tripinfo_flow_route_132_duration_20250327_2010.17" vType="car" speedFactor="1.00" vaporized=""/>
    <tripinfo id="flow_route_133_duration_20250327_2010.3" depart="66.00" departLane="714011134#0_0" departPos="104.37" departSpeed="0.00" departDelay="21.00" arrival="95.00" arrivalLane="138000492#0_1" arrivalPos="13.27" arrivalSpeed="11.76" duration="29.00" routeLength="233.74" waitingTime="0.00" waitingCount="0" stopTime="0.00" timeLoss="11.97" rerouteNo="0" devices="tripinfo_flow_route_133_duration_20250327_2010.3" vType="car" speedFactor="0.89" vaporized=""/>
    <tripinfo id="flow_route_121_duration_20250327_2010.2" depart="6.00" departLane="799091563#0_0" departPos="260.14" departSpeed="0.00" departDelay="0.29" arrival="96.00" arrivalLane="134194079#0_0" arrivalPos="46.94" arrivalSpeed="9.34" duration="90.00" routeLength="175.96" waitingTime="50.00" waitingCount="1" stopTime="0.00" timeLoss="76.31" rerouteNo="0" devices="tripinfo_flow_route_121_duration_20250327_2010.2" vType="car" speedFactor="0.88" vaporized=""/>
    <tripinfo id="flow_route_122_duration_20250327_2010.4" depart="25.00" departLane="799091563#0_0" departPos="251.87" departSpeed="0.00" departDelay="5.00" arrival="97.00" arrivalLane="688883939#0_2" arrivalPos="44.82" arrivalSpeed="14.28" duration="72.00" routeLength="231.59" waitingTime="31.00" waitingCount="1" stopTime="0.00" timeLoss="57.25" rerouteNo="0" devices="tripinfo_flow_route_122_duration_20250327_2010.4" vType="car" speedFactor="1.04" vaporized=""/>
    <tripinfo id="flow_route_127_duration_20250327_2010.17" depart="58.00" departLane="-138000461_0" departPos="31.59" departSpeed="0.00" departDelay="7.00" arrival="98.00" arrivalLane="189240000#0-AddedOnRampEdge_0" arrivalPos="75.35" arrivalSpeed="14.84" duration="40.00" routeLength="302.88" waitingTime="0.00" waitingCount="0" stopTime="0.00" timeLoss="21.14" rerouteNo="0" devices="tripinfo_flow_route_127_duration_20250327_2010.17" vType="car" speedFactor="1.06" vaporized=""/>
    <tripinfo id="flow_route_121_duration_20250327_2010.0" depart="1.00" departLane="799091563#0_0" departPos="259.58" departSpeed="0.00" departDelay="1.00" arrival="100.00" arrivalLane="134194079#0_0" arrivalPos="144.99" arrivalSpeed="15.37" duration="99.00" routeLength="274.57" waitingTime="51.00" waitingCount="1" stopTime="0.00" timeLoss="81.47" rerouteNo="0" devices="tripinfo_flow_route_121_duration_20250327_2010.0" vType="car" speedFactor="1.08" vaporized=""/>
    <tripinfo id="flow_route_122_duration_20250327_2010.3" depart="15.00" departLane="799091563#0_0" departPos="17.79" departSpeed="0.00" departDelay="0.00" arrival="100.00" arrivalLane="688883939#0_2" arrivalPos="35.74" arrivalSpeed="13.29" duration="85.00" routeLength="456.59" waitingTime="28.00" waitingCount="1" stopTime="0.00" timeLoss="57.47" rerouteNo="0" devices="tripinfo_flow_route_122_duration_20250327_2010.3" vType="car" speedFactor="1.01" vaporized=""/>
    <tripinfo id="flow_route_121_duration_20250327_2010.4" depart="12.00" departLane="799091563#0_0" departPos="105.88" departSpeed="0.00" departDelay="0.57" arrival="102.00" arrivalLane="134194079#0_0" arrivalPos="54.09" arrivalSpeed="9.89" duration="90.00" routeLength="337.37" waitingTime="33.00" waitingCount="1" stopTime="0.00" timeLoss="67.09" rerouteNo="0" devices="tripinfo_flow_route_121_duration_20250327_2010.4" vType="car" speedFactor="0.95" vaporized=""/>