<?xml version="1.0" encoding="UTF-8"?>

<!-- generated on 2025-05-06 21:08:14 by Eclipse SUMO sumo Version 1.20.0
<configuration xmlns:xsi="http://www.w3.org/2001/XMLSchema-instance" xsi:noNamespaceSchemaLocation="http://sumo.dlr.de/xsd/sumoConfiguration.xsd">

    <input>
        <net-file value="osm.net.xml"/>
        <route-files value="xml/route_static_cluster_3839031475_3839031476_4110471700_4234582615_3.rou.xml"/>
    </input>

    <output>
        <tripinfo-output value="xml/tripinfo_static_cluster_3839031475_3839031476_4110471700_4234582615_3.xml"/>
    </output>

    <traci_server>
        <remote-port value="47107"/>
    </traci_server>

</configuration>
-->

<tripinfos xmlns:xsi="http://www.w3.org/2001/XMLSchema-instance" xsi:noNamespaceSchemaLocation="http://sumo.dlr.de/xsd/tripinfo_file.xsd">
    <tripinfo id="flow_route_85_duration_20250327_2100.0" depart="0.00" departLane="1091883842_0" departPos="162.60" departSpeed="0.00" departDelay="0.00" arrival="16.00" arrivalLane="133000063_0" arrivalPos="42.63" arrivalSpeed="9.42" duration="16.00" routeLength="74.77" waitingTime="0.00" waitingCount="0" stopTime="0.00" timeLoss="9.16" rerouteNo="0" devices="tripinfo_flow_route_85_duration_20250327_2100.0" vType="car" speedFactor="0.89" vaporized=""/>
    <tripinfo id="flow_route_79_duration_20250327_2100.0" depart="0.00" departLane="380344611#0_0" departPos="128.21" departSpeed="0.00" departDelay="0.00" arrival="28.00" arrivalLane="423956929_1" arrivalPos="91.18" arrivalSpeed="16.56" duration="28.00" routeLength="278.79" waitingTime="0.00" waitingCount="0" stopTime="0.00" timeLoss="10.65" rerouteNo="0" devices="tripinfo_flow_route_79_duration_20250327_2100.0" vType="car" speedFactor="1.08" vaporized=""/>
    <tripinfo id="flow_route_80_duration_20250327_2100.0" depart="0.00" departLane="380344611#0_0" departPos="160.58" departSpeed="0.00" departDelay="0.00" arrival="32.00" arrivalLane="380593307#0_0" arrivalPos="102.42" arrivalSpeed="13.80" duration="32.00" routeLength="234.46" waitingTime="0.00" waitingCount="0" stopTime="0.00" timeLoss="17.04" rerouteNo="0" devices="tripinfo_flow_route_80_duration_20250327_2100.0" vType="car" speedFactor="1.03" vaporized=""/>
    <tripinfo id="flow_route_84_duration_20250327_2100.0" depart="0.00" departLane="1091883842_0" departPos="11.19" departSpeed="0.00" departDelay="0.00" arrival="37.00" arrivalLane="136617981_0" arrivalPos="210.65" arrivalSpeed="16.43" duration="37.00" routeLength="417.75" waitingTime="0.00" waitingCount="0" stopTime="0.00" timeLoss="11.44" rerouteNo="0" devices="tripinfo_flow_route_84_duration_20250327_2100.0" vType="car" speedFactor="1.05" vaporized=""/>
    <tripinfo id="flow_route_84_duration_20250327_2100.1" depart="8.00" departLane="1091883842_0" departPos="164.84" departSpeed="0.00" departDelay="0.50" arrival="37.00" arrivalLane="136617981_0" arrivalPos="233.63" arrivalSpeed="16.14" duration="29.00" routeLength="287.07" waitingTime="0.00" waitingCount="0" stopTime="0.00" timeLoss="11.08" rerouteNo="0" devices="tripinfo_flow_route_84_duration_20250327_2100.1" vType="car" speedFactor="1.05" vaporized=""/>
    <tripinfo id="flow_route_81_duration_20250327_2100.0" depart="0.00" departLane="380344611#0_0" departPos="75.01" departSpeed="0.00" departDelay="0.00" arrival="39.00" arrivalLane="133000063_2" arrivalPos="7.51" arrivalSpeed="7.56" duration="39.00" routeLength="248.37" waitingTime="1.00" waitingCount="1" stopTime="0.00" timeLoss="20.14" rerouteNo="0" devices="tripinfo_flow_route_81_duration_20250327_2100.0" vType="car" speedFactor="0.83" vaporized=""/>
    <tripinfo id="flow_route_81_duration_20250327_2100.1" depart="7.00" departLane="380344611#0_0" departPos="266.28" departSpeed="0.00" departDelay="1.00" arrival="39.00" arrivalLane="133000063_2" arrivalPos="52.89" arrivalSpeed="10.50" duration="32.00" routeLength="102.48" waitingTime="8.00" waitingCount="1" stopTime="0.00" timeLoss="24.98" rerouteNo="0" devices="tripinfo_flow_route_81_duration_20250327_2100.1" vType="car" speedFactor="1.03" vaporized=""/>
    <tripinfo id="flow_route_81_duration_20250327_2100.2" depart="12.00" departLane="380344611#0_0" departPos="271.26" departSpeed="0.00" departDelay="0.00" arrival="39.00" arrivalLane="133000063_2" arrivalPos="27.40" arrivalSpeed="9.12" duration="27.00" routeLength="72.01" waitingTime="7.00" waitingCount="1" stopTime="0.00" timeLoss="20.99" rerouteNo="0" devices="tripinfo_flow_route_81_duration_20250327_2100.2" vType="car" speedFactor="0.88" vaporized=""/>
    <tripinfo id="flow_route_81_duration_20250327_2100.3" depart="18.00" departLane="380344611#0_0" departPos="230.17" departSpeed="0.00" departDelay="0.00" arrival="45.00" arrivalLane="133000063_2" arrivalPos="38.43" arrivalSpeed="10.79" duration="27.00" routeLength="124.13" waitingTime="0.00" waitingCount="0" stopTime="0.00" timeLoss="18.72" rerouteNo="0" devices="tripinfo_flow_route_81_duration_20250327_2100.3" vType="car" speedFactor="1.16" vaporized=""/>
    <tripinfo id="flow_route_90_duration_20250327_2100.0" depart="0.00" departLane="380585338#0_0" departPos="118.71" departSpeed="0.00" departDelay="0.00" arrival="51.00" arrivalLane="136617981_0" arrivalPos="211.18" arrivalSpeed="13.91" duration="51.00" routeLength="279.54" waitingTime="11.00" waitingCount="1" stopTime="0.00" timeLoss="29.90" rerouteNo="0" devices="tripinfo_flow_route_90_duration_20250327_2100.0" vType="car" speedFactor="0.86" vaporized=""/>
    <tripinfo id="flow_route_89_duration_20250327_2100.1" depart="5.00" departLane="380585338#0_0" departPos="89.08" departSpeed="0.00" departDelay="0.72" arrival="51.00" arrivalLane="380593307#0_0" arrivalPos="8.02" arrivalSpeed="8.30" duration="46.00" routeLength="129.21" waitingTime="14.00" waitingCount="2" stopTime="0.00" timeLoss="37.75" rerouteNo="0" devices="tripinfo_flow_route_89_duration_20250327_2100.1" vType="car" speedFactor="1.09" vaporized=""/>
    <tripinfo id="flow_route_89_duration_20250327_2100.3" depart="19.00" departLane="380585338#0_0" departPos="15.46" departSpeed="0.00" departDelay="6.15" arrival="54.00" arrivalLane="380593307#0_1" arrivalPos="5.18" arrivalSpeed="9.61" duration="35.00" routeLength="199.99" waitingTime="1.00" waitingCount="1" stopTime="0.00" timeLoss="21.85" rerouteNo="0" devices="tripinfo_flow_route_89_duration_20250327_2100.3" vType="car" speedFactor="0.94" vaporized=""/>
    <tripinfo id="flow_route_89_duration_20250327_2100.4" depart="19.00" departLane="380585338#0_0" departPos="116.02" departSpeed="0.00" departDelay="1.86" arrival="54.00" arrivalLane="380593307#0_1" arrivalPos="29.16" arrivalSpeed="11.02" duration="35.00" routeLength="123.41" waitingTime="8.00" waitingCount="1" stopTime="0.00" timeLoss="27.22" rerouteNo="0" devices="tripinfo_flow_route_89_duration_20250327_2100.4" vType="car" speedFactor="1.02" vaporized=""/>
    <tripinfo id="flow_route_89_duration_20250327_2100.6" depart="27.00" departLane="380585338#0_0" departPos="11.63" departSpeed="0.00" departDelay="1.29" arrival="54.00" arrivalLane="380593307#0_2" arrivalPos="4.83" arrivalSpeed="8.66" duration="27.00" routeLength="203.47" waitingTime="0.00" waitingCount="0" stopTime="0.00" timeLoss="13.51" rerouteNo="0" devices="tripinfo_flow_route_89_duration_20250327_2100.6" vType="car" speedFactor="0.92" vaporized=""/>
    <tripinfo id="flow_route_89_duration_20250327_2100.2" depart="9.00" departLane="380585338#0_0" departPos="41.11" departSpeed="0.00" departDelay="0.43" arrival="56.00" arrivalLane="380593307#0_2" arrivalPos="68.85" arrivalSpeed="11.98" duration="47.00" routeLength="238.01" waitingTime="9.00" waitingCount="1" stopTime="0.00" timeLoss="32.54" rerouteNo="0" devices="tripinfo_flow_route_89_duration_20250327_2100.2" vType="car" speedFactor="1.12" vaporized=""/>
    <tripinfo id="flow_route_89_duration_20250327_2100.0" depart="0.00" departLane="380585338#0_0" departPos="55.91" departSpeed="0.00" departDelay="0.00" arrival="57.00" arrivalLane="380593307#0_0" arrivalPos="94.67" arrivalSpeed="14.31" duration="57.00" routeLength="249.03" waitingTime="18.00" waitingCount="1" stopTime="0.00" timeLoss="40.45" rerouteNo="0" devices="tripinfo_flow_route_89_duration_20250327_2100.0" vType="car" speedFactor="0.94" vaporized=""/>
    <tripinfo id="flow_route_77_duration_20250327_2100.0" depart="0.00" departLane="133342692#0_0" departPos="115.39" departSpeed="0.00" departDelay="0.00" arrival="58.00" arrivalLane="423956929_0" arrivalPos="132.19" arrivalSpeed="14.96" duration="58.00" routeLength="199.33" waitingTime="26.00" waitingCount="1" stopTime="0.00" timeLoss="43.92" rerouteNo="0" devices="tripinfo_flow_route_77_duration_20250327_2100.0" vType="car" speedFactor="0.94" vaporized=""/>
    <tripinfo id="flow_route_89_duration_20250327_2100.7" depart="30.00" departLane="380585338#0_0" departPos="50.37" departSpeed="0.00" departDelay="0.01" arrival="58.00" arrivalLane="380593307#0_1" arrivalPos="35.97" arrivalSpeed="12.02" duration="28.00" routeLength="195.87" waitingTime="0.00" waitingCount="0" stopTime="0.00" timeLoss="16.11" rerouteNo="0" devices="tripinfo_flow_route_89_duration_20250327_2100.7" vType="car" speedFactor="1.17" vaporized=""/>
    <tripinfo id="flow_route_89_duration_20250327_2100.8" depart="35.00" departLane="380585338#0_0" departPos="73.49" departSpeed="0.00" departDelay="0.72" arrival="59.00" arrivalLane="380593307#0_2" arrivalPos="36.87" arrivalSpeed="13.60" duration="24.00" routeLength="173.65" waitingTime="0.00" waitingCount="0" stopTime="0.00" timeLoss="12.81" rerouteNo="0" devices="tripinfo_flow_route_89_duration_20250327_2100.8" vType="car" speedFactor="0.99" vaporized=""/>
    <tripinfo id="flow_route_76_duration_20250327_2100.0" depart="0.00" departLane="133342692#0_0" departPos="1.03" departSpeed="0.00" departDelay="0.00" arrival="62.00" arrivalLane="133000063_0" arrivalPos="153.47" arrivalSpeed="16.14" duration="62.00" routeLength="359.35" waitingTime="16.00" waitingCount="1" stopTime="0.00" timeLoss="39.56" rerouteNo="0" devices="tripinfo_flow_route_76_duration_20250327_2100.0" vType="car" speedFactor="1.06" vaporized=""/>
    <tripinfo id="flow_route_90_duration_20250327_2100.2" depart="19.00" departLane="380585338#0_0" departPos="124.26" departSpeed="0.00" departDelay="1.86" arrival="62.00" arrivalLane="136617981_0" arrivalPos="162.01" arrivalSpeed="16.29" duration="43.00" routeLength="224.82" waitingTime="6.00" waitingCount="1" stopTime="0.00" timeLoss="28.68" rerouteNo="0" devices="tripinfo_flow_route_90_duration_20250327_2100.2" vType="car" speedFactor="1.01" vaporized=""/>
    <tripinfo id="flow_route_90_duration_20250327_2100.1" depart="9.00" departLane="380585338#0_0" departPos="5.63" departSpeed="0.00" departDelay="0.43" arrival="64.00" arrivalLane="136617981_0" arrivalPos="154.27" arrivalSpeed="15.92" duration="55.00" routeLength="335.71" waitingTime="6.00" waitingCount="1" stopTime="0.00" timeLoss="33.82" rerouteNo="0" devices="tripinfo_flow_route_90_duration_20250327_2100.1" vType="car" speedFactor="0.99" vaporized=""/>
    <tripinfo id="flow_route_89_duration_20250327_2100.5" depart="26.00" departLane="380585338#0_0" departPos="94.95" departSpeed="0.00" departDelay="4.58" arrival="65.00" arrivalLane="380593307#0_2" arrivalPos="162.33" arrivalSpeed="14.76" duration="39.00" routeLength="277.66" waitingTime="0.00" waitingCount="0" stopTime="0.00" timeLoss="19.75" rerouteNo="0" devices="tripinfo_flow_route_89_duration_20250327_2100.5" vType="car" speedFactor="0.89" vaporized=""/>
    <tripinfo id="flow_route_77_duration_20250327_2100.1" depart="30.00" departLane="133342692#0_0" departPos="30.97" departSpeed="0.00" departDelay="0.00" arrival="65.00" arrivalLane="423956929_0" arrivalPos="184.10" arrivalSpeed="16.15" duration="35.00" routeLength="335.65" waitingTime="0.00" waitingCount="0" stopTime="0.00" timeLoss="13.93" rerouteNo="0" devices="tripinfo_flow_route_77_duration_20250327_2100.1" vType="car" speedFactor="1.13" vaporized=""/>
    <tripinfo id="flow_route_80_duration_20250327_2100.1" depart="30.00" departLane="380344611#0_0" departPos="22.69" departSpeed="0.00" departDelay="0.00" arrival="65.00" arrivalLane="380593307#0_0" arrivalPos="58.86" arrivalSpeed="11.81" duration="35.00" routeLength="328.79" waitingTime="0.00" waitingCount="0" stopTime="0.00" timeLoss="14.56" rerouteNo="0" devices="tripinfo_flow_route_80_duration_20250327_2100.1" vType="car" speedFactor="1.18" vaporized=""/>
    <tripinfo id="flow_route_89_duration_20250327_2100.9" depart="40.00" departLane="380585338#0_0" departPos="52.57" departSpeed="0.00" departDelay="1.44" arrival="65.00" arrivalLane="380593307#0_1" arrivalPos="72.43" arrivalSpeed="16.34" duration="25.00" routeLength="230.13" waitingTime="0.00" waitingCount="0" stopTime="0.00" timeLoss="10.90" rerouteNo="0" devices="tripinfo_flow_route_89_duration_20250327_2100.9" vType="car" speedFactor="1.10" vaporized=""/>
    <tripinfo id="flow_route_90_duration_20250327_2100.3" depart="27.00" departLane="380585338#0_0" departPos="31.08" departSpeed="0.00" departDelay="1.29" arrival="66.00" arrivalLane="136617981_0" arrivalPos="79.03" arrivalSpeed="13.13" duration="39.00" routeLength="235.02" waitingTime="0.00" waitingCount="0" stopTime="0.00" timeLoss="22.98" rerouteNo="0" devices="tripinfo_flow_route_90_duration_20250327_2100.3" vType="car" speedFactor="0.95" vaporized=""/>
    <tripinfo id="flow_route_90_duration_20250327_2100.4" depart="35.00" departLane="380585338#0_0" departPos="106.81" departSpeed="0.00" departDelay="0.72" arrival="68.00" arrivalLane="136617981_0" arrivalPos="192.35" arrivalSpeed="16.50" duration="33.00" routeLength="272.61" waitingTime="0.00" waitingCount="0" stopTime="0.00" timeLoss="15.73" rerouteNo="0" devices="tripinfo_flow_route_90_duration_20250327_2100.4" vType="car" speedFactor="1.02" vaporized=""/>
    <tripinfo id="flow_route_90_duration_20250327_2100.5" depart="43.00" departLane="380585338#0_0" departPos="123.42" departSpeed="0.00" departDelay="0.15" arrival="68.00" arrivalLane="136617981_0" arrivalPos="139.64" arrivalSpeed="16.45" duration="25.00" routeLength="203.28" waitingTime="0.00" waitingCount="0" stopTime="0.00" timeLoss="11.23" rerouteNo="0" devices="tripinfo_flow_route_90_duration_20250327_2100.5" vType="car" speedFactor="1.09" vaporized=""/>
    <tripinfo id="flow_route_78_duration_20250327_2100.0" depart="0.00" departLane="133342692#0_0" departPos="79.92" departSpeed="0.00" departDelay="0.00" arrival="71.00" arrivalLane="136617981_2" arrivalPos="12.89" arrivalSpeed="6.28" duration="71.00" routeLength="138.43" waitingTime="37.00" waitingCount="2" stopTime="0.00" timeLoss="61.90" rerouteNo="0" devices="tripinfo_flow_route_78_duration_20250327_2100.0" vType="car" speedFactor="1.01" vaporized=""/>
    <tripinfo id="flow_route_89_duration_20250327_2100.10" depart="43.00" departLane="380585338#0_0" departPos="73.82" departSpeed="0.00" departDelay="0.15" arrival="74.00" arrivalLane="380593307#0_0" arrivalPos="160.57" arrivalSpeed="15.65" duration="31.00" routeLength="297.02" waitingTime="0.00" waitingCount="0" stopTime="0.00" timeLoss="11.50" rerouteNo="0" devices="tripinfo_flow_route_89_duration_20250327_2100.10" vType="car" speedFactor="0.96" vaporized=""/>
    <tripinfo id="flow_route_78_duration_20250327_2100.4" depart="40.00" departLane="133342692#0_0" departPos="17.95" departSpeed="0.00" departDelay="0.00" arrival="80.00" arrivalLane="136617981_2" arrivalPos="6.76" arrivalSpeed="8.69" duration="40.00" routeLength="194.26" waitingTime="5.00" waitingCount="1" stopTime="0.00" timeLoss="26.05" rerouteNo="0" devices="tripinfo_flow_route_78_duration_20250327_2100.4" vType="car" speedFactor="0.90" vaporized=""/>
    <tripinfo id="flow_route_78_duration_20250327_2100.1" depart="10.00" departLane="133342692#0_0" departPos="131.07" departSpeed="0.00" departDelay="0.00" arrival="81.00" arrivalLane="136617981_2" arrivalPos="85.53" arrivalSpeed="13.65" duration="71.00" routeLength="159.91" waitingTime="34.00" waitingCount="2" stopTime="0.00" timeLoss="58.89" rerouteNo="0" devices="tripinfo_flow_route_78_duration_20250327_2100.1" vType="car" speedFactor="0.93" vaporized=""/>
    <tripinfo id="flow_route_78_duration_20250327_2100.3" depart="30.00" departLane="133342692#0_0" departPos="8.03" departSpeed="0.00" departDelay="0.00" arrival="85.00" arrivalLane="136617981_2" arrivalPos="88.95" arrivalSpeed="13.56" duration="55.00" routeLength="286.38" waitingTime="13.00" waitingCount="1" stopTime="0.00" timeLoss="35.44" rerouteNo="0" devices="tripinfo_flow_route_78_duration_20250327_2100.3" vType="car" speedFactor="0.93" vaporized=""/>
    <tripinfo id="flow_route_78_duration_20250327_2100.2" depart="20.00" departLane="133342692#0_0" departPos="118.58" departSpeed="0.00" departDelay="0.00" arrival="88.00" arrivalLane="136617981_2" arrivalPos="168.98" arrivalSpeed="16.02" duration="68.00" routeLength="255.87" waitingTime="26.00" waitingCount="2" stopTime="0.00" timeLoss="51.29" rerouteNo="0" devices="tripinfo_flow_route_78_duration_20250327_2100.2" vType="car" speedFactor="0.97" vaporized=""/>
    <tripinfo id="flow_route_78_duration_20250327_2100.5" depart="50.00" departLane="133342692#0_0" departPos="17.41" departSpeed="0.00" departDelay="0.00" arrival="98.00" arrivalLane="136617981_2" arrivalPos="198.25" arrivalSpeed="16.43" duration="48.00" routeLength="386.30" waitingTime="0.00" waitingCount="0" stopTime="0.00" timeLoss="23.47" rerouteNo="0" devices="tripinfo_flow_route_78_duration_20250327_2100.5" vType="car" speedFactor="1.00" vaporized=""/>
    <tripinfo id="flow_route_84_duration_20250327_2100.2" depart="15.00" departLane="1091883842_0" departPos="76.39" departSpeed="0.00" departDelay="0.00" arrival="100.00" arrivalLane="136617981_0" arrivalPos="36.67" arrivalSpeed="10.17" duration="85.00" routeLength="178.57" waitingTime="54.00" waitingCount="1" stopTime="0.00" timeLoss="73.33" rerouteNo="0" devices="tripinfo_flow_route_84_duration_20250327_2100.2" vType="car" speedFactor="0.94" vaporized=""/>
    <tripinfo id="flow_route_84_duration_20250327_2100.3" depart="24.00" departLane="1091883842_0" departPos="34.05" departSpeed="0.00" departDelay="1.50" arrival="104.00" arrivalLane="136617981_0" arrivalPos="87.23" arrivalSpeed="13.45" duration="80.00" routeLength="271.47" waitingTime="42.00" waitingCount="1" stopTime="0.00" timeLoss="59.94" rerouteNo="0" devices="tripinfo_flow_route_84_duration_20250327_2100.3" vType="car" speedFactor="0.83" vaporized=""/>
    <tripinfo id="flow_route_84_duration_20250327_2100.6" depart="46.00" departLane="1091883842_0" departPos="106.53" departSpeed="0.00" departDelay="1.00" arrival="109.00" arrivalLane="136617981_1" arrivalPos="129.18" arrivalSpeed="16.56" duration="63.00" routeLength="240.93" waitingTime="27.00" waitingCount="1" stopTime="0.00" timeLoss="47.74" rerouteNo="0" devices="tripinfo_flow_route_84_duration_20250327_2100.6" vType="car" speedFactor="1.04" vaporized=""/>
    <tripinfo id="flow_route_84_duration_20250327_2100.7" depart="53.00" departLane="1091883842_0" departPos="23.08" departSpeed="0.00" departDelay="0.50" arrival="109.00" arrivalLane="136617981_1" arrivalPos="79.70" arrivalSpeed="13.36" duration="56.00" routeLength="274.91" waitingTime="14.00" waitingCount="1" stopTime="0.00" timeLoss="36.21" rerouteNo="0" devices="tripinfo_flow_route_84_duration_20250327_2100.7" vType="car" speedFactor="0.85" vaporized=""/>
    <tripinfo id="flow_route_81_duration_20250327_2100.4" depart="24.00" departLane="380344611#0_0" departPos="181.95" departSpeed="0.00" departDelay="0.00" arrival="111.00" arrivalLane="133000063_2" arrivalPos="29.01" arrivalSpeed="8.98" duration="87.00" routeLength="162.93" waitingTime="52.00" waitingCount="2" stopTime="0.00" timeLoss="74.77" rerouteNo="0" devices="tripinfo_flow_route_81_duration_20250327_2100.4" vType="car" speedFactor="0.87" vaporized=""/>
    <tripinfo id="flow_route_81_duration_20250327_2100.5" depart="30.00" departLane="380344611#0_0" departPos="204.70" departSpeed="0.00" departDelay="0.00" arrival="112.00" arrivalLane="133000063_2" arrivalPos="14.82" arrivalSpeed="7.75" duration="82.00" routeLength="125.98" waitingTime="46.00" waitingCount="2" stopTime="0.00" timeLoss="73.84" rerouteNo="0" devices="tripinfo_flow_route_81_duration_20250327_2100.5" vType="car" speedFactor="1.15" vaporized=""/>
    <tripinfo id="flow_route_84_duration_20250327_2100.4" depart="30.00" departLane="1091883842_0" departPos="65.34" departSpeed="0.00" departDelay="0.00" arrival="112.00" arrivalLane="136617981_0" arrivalPos="160.74" arrivalSpeed="16.20" duration="82.00" routeLength="313.69" waitingTime="38.00" waitingCount="1" stopTime="0.00" timeLoss="62.99" rerouteNo="0" devices="tripinfo_flow_route_84_duration_20250327_2100.4" vType="car" speedFactor="1.01" vaporized=""/>
    <tripinfo id="flow_route_84_duration_20250327_2100.5" depart="39.00" departLane="1091883842_0" departPos="67.82" departSpeed="0.00" departDelay="1.50" arrival="114.00" arrivalLane="136617981_1" arrivalPos="233.97" arrivalSpeed="16.14" duration="75.00" routeLength="384.45" waitingTime="27.00" waitingCount="1" stopTime="0.00" timeLoss="51.60" rerouteNo="0" devices="tripinfo_flow_route_84_duration_20250327_2100.5" vType="car" speedFactor="1.18" vaporized=""/>
    <tripinfo id="flow_route_81_duration_20250327_2100.6" depart="36.00" departLane="380344611#0_0" departPos="145.42" departSpeed="0.00" departDelay="0.00" arrival="119.00" arrivalLane="133000063_2" arrivalPos="67.13" arrivalSpeed="12.37" duration="83.00" routeLength="237.58" waitingTime="37.00" waitingCount="2" stopTime="0.00" timeLoss="67.60" rerouteNo="0" devices="tripinfo_flow_route_81_duration_20250327_2100.6" vType="car" speedFactor="0.97" vaporized=""/>
    <tripinfo id="flow_route_81_duration_20250327_2100.7" depart="42.00" departLane="380344611#0_0" departPos="177.30" departSpeed="0.00" departDelay="0.00" arrival="127.00" arrivalLane="133000063_2" arrivalPos="150.80" arrivalSpeed="16.19" duration="85.00" routeLength="289.38" waitingTime="32.00" waitingCount="2" stopTime="0.00" timeLoss="66.17" rerouteNo="0" devices="tripinfo_flow_route_81_duration_20250327_2100.7" vType="car" speedFactor="1.03" vaporized=""/>
    <tripinfo id="flow_route_81_duration_20250327_2100.9" depart="54.00" departLane="380344611#0_0" departPos="105.38" departSpeed="0.00" departDelay="0.00" arrival="129.00" arrivalLane="133000063_2" arrivalPos="122.85" arrivalSpeed="14.15" duration="75.00" routeLength="333.35" waitingTime="21.00" waitingCount="2" stopTime="0.00" timeLoss="50.45" rerouteNo="0" devices="tripinfo_flow_route_81_duration_20250327_2100.9" vType="car" speedFactor="0.85" vaporized=""/>
    <tripinfo id="flow_route_81_duration_20250327_2100.8" depart="48.00" departLane="380344611#0_0" departPos="116.57" departSpeed="0.00" departDelay="0.00" arrival="130.00" arrivalLane="133000063_2" arrivalPos="167.33" arrivalSpeed="16.30" duration="82.00" routeLength="366.63" waitingTime="25.00" waitingCount="2" stopTime="0.00" timeLoss="58.50" rerouteNo="0" devices="tripinfo_flow_route_81_duration_20250327_2100.8" vType="car" speedFactor="1.04" vaporized=""/>
    <tripinfo id="flow_route_89_duration_20250327_2100.13" depart="56.00" departLane="380585338#0_0" departPos="117.27" departSpeed="0.00" departDelay="0.30" arrival="138.00" arrivalLane="380593307#0_0" arrivalPos="7.39" arrivalSpeed="7.98" duration="82.00" routeLength="100.39" waitingTime="58.00" waitingCount="1" stopTime="0.00" timeLoss="75.70" rerouteNo="0" devices="tripinfo_flow_route_89_duration_20250327_2100.13" vType="car" speedFactor="1.17" vaporized=""/>
    <tripinfo id="flow_route_89_duration_20250327_2100.11" depart="48.00" departLane="380585338#0_0" departPos="59.54" departSpeed="0.00" departDelay="0.87" arrival="142.00" arrivalLane="380593307#0_0" arrivalPos="51.44" arrivalSpeed="11.57" duration="94.00" routeLength="202.17" waitingTime="60.00" waitingCount="1" stopTime="0.00" timeLoss="81.64" rerouteNo="0" devices="tripinfo_flow_route_89_duration_20250327_2100.11" vType="car" speedFactor="1.09" vaporized=""/>
    <tripinfo id="flow_route_89_duration_20250327_2100.12" depart="54.00" departLane="380585338#0_0" departPos="24.51" departSpeed="0.00" departDelay="2.58" arrival="145.00" arrivalLane="380593307#0_1" arrivalPos="80.96" arrivalSpeed="13.52" duration="91.00" routeLength="266.72" waitingTime="51.00" waitingCount="1" stopTime="0.00" timeLoss="72.56" rerouteNo="0" devices="tripinfo_flow_route_89_duration_20250327_2100.12" vType="car" speedFactor="0.90" vaporized=""/>
    <tripinfo id="flow_route_90_duration_20250327_2100.6" depart="56.00" departLane="380585338#0_0" departPos="67.84" departSpeed="0.00" departDelay="4.57" arrival="152.00" arrivalLane="136617981_0" arrivalPos="187.57" arrivalSpeed="14.31" duration="96.00" routeLength="306.80" waitingTime="53.00" waitingCount="1" stopTime="0.00" timeLoss="74.18" rerouteNo="0" devices="tripinfo_flow_route_90_duration_20250327_2100.6" vType="car" speedFactor="0.88" vaporized=""/>
</tripinfos>
