<?xml version="1.0" encoding="UTF-8"?>

<!-- generated on 2025-05-06 21:09:16 by Eclipse SUMO sumo Version 1.20.0
<configuration xmlns:xsi="http://www.w3.org/2001/XMLSchema-instance" xsi:noNamespaceSchemaLocation="http://sumo.dlr.de/xsd/sumoConfiguration.xsd">

    <input>
        <net-file value="osm.net.xml"/>
        <route-files value="xml/route_static_cluster_11648561428_407729599_9.rou.xml"/>
    </input>

    <output>
        <tripinfo-output value="xml/tripinfo_static_cluster_11648561428_407729599_9.xml"/>
    </output>

    <traci_server>
        <remote-port value="59099"/>
    </traci_server>

</configuration>
-->

<tripinfos xmlns:xsi="http://www.w3.org/2001/XMLSchema-instance" xsi:noNamespaceSchemaLocation="http://sumo.dlr.de/xsd/tripinfo_file.xsd">
    <tripinfo id="flow_route_106_duration_20250327_2200.0" depart="0.00" departLane="1254519229#0_0" departPos="19.69" departSpeed="0.00" departDelay="0.00" arrival="17.00" arrivalLane="430416184_1" arrivalPos="13.15" arrivalSpeed="9.33" duration="17.00" routeLength="94.14" waitingTime="0.00" waitingCount="0" stopTime="0.00" timeLoss="10.50" rerouteNo="0" devices="tripinfo_flow_route_106_duration_20250327_2200.0" vType="car" speedFactor="1.01" vaporized=""/>
    <tripinfo id="flow_route_107_duration_20250327_2200.0" depart="0.00" departLane="1254519229#0_0" departPos="43.39" departSpeed="0.00" departDelay="0.00" arrival="20.00" arrivalLane="1342963997_0" arrivalPos="88.24" arrivalSpeed="14.75" duration="20.00" routeLength="145.44" waitingTime="0.00" waitingCount="0" stopTime="0.00" timeLoss="10.92" rerouteNo="0" devices="tripinfo_flow_route_107_duration_20250327_2200.0" vType="car" speedFactor="1.08" vaporized=""/>
    <tripinfo id="flow_route_101_duration_20250327_2200.0" depart="0.00" departLane="186409193_0" departPos="43.42" departSpeed="0.00" departDelay="0.00" arrival="34.00" arrivalLane="430416184_0" arrivalPos="206.05" arrivalSpeed="16.21" duration="34.00" routeLength="297.12" waitingTime="0.00" waitingCount="0" stopTime="0.00" timeLoss="14.79" rerouteNo="0" devices="tripinfo_flow_route_101_duration_20250327_2200.0" vType="car" speedFactor="0.94" vaporized=""/>
    <tripinfo id="flow_route_100_duration_20250327_2200.0" depart="0.00" departLane="186409193_0" departPos="2.55" departSpeed="0.00" departDelay="0.00" arrival="36.00" arrivalLane="1254519229#0_1" arrivalPos="70.90" arrivalSpeed="11.01" duration="36.00" routeLength="299.97" waitingTime="0.00" waitingCount="0" stopTime="0.00" timeLoss="17.15" rerouteNo="0" devices="tripinfo_flow_route_100_duration_20250327_2200.0" vType="car" speedFactor="1.06" vaporized=""/>
    <tripinfo id="flow_route_106_duration_20250327_2200.1" depart="12.00" departLane="1254519229#0_0" departPos="35.97" departSpeed="0.00" departDelay="0.00" arrival="39.00" arrivalLane="430416184_1" arrivalPos="194.63" arrivalSpeed="16.55" duration="27.00" routeLength="259.33" waitingTime="0.00" waitingCount="0" stopTime="0.00" timeLoss="9.81" rerouteNo="0" devices="tripinfo_flow_route_106_duration_20250327_2200.1" vType="car" speedFactor="1.05" vaporized=""/>
    <tripinfo id="flow_route_106_duration_20250327_2200.2" depart="24.00" departLane="1254519229#0_0" departPos="40.82" departSpeed="0.00" departDelay="0.00" arrival="51.00" arrivalLane="430416184_1" arrivalPos="197.69" arrivalSpeed="16.23" duration="27.00" routeLength="257.56" waitingTime="0.00" waitingCount="0" stopTime="0.00" timeLoss="10.17" rerouteNo="0" devices="tripinfo_flow_route_106_duration_20250327_2200.2" vType="car" speedFactor="1.09" vaporized=""/>
    <tripinfo id="flow_route_149_duration_20250327_2200.1" depart="20.00" departLane="186410975#0_0" departPos="226.00" departSpeed="0.00" departDelay="0.00" arrival="58.00" arrivalLane="430416184_1" arrivalPos="76.50" arrivalSpeed="16.52" duration="38.00" routeLength="396.17" waitingTime="0.00" waitingCount="0" stopTime="0.00" timeLoss="9.05" rerouteNo="0" devices="tripinfo_flow_route_149_duration_20250327_2200.1" vType="car" speedFactor="0.94" vaporized=""/>
    <tripinfo id="flow_route_101_duration_20250327_2200.1" depart="12.00" departLane="186409193_0" departPos="27.23" departSpeed="0.00" departDelay="0.00" arrival="59.00" arrivalLane="430416184_0" arrivalPos="1.75" arrivalSpeed="4.37" duration="47.00" routeLength="109.01" waitingTime="22.00" waitingCount="1" stopTime="0.00" timeLoss="38.17" rerouteNo="0" devices="tripinfo_flow_route_101_duration_20250327_2200.1" vType="car" speedFactor="0.83" vaporized=""/>
    <tripinfo id="flow_route_149_duration_20250327_2200.0" depart="0.00" departLane="186410975#0_0" departPos="192.32" departSpeed="0.00" departDelay="0.00" arrival="61.00" arrivalLane="430416184_1" arrivalPos="170.61" arrivalSpeed="16.29" duration="61.00" routeLength="523.96" waitingTime="4.00" waitingCount="1" stopTime="0.00" timeLoss="25.16" rerouteNo="0" devices="tripinfo_flow_route_149_duration_20250327_2200.0" vType="car" speedFactor="1.03" vaporized=""/>
    <tripinfo id="flow_route_107_duration_20250327_2200.1" depart="30.00" departLane="1254519229#0_0" departPos="50.41" departSpeed="0.00" departDelay="0.00" arrival="68.00" arrivalLane="1342963997_0" arrivalPos="55.14" arrivalSpeed="11.14" duration="38.00" routeLength="105.31" waitingTime="13.00" waitingCount="1" stopTime="0.00" timeLoss="31.01" rerouteNo="0" devices="tripinfo_flow_route_107_duration_20250327_2200.1" vType="car" speedFactor="1.03" vaporized=""/>
    <tripinfo id="flow_route_101_duration_20250327_2200.2" depart="24.00" departLane="186409193_0" departPos="2.70" departSpeed="0.00" departDelay="0.00" arrival="72.00" arrivalLane="430416184_0" arrivalPos="93.11" arrivalSpeed="12.79" duration="48.00" routeLength="224.91" waitingTime="12.00" waitingCount="1" stopTime="0.00" timeLoss="31.80" rerouteNo="0" devices="tripinfo_flow_route_101_duration_20250327_2200.2" vType="car" speedFactor="0.86" vaporized=""/>
    <tripinfo id="flow_route_106_duration_20250327_2200.4" depart="48.00" departLane="1254519229#0_0" departPos="2.37" departSpeed="0.00" departDelay="0.00" arrival="78.00" arrivalLane="430416184_1" arrivalPos="46.01" arrivalSpeed="9.76" duration="30.00" routeLength="144.32" waitingTime="1.00" waitingCount="1" stopTime="0.00" timeLoss="20.41" rerouteNo="0" devices="tripinfo_flow_route_106_duration_20250327_2200.4" vType="car" speedFactor="0.94" vaporized=""/>
    <tripinfo id="flow_route_101_duration_20250327_2200.3" depart="36.00" departLane="186409193_0" departPos="51.86" departSpeed="0.00" departDelay="0.00" arrival="86.00" arrivalLane="430416184_0" arrivalPos="271.56" arrivalSpeed="16.25" duration="50.00" routeLength="354.21" waitingTime="6.00" waitingCount="1" stopTime="0.00" timeLoss="27.48" rerouteNo="0" devices="tripinfo_flow_route_101_duration_20250327_2200.3" vType="car" speedFactor="1.05" vaporized=""/>
    <tripinfo id="flow_route_101_duration_20250327_2200.4" depart="48.00" departLane="186409193_0" departPos="55.88" departSpeed="0.00" departDelay="0.00" arrival="86.00" arrivalLane="430416184_0" arrivalPos="221.09" arrivalSpeed="16.20" duration="38.00" routeLength="299.70" waitingTime="0.00" waitingCount="0" stopTime="0.00" timeLoss="17.86" rerouteNo="0" devices="tripinfo_flow_route_101_duration_20250327_2200.4" vType="car" speedFactor="0.88" vaporized=""/>
    <tripinfo id="flow_route_100_duration_20250327_2200.1" depart="20.00" departLane="186409193_0" departPos="3.52" departSpeed="0.00" departDelay="0.00" arrival="89.00" arrivalLane="1254519229#0_1" arrivalPos="45.06" arrivalSpeed="9.06" duration="69.00" routeLength="273.16" waitingTime="20.00" waitingCount="2" stopTime="0.00" timeLoss="49.86" rerouteNo="0" devices="tripinfo_flow_route_100_duration_20250327_2200.1" vType="car" speedFactor="0.89" vaporized=""/>
    <tripinfo id="flow_route_106_duration_20250327_2200.3" depart="36.00" departLane="1254519229#0_0" departPos="31.56" departSpeed="0.00" departDelay="0.00" arrival="90.00" arrivalLane="430416184_1" arrivalPos="238.38" arrivalSpeed="16.45" duration="54.00" routeLength="307.51" waitingTime="8.00" waitingCount="2" stopTime="0.00" timeLoss="34.31" rerouteNo="0" devices="tripinfo_flow_route_106_duration_20250327_2200.3" vType="car" speedFactor="1.12" vaporized=""/>
    <tripinfo id="flow_route_100_duration_20250327_2200.2" depart="40.00" departLane="186409193_0" departPos="1.89" departSpeed="0.00" departDelay="0.00" arrival="92.00" arrivalLane="1254519229#0_1" arrivalPos="43.31" arrivalSpeed="8.46" duration="52.00" routeLength="273.04" waitingTime="7.00" waitingCount="1" stopTime="0.00" timeLoss="34.06" rerouteNo="0" devices="tripinfo_flow_route_100_duration_20250327_2200.2" vType="car" speedFactor="0.99" vaporized=""/>
    <tripinfo id="flow_route_149_duration_20250327_2200.2" depart="40.00" departLane="186410975#0_0" departPos="77.89" departSpeed="0.00" departDelay="0.00" arrival="108.00" arrivalLane="430416184_1" arrivalPos="68.46" arrivalSpeed="11.63" duration="68.00" routeLength="536.24" waitingTime="5.00" waitingCount="1" stopTime="0.00" timeLoss="25.71" rerouteNo="0" devices="tripinfo_flow_route_149_duration_20250327_2200.2" vType="car" speedFactor="0.93" vaporized=""/>
</tripinfos>
