<?xml version="1.0" encoding="UTF-8"?>

<!-- generated on 2025-05-06 21:07:41 by Eclipse SUMO sumo Version 1.20.0
<configuration xmlns:xsi="http://www.w3.org/2001/XMLSchema-instance" xsi:noNamespaceSchemaLocation="http://sumo.dlr.de/xsd/sumoConfiguration.xsd">

    <input>
        <net-file value="osm.net.xml"/>
        <route-files value="xml/route_rl_cluster_11648561428_407729599_0.rou.xml"/>
    </input>

    <output>
        <tripinfo-output value="xml/tripinfo_rl_cluster_11648561428_407729599_0.xml"/>
    </output>

    <traci_server>
        <remote-port value="51789"/>
    </traci_server>

</configuration>
-->

<tripinfos xmlns:xsi="http://www.w3.org/2001/XMLSchema-instance" xsi:noNamespaceSchemaLocation="http://sumo.dlr.de/xsd/tripinfo_file.xsd">
    <tripinfo id="flow_route_107_duration_20250327_2200.0" depart="0.00" departLane="1254519229#0_0" departPos="43.39" departSpeed="0.00" departDelay="0.00" arrival="20.00" arrivalLane="1342963997_0" arrivalPos="88.24" arrivalSpeed="14.94" duration="20.00" routeLength="145.44" waitingTime="0.00" waitingCount="0" stopTime="0.00" timeLoss="10.80" rerouteNo="0" devices="tripinfo_flow_route_107_duration_20250327_2200.0" vType="car" speedFactor="1.08" vaporized=""/>
    <tripinfo id="flow_route_106_duration_20250327_2200.1" depart="7.00" departLane="1254519229#0_0" departPos="53.55" departSpeed="0.00" departDelay="0.33" arrival="26.00" arrivalLane="430416184_1" arrivalPos="1.75" arrivalSpeed="5.02" duration="19.00" routeLength="48.87" waitingTime="2.00" waitingCount="1" stopTime="0.00" timeLoss="14.66" rerouteNo="0" devices="tripinfo_flow_route_106_duration_20250327_2200.1" vType="car" speedFactor="0.83" vaporized=""/>
    <tripinfo id="flow_route_106_duration_20250327_2200.0" depart="0.00" departLane="1254519229#0_0" departPos="19.69" departSpeed="0.00" departDelay="0.00" arrival="30.00" arrivalLane="430416184_1" arrivalPos="13.15" arrivalSpeed="6.94" duration="30.00" routeLength="94.14" waitingTime="1.00" waitingCount="1" stopTime="0.00" timeLoss="23.76" rerouteNo="0" devices="tripinfo_flow_route_106_duration_20250327_2200.0" vType="car" speedFactor="1.01" vaporized=""/>
    <tripinfo id="flow_route_101_duration_20250327_2200.0" depart="0.00" departLane="186409193_0" departPos="43.42" departSpeed="0.00" departDelay="0.00" arrival="34.00" arrivalLane="430416184_0" arrivalPos="206.05" arrivalSpeed="16.21" duration="34.00" routeLength="297.12" waitingTime="0.00" waitingCount="0" stopTime="0.00" timeLoss="14.79" rerouteNo="0" devices="tripinfo_flow_route_101_duration_20250327_2200.0" vType="car" speedFactor="0.94" vaporized=""/>
    <tripinfo id="flow_route_106_duration_20250327_2200.4" depart="27.00" departLane="1254519229#0_0" departPos="40.82" departSpeed="0.00" departDelay="0.34" arrival="41.00" arrivalLane="430416184_1" arrivalPos="13.36" arrivalSpeed="10.26" duration="14.00" routeLength="73.22" waitingTime="0.00" waitingCount="0" stopTime="0.00" timeLoss="8.75" rerouteNo="0" devices="tripinfo_flow_route_106_duration_20250327_2200.4" vType="car" speedFactor="1.09" vaporized=""/>
    <tripinfo id="flow_route_100_duration_20250327_2200.0" depart="0.00" departLane="186409193_0" departPos="2.55" departSpeed="0.00" departDelay="0.00" arrival="42.00" arrivalLane="1254519229#0_1" arrivalPos="70.90" arrivalSpeed="2.94" duration="42.00" routeLength="299.97" waitingTime="0.00" waitingCount="0" stopTime="0.00" timeLoss="23.15" rerouteNo="0" devices="tripinfo_flow_route_100_duration_20250327_2200.0" vType="car" speedFactor="1.06" vaporized=""/>
    <tripinfo id="flow_route_106_duration_20250327_2200.2" depart="14.00" departLane="1254519229#0_0" departPos="35.97" departSpeed="0.00" departDelay="0.67" arrival="44.00" arrivalLane="430416184_1" arrivalPos="134.81" arrivalSpeed="15.41" duration="30.00" routeLength="199.52" waitingTime="0.00" waitingCount="0" stopTime="0.00" timeLoss="16.65" rerouteNo="0" devices="tripinfo_flow_route_106_duration_20250327_2200.2" vType="car" speedFactor="1.05" vaporized=""/>
    <tripinfo id="flow_route_106_duration_20250327_2200.3" depart="20.00" departLane="1254519229#0_0" departPos="54.39" departSpeed="0.00" departDelay="0.00" arrival="53.00" arrivalLane="430416184_1" arrivalPos="253.21" arrivalSpeed="16.19" duration="33.00" routeLength="299.50" waitingTime="1.00" waitingCount="1" stopTime="0.00" timeLoss="13.56" rerouteNo="0" devices="tripinfo_flow_route_106_duration_20250327_2200.3" vType="car" speedFactor="0.86" vaporized=""/>
    <tripinfo id="flow_route_106_duration_20250327_2200.7" depart="47.00" departLane="1254519229#0_0" departPos="76.12" departSpeed="0.00" departDelay="0.34" arrival="61.00" arrivalLane="430416184_1" arrivalPos="46.01" arrivalSpeed="10.29" duration="14.00" routeLength="70.58" waitingTime="0.00" waitingCount="0" stopTime="0.00" timeLoss="8.56" rerouteNo="0" devices="tripinfo_flow_route_106_duration_20250327_2200.7" vType="car" speedFactor="0.88" vaporized=""/>
    <tripinfo id="flow_route_106_duration_20250327_2200.5" depart="34.00" departLane="1254519229#0_0" departPos="70.63" departSpeed="0.00" departDelay="0.67" arrival="64.00" arrivalLane="430416184_1" arrivalPos="238.38" arrivalSpeed="16.34" duration="30.00" routeLength="268.43" waitingTime="1.00" waitingCount="1" stopTime="0.00" timeLoss="12.87" rerouteNo="0" devices="tripinfo_flow_route_106_duration_20250327_2200.5" vType="car" speedFactor="1.05" vaporized=""/>
    <tripinfo id="flow_route_106_duration_20250327_2200.8" depart="54.00" departLane="1254519229#0_0" departPos="54.51" departSpeed="0.00" departDelay="0.67" arrival="67.00" arrivalLane="430416184_1" arrivalPos="8.62" arrivalSpeed="7.61" duration="13.00" routeLength="54.79" waitingTime="0.00" waitingCount="0" stopTime="0.00" timeLoss="8.93" rerouteNo="0" devices="tripinfo_flow_route_106_duration_20250327_2200.8" vType="car" speedFactor="0.94" vaporized=""/>
    <tripinfo id="flow_route_106_duration_20250327_2200.6" depart="40.00" departLane="1254519229#0_0" departPos="2.58" departSpeed="0.00" departDelay="0.00" arrival="71.00" arrivalLane="430416184_1" arrivalPos="157.41" arrivalSpeed="16.43" duration="31.00" routeLength="255.51" waitingTime="0.00" waitingCount="0" stopTime="0.00" timeLoss="14.44" rerouteNo="0" devices="tripinfo_flow_route_106_duration_20250327_2200.6" vType="car" speedFactor="0.99" vaporized=""/>
    <tripinfo id="flow_route_149_duration_20250327_2200.2" depart="31.00" departLane="186410975#0_0" departPos="242.38" departSpeed="0.00" departDelay="1.00" arrival="94.00" arrivalLane="430416184_1" arrivalPos="88.80" arrivalSpeed="13.80" duration="63.00" routeLength="392.09" waitingTime="14.00" waitingCount="1" stopTime="0.00" timeLoss="36.07" rerouteNo="0" devices="tripinfo_flow_route_149_duration_20250327_2200.2" vType="car" speedFactor="1.03" vaporized=""/>
    <tripinfo id="flow_route_149_duration_20250327_2200.0" depart="0.00" departLane="186410975#0_0" departPos="192.32" departSpeed="0.00" departDelay="0.00" arrival="97.00" arrivalLane="430416184_1" arrivalPos="170.61" arrivalSpeed="16.59" duration="97.00" routeLength="523.96" waitingTime="40.00" waitingCount="1" stopTime="0.00" timeLoss="61.01" rerouteNo="0" devices="tripinfo_flow_route_149_duration_20250327_2200.0" vType="car" speedFactor="1.03" vaporized=""/>
    <tripinfo id="flow_route_149_duration_20250327_2200.3" depart="45.00" departLane="186410975#0_0" departPos="197.33" departSpeed="0.00" departDelay="0.00" arrival="98.00" arrivalLane="430416184_1" arrivalPos="87.27" arrivalSpeed="13.46" duration="53.00" routeLength="435.61" waitingTime="0.00" waitingCount="0" stopTime="0.00" timeLoss="21.11" rerouteNo="0" devices="tripinfo_flow_route_149_duration_20250327_2200.3" vType="car" speedFactor="0.93" vaporized=""/>
    <tripinfo id="flow_route_149_duration_20250327_2200.1" depart="15.00" departLane="186410975#0_0" departPos="68.27" departSpeed="0.00" departDelay="0.00" arrival="101.00" arrivalLane="430416184_1" arrivalPos="163.76" arrivalSpeed="16.18" duration="86.00" routeLength="641.16" waitingTime="12.00" waitingCount="1" stopTime="0.00" timeLoss="35.34" rerouteNo="0" devices="tripinfo_flow_route_149_duration_20250327_2200.1" vType="car" speedFactor="0.89" vaporized=""/>
    <tripinfo id="flow_route_101_duration_20250327_2200.1" depart="20.00" departLane="186409193_0" departPos="18.81" departSpeed="0.00" departDelay="0.00" arrival="119.00" arrivalLane="430416184_0" arrivalPos="17.43" arrivalSpeed="6.54" duration="99.00" routeLength="133.12" waitingTime="72.00" waitingCount="1" stopTime="0.00" timeLoss="89.44" rerouteNo="0" devices="tripinfo_flow_route_101_duration_20250327_2200.1" vType="car" speedFactor="0.94" vaporized=""/>
    <tripinfo id="flow_route_101_duration_20250327_2200.2" depart="40.00" departLane="186409193_0" departPos="13.83" departSpeed="0.00" departDelay="0.00" arrival="131.00" arrivalLane="430416184_0" arrivalPos="114.69" arrivalSpeed="13.49" duration="91.00" routeLength="235.36" waitingTime="54.00" waitingCount="1" stopTime="0.00" timeLoss="75.45" rerouteNo="0" devices="tripinfo_flow_route_101_duration_20250327_2200.2" vType="car" speedFactor="1.12" vaporized=""/>
</tripinfos>
