<?xml version="1.0" encoding="UTF-8"?>

<!-- generated on 2025-05-06 21:09:18 by Eclipse SUMO sumo Version 1.20.0
<configuration xmlns:xsi="http://www.w3.org/2001/XMLSchema-instance" xsi:noNamespaceSchemaLocation="http://sumo.dlr.de/xsd/sumoConfiguration.xsd">

    <input>
        <net-file value="osm.net.xml"/>
        <route-files value="xml/route_static_cluster_356722183_3828703848_9.rou.xml"/>
    </input>

    <output>
        <tripinfo-output value="xml/tripinfo_static_cluster_356722183_3828703848_9.xml"/>
    </output>

    <traci_server>
        <remote-port value="49455"/>
    </traci_server>

</configuration>
-->

<tripinfos xmlns:xsi="http://www.w3.org/2001/XMLSchema-instance" xsi:noNamespaceSchemaLocation="http://sumo.dlr.de/xsd/tripinfo_file.xsd">
    <tripinfo id="flow_route_18_duration_20250327_1950.0" depart="0.00" departLane="133126040#0_0" departPos="80.59" departSpeed="0.00" departDelay="0.00" arrival="13.00" arrivalLane="1318893695#0_0" arrivalPos="9.11" arrivalSpeed="10.08" duration="13.00" routeLength="59.37" waitingTime="0.00" waitingCount="0" stopTime="0.00" timeLoss="8.91" rerouteNo="0" devices="tripinfo_flow_route_18_duration_20250327_1950.0" vType="car" speedFactor="1.01" vaporized=""/>
    <tripinfo id="flow_route_19_duration_20250327_1950.2" depart="9.00" departLane="133126040#0_0" departPos="18.17" departSpeed="0.00" departDelay="0.43" arrival="33.00" arrivalLane="133126031#0_1" arrivalPos="43.02" arrivalSpeed="11.60" duration="24.00" routeLength="153.73" waitingTime="0.00" waitingCount="0" stopTime="0.00" timeLoss="13.18" rerouteNo="0" devices="tripinfo_flow_route_19_duration_20250327_1950.2" vType="car" speedFactor="1.12" vaporized=""/>
    <tripinfo id="flow_route_19_duration_20250327_1950.4" depart="18.00" departLane="133126040#0_0" departPos="78.08" departSpeed="0.00" departDelay="0.86" arrival="34.00" arrivalLane="133126031#0_1" arrivalPos="28.61" arrivalSpeed="10.51" duration="16.00" routeLength="79.40" waitingTime="0.00" waitingCount="0" stopTime="0.00" timeLoss="9.91" rerouteNo="0" devices="tripinfo_flow_route_19_duration_20250327_1950.4" vType="car" speedFactor="0.97" vaporized=""/>
    <tripinfo id="flow_route_0_duration_20250327_1950.2" depart="13.00" departLane="1318793176#1_0" departPos="1.80" departSpeed="0.00" departDelay="6.69" arrival="35.00" arrivalLane="133126031#0_0" arrivalPos="52.91" arrivalSpeed="15.51" duration="22.00" routeLength="171.53" waitingTime="0.00" waitingCount="0" stopTime="0.00" timeLoss="10.42" rerouteNo="0" devices="tripinfo_flow_route_0_duration_20250327_1950.2" vType="car" speedFactor="1.05" vaporized=""/>
    <tripinfo id="flow_route_0_duration_20250327_1950.0" depart="0.00" departLane="1318793176#1_0" departPos="2.64" departSpeed="0.00" departDelay="0.00" arrival="36.00" arrivalLane="133126031#0_0" arrivalPos="296.30" arrivalSpeed="16.57" duration="36.00" routeLength="414.08" waitingTime="0.00" waitingCount="0" stopTime="0.00" timeLoss="10.51" rerouteNo="0" devices="tripinfo_flow_route_0_duration_20250327_1950.0" vType="car" speedFactor="1.06" vaporized=""/>
    <tripinfo id="flow_route_19_duration_20250327_1950.0" depart="0.00" departLane="133126040#0_0" departPos="0.65" departSpeed="0.00" departDelay="0.00" arrival="36.00" arrivalLane="133126031#0_1" arrivalPos="163.43" arrivalSpeed="16.29" duration="36.00" routeLength="291.65" waitingTime="0.00" waitingCount="0" stopTime="0.00" timeLoss="16.72" rerouteNo="0" devices="tripinfo_flow_route_19_duration_20250327_1950.0" vType="car" speedFactor="1.08" vaporized=""/>
    <tripinfo id="flow_route_0_duration_20250327_1950.1" depart="9.00" departLane="1318793176#1_0" departPos="2.82" departSpeed="0.00" departDelay="5.84" arrival="39.00" arrivalLane="133126031#0_0" arrivalPos="170.59" arrivalSpeed="16.16" duration="30.00" routeLength="288.19" waitingTime="0.00" waitingCount="0" stopTime="0.00" timeLoss="10.98" rerouteNo="0" devices="tripinfo_flow_route_0_duration_20250327_1950.1" vType="car" speedFactor="0.94" vaporized=""/>
    <tripinfo id="flow_route_19_duration_20250327_1950.1" depart="5.00" departLane="133126040#0_0" departPos="58.87" departSpeed="0.00" departDelay="0.72" arrival="41.00" arrivalLane="133126031#0_0" arrivalPos="274.12" arrivalSpeed="16.39" duration="36.00" routeLength="344.12" waitingTime="0.00" waitingCount="0" stopTime="0.00" timeLoss="12.63" rerouteNo="0" devices="tripinfo_flow_route_19_duration_20250327_1950.1" vType="car" speedFactor="0.86" vaporized=""/>
    <tripinfo id="flow_route_19_duration_20250327_1950.3" depart="13.00" departLane="133126040#0_0" departPos="19.83" departSpeed="0.00" departDelay="0.15" arrival="48.00" arrivalLane="133126031#0_1" arrivalPos="163.80" arrivalSpeed="16.43" duration="35.00" routeLength="272.84" waitingTime="0.00" waitingCount="0" stopTime="0.00" timeLoss="17.28" rerouteNo="0" devices="tripinfo_flow_route_19_duration_20250327_1950.3" vType="car" speedFactor="1.16" vaporized=""/>
    <tripinfo id="flow_route_0_duration_20250327_1950.3" depart="18.00" departLane="1318793176#1_0" departPos="0.50" departSpeed="0.00" departDelay="8.53" arrival="49.00" arrivalLane="133126031#0_0" arrivalPos="190.09" arrivalSpeed="16.28" duration="31.00" routeLength="310.01" waitingTime="0.00" waitingCount="0" stopTime="0.00" timeLoss="10.51" rerouteNo="0" devices="tripinfo_flow_route_0_duration_20250327_1950.3" vType="car" speedFactor="0.93" vaporized=""/>
    <tripinfo id="flow_route_0_duration_20250327_1950.4" depart="24.00" departLane="1318793176#1_0" departPos="4.54" departSpeed="0.00" departDelay="11.37" arrival="50.00" arrivalLane="133126031#0_0" arrivalPos="102.35" arrivalSpeed="16.08" duration="26.00" routeLength="218.23" waitingTime="0.00" waitingCount="0" stopTime="0.00" timeLoss="11.49" rerouteNo="0" devices="tripinfo_flow_route_0_duration_20250327_1950.4" vType="car" speedFactor="0.94" vaporized=""/>
    <tripinfo id="flow_route_48_duration_20250327_1950.0" depart="2.00" departLane="380351865#0_0" departPos="1.03" departSpeed="0.00" departDelay="2.00" arrival="52.00" arrivalLane="133126031#0_0" arrivalPos="14.50" arrivalSpeed="8.13" duration="50.00" routeLength="180.64" waitingTime="17.00" waitingCount="1" stopTime="0.00" timeLoss="32.26" rerouteNo="0" devices="tripinfo_flow_route_48_duration_20250327_1950.0" vType="car" speedFactor="0.83" vaporized=""/>
    <tripinfo id="flow_route_47_duration_20250327_1950.0" depart="0.00" departLane="380351865#0_0" departPos="11.49" departSpeed="0.00" departDelay="0.00" arrival="57.00" arrivalLane="1318793173#0_1" arrivalPos="63.76" arrivalSpeed="11.50" duration="57.00" routeLength="213.71" waitingTime="22.00" waitingCount="1" stopTime="0.00" timeLoss="39.96" rerouteNo="0" devices="tripinfo_flow_route_47_duration_20250327_1950.0" vType="car" speedFactor="1.03" vaporized=""/>
    <tripinfo id="flow_route_47_duration_20250327_1950.1" depart="16.00" departLane="380351865#0_0" departPos="1.14" departSpeed="0.00" departDelay="10.00" arrival="57.00" arrivalLane="1318793173#0_1" arrivalPos="25.58" arrivalSpeed="9.98" duration="41.00" routeLength="185.88" waitingTime="8.00" waitingCount="1" stopTime="0.00" timeLoss="26.63" rerouteNo="0" devices="tripinfo_flow_route_47_duration_20250327_1950.1" vType="car" speedFactor="1.09" vaporized=""/>
    <tripinfo id="flow_route_48_duration_20250327_1950.2" depart="22.00" departLane="380351865#0_0" departPos="7.12" departSpeed="0.00" departDelay="16.00" arrival="60.00" arrivalLane="133126031#0_0" arrivalPos="10.78" arrivalSpeed="7.03" duration="38.00" routeLength="170.83" waitingTime="2.00" waitingCount="1" stopTime="0.00" timeLoss="24.05" rerouteNo="0" devices="tripinfo_flow_route_48_duration_20250327_1950.2" vType="car" speedFactor="1.03" vaporized=""/>
    <tripinfo id="flow_route_48_duration_20250327_1950.5" depart="36.00" departLane="380351865#0_0" departPos="16.74" departSpeed="0.00" departDelay="21.00" arrival="60.00" arrivalLane="133126031#0_1" arrivalPos="9.26" arrivalSpeed="10.54" duration="24.00" routeLength="159.68" waitingTime="0.00" waitingCount="0" stopTime="0.00" timeLoss="10.83" rerouteNo="0" devices="tripinfo_flow_route_48_duration_20250327_1950.5" vType="car" speedFactor="1.02" vaporized=""/>
    <tripinfo id="flow_route_19_duration_20250327_1950.7" depart="30.00" departLane="133126040#0_0" departPos="105.80" departSpeed="0.00" departDelay="0.01" arrival="61.00" arrivalLane="133126031#0_0" arrivalPos="293.31" arrivalSpeed="16.48" duration="31.00" routeLength="316.37" waitingTime="0.00" waitingCount="0" stopTime="0.00" timeLoss="9.96" rerouteNo="0" devices="tripinfo_flow_route_19_duration_20250327_1950.7" vType="car" speedFactor="0.97" vaporized=""/>
    <tripinfo id="flow_route_48_duration_20250327_1950.1" depart="11.00" departLane="380351865#0_0" departPos="1.52" departSpeed="0.00" departDelay="8.00" arrival="62.00" arrivalLane="133126031#0_1" arrivalPos="107.07" arrivalSpeed="14.14" duration="51.00" routeLength="272.72" waitingTime="9.00" waitingCount="1" stopTime="0.00" timeLoss="28.62" rerouteNo="0" devices="tripinfo_flow_route_48_duration_20250327_1950.1" vType="car" speedFactor="0.89" vaporized=""/>
    <tripinfo id="flow_route_47_duration_20250327_1950.2" depart="30.00" departLane="380351865#0_0" departPos="0.73" departSpeed="0.00" departDelay="18.00" arrival="63.00" arrivalLane="1318793173#0_1" arrivalPos="64.43" arrivalSpeed="12.72" duration="33.00" routeLength="225.15" waitingTime="0.00" waitingCount="0" stopTime="0.00" timeLoss="12.03" rerouteNo="0" devices="tripinfo_flow_route_47_duration_20250327_1950.2" vType="car" speedFactor="0.88" vaporized=""/>
    <tripinfo id="flow_route_49_duration_20250327_1950.0" depart="9.00" departLane="380351865#0_0" departPos="7.02" departSpeed="0.00" departDelay="9.00" arrival="64.00" arrivalLane="1318893695#0_0" arrivalPos="148.83" arrivalSpeed="15.79" duration="55.00" routeLength="285.69" waitingTime="14.00" waitingCount="1" stopTime="0.00" timeLoss="32.88" rerouteNo="0" devices="tripinfo_flow_route_49_duration_20250327_1950.0" vType="car" speedFactor="1.05" vaporized=""/>
    <tripinfo id="flow_route_48_duration_20250327_1950.3" depart="26.00" departLane="380351865#0_0" departPos="5.06" departSpeed="0.00" departDelay="17.00" arrival="65.00" arrivalLane="133126031#0_0" arrivalPos="41.70" arrivalSpeed="10.42" duration="39.00" routeLength="203.81" waitingTime="0.00" waitingCount="0" stopTime="0.00" timeLoss="22.74" rerouteNo="0" devices="tripinfo_flow_route_48_duration_20250327_1950.3" vType="car" speedFactor="0.99" vaporized=""/>
    <tripinfo id="flow_route_19_duration_20250327_1950.6" depart="26.00" departLane="133126040#0_0" departPos="75.66" departSpeed="0.00" departDelay="0.29" arrival="65.00" arrivalLane="133126031#0_0" arrivalPos="323.07" arrivalSpeed="16.36" duration="39.00" routeLength="376.28" waitingTime="0.00" waitingCount="0" stopTime="0.00" timeLoss="15.08" rerouteNo="0" devices="tripinfo_flow_route_19_duration_20250327_1950.6" vType="car" speedFactor="1.17" vaporized=""/>
    <tripinfo id="flow_route_1_duration_20250327_1950.0" depart="4.00" departLane="1318793176#1_0" departPos="3.28" departSpeed="0.00" departDelay="4.00" arrival="78.00" arrivalLane="1318793173#0_1" arrivalPos="77.00" arrivalSpeed="12.64" duration="74.00" routeLength="197.62" waitingTime="40.00" waitingCount="1" stopTime="0.00" timeLoss="61.19" rerouteNo="0" devices="tripinfo_flow_route_1_duration_20250327_1950.0" vType="car" speedFactor="0.94" vaporized=""/>
    <tripinfo id="flow_route_0_duration_20250327_1950.6" depart="33.00" departLane="1318793176#1_0" departPos="2.96" departSpeed="0.00" departDelay="14.06" arrival="78.00" arrivalLane="133126031#0_0" arrivalPos="117.01" arrivalSpeed="14.24" duration="45.00" routeLength="234.46" waitingTime="4.00" waitingCount="1" stopTime="0.00" timeLoss="29.25" rerouteNo="0" devices="tripinfo_flow_route_0_duration_20250327_1950.6" vType="car" speedFactor="0.87" vaporized=""/>
    <tripinfo id="flow_route_1_duration_20250327_1950.1" depart="37.00" departLane="1318793176#1_0" departPos="1.79" departSpeed="0.00" departDelay="17.00" arrival="78.00" arrivalLane="1318793173#0_2" arrivalPos="73.34" arrivalSpeed="11.72" duration="41.00" routeLength="195.46" waitingTime="8.00" waitingCount="1" stopTime="0.00" timeLoss="28.02" rerouteNo="0" devices="tripinfo_flow_route_1_duration_20250327_1950.1" vType="car" speedFactor="0.92" vaporized=""/>
    <tripinfo id="flow_route_0_duration_20250327_1950.9" depart="49.00" departLane="1318793176#1_0" departPos="2.55" departSpeed="0.00" departDelay="20.59" arrival="78.00" arrivalLane="133126031#0_0" arrivalPos="41.34" arrivalSpeed="10.49" duration="29.00" routeLength="159.21" waitingTime="0.00" waitingCount="0" stopTime="0.00" timeLoss="18.90" rerouteNo="0" devices="tripinfo_flow_route_0_duration_20250327_1950.9" vType="car" speedFactor="1.02" vaporized=""/>
    <tripinfo id="flow_route_48_duration_20250327_1950.4" depart="36.00" departLane="380351865#0_0" departPos="0.25" departSpeed="0.00" departDelay="24.00" arrival="79.00" arrivalLane="133126031#0_1" arrivalPos="229.99" arrivalSpeed="16.55" duration="43.00" routeLength="396.91" waitingTime="0.00" waitingCount="0" stopTime="0.00" timeLoss="13.68" rerouteNo="0" devices="tripinfo_flow_route_48_duration_20250327_1950.4" vType="car" speedFactor="0.94" vaporized=""/>
    <tripinfo id="flow_route_0_duration_20250327_1950.7" depart="41.00" departLane="1318793176#1_0" departPos="8.75" departSpeed="0.00" departDelay="18.90" arrival="79.00" arrivalLane="133126031#0_0" arrivalPos="100.68" arrivalSpeed="13.73" duration="38.00" routeLength="212.35" waitingTime="1.00" waitingCount="1" stopTime="0.00" timeLoss="24.00" rerouteNo="0" devices="tripinfo_flow_route_0_duration_20250327_1950.7" vType="car" speedFactor="0.93" vaporized=""/>
    <tripinfo id="flow_route_0_duration_20250327_1950.5" depart="28.00" departLane="1318793176#1_0" departPos="3.00" departSpeed="0.00" departDelay="12.22" arrival="80.00" arrivalLane="133126031#0_0" arrivalPos="308.64" arrivalSpeed="16.27" duration="52.00" routeLength="426.06" waitingTime="2.00" waitingCount="1" stopTime="0.00" timeLoss="24.97" rerouteNo="0" devices="tripinfo_flow_route_0_duration_20250327_1950.5" vType="car" speedFactor="1.01" vaporized=""/>
    <tripinfo id="flow_route_19_duration_20250327_1950.8" depart="35.00" departLane="133126040#0_0" departPos="88.81" departSpeed="0.00" departDelay="0.72" arrival="84.00" arrivalLane="133126031#0_1" arrivalPos="34.21" arrivalSpeed="9.70" duration="49.00" routeLength="74.27" waitingTime="23.00" waitingCount="2" stopTime="0.00" timeLoss="43.03" rerouteNo="0" devices="tripinfo_flow_route_19_duration_20250327_1950.8" vType="car" speedFactor="1.09" vaporized=""/>
    <tripinfo id="flow_route_19_duration_20250327_1950.9" depart="39.00" departLane="133126040#0_0" departPos="52.61" departSpeed="0.00" departDelay="0.44" arrival="86.00" arrivalLane="133126031#0_1" arrivalPos="0.28" arrivalSpeed="4.53" duration="47.00" routeLength="76.54" waitingTime="16.00" waitingCount="3" stopTime="0.00" timeLoss="41.29" rerouteNo="0" devices="tripinfo_flow_route_19_duration_20250327_1950.9" vType="car" speedFactor="1.00" vaporized=""/>
    <tripinfo id="flow_route_0_duration_20250327_1950.8" depart="43.00" departLane="1318793176#1_0" departPos="1.64" departSpeed="0.00" departDelay="17.74" arrival="87.00" arrivalLane="133126031#0_0" arrivalPos="190.77" arrivalSpeed="16.25" duration="44.00" routeLength="309.55" waitingTime="1.00" waitingCount="1" stopTime="0.00" timeLoss="23.92" rerouteNo="0" devices="tripinfo_flow_route_0_duration_20250327_1950.8" vType="car" speedFactor="1.01" vaporized=""/>
    <tripinfo id="flow_route_0_duration_20250327_1950.11" depart="58.00" departLane="1318793176#1_0" departPos="2.37" departSpeed="0.00" departDelay="23.27" arrival="92.00" arrivalLane="133126031#0_0" arrivalPos="190.66" arrivalSpeed="16.33" duration="34.00" routeLength="308.71" waitingTime="0.00" waitingCount="0" stopTime="0.00" timeLoss="13.88" rerouteNo="0" devices="tripinfo_flow_route_0_duration_20250327_1950.11" vType="car" speedFactor="0.96" vaporized=""/>
    <tripinfo id="flow_route_19_duration_20250327_1950.5" depart="22.00" departLane="133126040#0_0" departPos="2.58" departSpeed="0.00" departDelay="0.58" arrival="94.00" arrivalLane="133126031#0_1" arrivalPos="194.55" arrivalSpeed="16.11" duration="72.00" routeLength="320.84" waitingTime="26.00" waitingCount="2" stopTime="0.00" timeLoss="51.42" rerouteNo="0" devices="tripinfo_flow_route_19_duration_20250327_1950.5" vType="car" speedFactor="1.13" vaporized=""/>
    <tripinfo id="flow_route_0_duration_20250327_1950.10" depart="55.00" departLane="1318793176#1_0" departPos="6.46" departSpeed="0.00" departDelay="23.43" arrival="97.00" arrivalLane="133126031#0_0" arrivalPos="300.77" arrivalSpeed="16.35" duration="42.00" routeLength="414.73" waitingTime="0.00" waitingCount="0" stopTime="0.00" timeLoss="15.09" rerouteNo="0" devices="tripinfo_flow_route_0_duration_20250327_1950.10" vType="car" speedFactor="0.90" vaporized=""/>
    <tripinfo id="flow_route_0_duration_20250327_1950.12" depart="63.00" departLane="1318793176#1_0" departPos="3.90" departSpeed="0.00" departDelay="25.12" arrival="98.00" arrivalLane="133126031#0_0" arrivalPos="265.36" arrivalSpeed="16.41" duration="35.00" routeLength="381.88" waitingTime="0.00" waitingCount="0" stopTime="0.00" timeLoss="11.02" rerouteNo="0" devices="tripinfo_flow_route_0_duration_20250327_1950.12" vType="car" speedFactor="1.09" vaporized=""/>
    <tripinfo id="flow_route_19_duration_20250327_1950.11" depart="48.00" departLane="133126040#0_0" departPos="50.38" departSpeed="0.00" departDelay="0.87" arrival="100.00" arrivalLane="133126031#0_1" arrivalPos="64.96" arrivalSpeed="12.43" duration="52.00" routeLength="143.45" waitingTime="7.00" waitingCount="3" stopTime="0.00" timeLoss="41.31" rerouteNo="0" devices="tripinfo_flow_route_19_duration_20250327_1950.11" vType="car" speedFactor="0.90" vaporized=""/>
    <tripinfo id="flow_route_0_duration_20250327_1950.14" depart="73.00" departLane="1318793176#1_0" departPos="2.31" departSpeed="0.00" departDelay="28.80" arrival="101.00" arrivalLane="133126031#0_0" arrivalPos="121.88" arrivalSpeed="16.12" duration="28.00" routeLength="240.00" waitingTime="0.00" waitingCount="0" stopTime="0.00" timeLoss="12.33" rerouteNo="0" devices="tripinfo_flow_route_0_duration_20250327_1950.14" vType="car" speedFactor="1.10" vaporized=""/>
    <tripinfo id="flow_route_0_duration_20250327_1950.15" depart="79.00" departLane="1318793176#1_0" departPos="8.52" departSpeed="0.00" departDelay="31.65" arrival="102.00" arrivalLane="133126031#0_0" arrivalPos="75.74" arrivalSpeed="15.27" duration="23.00" routeLength="187.63" waitingTime="0.00" waitingCount="0" stopTime="0.00" timeLoss="11.03" rerouteNo="0" devices="tripinfo_flow_route_0_duration_20250327_1950.15" vType="car" speedFactor="1.00" vaporized=""/>
    <tripinfo id="flow_route_0_duration_20250327_1950.17" depart="85.00" departLane="1318793176#1_0" departPos="3.24" departSpeed="0.00" departDelay="31.33" arrival="103.00" arrivalLane="133126031#0_0" arrivalPos="2.44" arrivalSpeed="11.95" duration="18.00" routeLength="119.62" waitingTime="0.00" waitingCount="0" stopTime="0.00" timeLoss="10.20" rerouteNo="0" devices="tripinfo_flow_route_0_duration_20250327_1950.17" vType="car" speedFactor="1.02" vaporized=""/>
    <tripinfo id="flow_route_19_duration_20250327_1950.12" depart="52.00" departLane="133126040#0_0" departPos="72.05" departSpeed="0.00" departDelay="0.58" arrival="107.00" arrivalLane="133126031#0_1" arrivalPos="189.41" arrivalSpeed="16.54" duration="55.00" routeLength="246.24" waitingTime="12.00" waitingCount="2" stopTime="0.00" timeLoss="38.21" rerouteNo="0" devices="tripinfo_flow_route_19_duration_20250327_1950.12" vType="car" speedFactor="1.12" vaporized=""/>
    <tripinfo id="flow_route_0_duration_20250327_1950.18" depart="89.00" departLane="1318793176#1_0" departPos="0.18" departSpeed="0.00" departDelay="32.17" arrival="109.00" arrivalLane="133126031#0_0" arrivalPos="3.87" arrivalSpeed="10.66" duration="20.00" routeLength="124.12" waitingTime="0.00" waitingCount="0" stopTime="0.00" timeLoss="10.75" rerouteNo="0" devices="tripinfo_flow_route_0_duration_20250327_1950.18" vType="car" speedFactor="0.91" vaporized=""/>
    <tripinfo id="flow_route_19_duration_20250327_1950.10" depart="43.00" departLane="133126040#0_0" departPos="34.98" departSpeed="0.00" departDelay="0.15" arrival="110.00" arrivalLane="133126031#0_1" arrivalPos="280.56" arrivalSpeed="16.60" duration="67.00" routeLength="374.45" waitingTime="11.00" waitingCount="2" stopTime="0.00" timeLoss="43.24" rerouteNo="0" devices="tripinfo_flow_route_19_duration_20250327_1950.10" vType="car" speedFactor="1.02" vaporized=""/>
    <tripinfo id="flow_route_0_duration_20250327_1950.13" depart="72.00" departLane="1318793176#1_0" departPos="9.48" departSpeed="0.00" departDelay="30.96" arrival="112.00" arrivalLane="133126031#0_0" arrivalPos="331.47" arrivalSpeed="16.31" duration="40.00" routeLength="442.41" waitingTime="0.00" waitingCount="0" stopTime="0.00" timeLoss="11.02" rerouteNo="0" devices="tripinfo_flow_route_0_duration_20250327_1950.13" vType="car" speedFactor="0.85" vaporized=""/>
    <tripinfo id="flow_route_0_duration_20250327_1950.16" depart="79.00" departLane="1318793176#1_0" departPos="0.28" departSpeed="0.00" departDelay="28.49" arrival="112.00" arrivalLane="133126031#0_0" arrivalPos="189.09" arrivalSpeed="16.20" duration="33.00" routeLength="309.22" waitingTime="0.00" waitingCount="0" stopTime="0.00" timeLoss="13.16" rerouteNo="0" devices="tripinfo_flow_route_0_duration_20250327_1950.16" vType="car" speedFactor="0.97" vaporized=""/>
    <tripinfo id="flow_route_47_duration_20250327_1950.3" depart="43.00" departLane="380351865#0_0" departPos="5.68" departSpeed="0.00" departDelay="25.00" arrival="119.00" arrivalLane="1318793173#0_1" arrivalPos="61.29" arrivalSpeed="11.98" duration="76.00" routeLength="217.05" waitingTime="40.00" waitingCount="1" stopTime="0.00" timeLoss="56.18" rerouteNo="0" devices="tripinfo_flow_route_47_duration_20250327_1950.3" vType="car" speedFactor="0.89" vaporized=""/>
    <tripinfo id="flow_route_19_duration_20250327_1950.13" depart="56.00" departLane="133126040#0_0" departPos="57.14" departSpeed="0.00" departDelay="0.30" arrival="120.00" arrivalLane="133126031#0_1" arrivalPos="326.66" arrivalSpeed="16.16" duration="64.00" routeLength="398.39" waitingTime="6.00" waitingCount="3" stopTime="0.00" timeLoss="37.56" rerouteNo="0" devices="tripinfo_flow_route_19_duration_20250327_1950.13" vType="car" speedFactor="0.88" vaporized=""/>
    <tripinfo id="flow_route_48_duration_20250327_1950.6" depart="46.00" departLane="380351865#0_0" departPos="2.21" departSpeed="0.00" departDelay="28.00" arrival="121.00" arrivalLane="133126031#0_0" arrivalPos="68.89" arrivalSpeed="11.38" duration="75.00" routeLength="233.85" waitingTime="36.00" waitingCount="1" stopTime="0.00" timeLoss="54.02" rerouteNo="0" devices="tripinfo_flow_route_48_duration_20250327_1950.6" vType="car" speedFactor="0.83" vaporized=""/>
    <tripinfo id="flow_route_47_duration_20250327_1950.4" depart="57.00" departLane="380351865#0_0" departPos="3.93" departSpeed="0.00" departDelay="33.00" arrival="122.00" arrivalLane="1318793173#0_1" arrivalPos="67.57" arrivalSpeed="12.65" duration="65.00" routeLength="225.08" waitingTime="29.00" waitingCount="1" stopTime="0.00" timeLoss="48.82" rerouteNo="0" devices="tripinfo_flow_route_47_duration_20250327_1950.4" vType="car" speedFactor="1.18" vaporized=""/>
    <tripinfo id="flow_route_48_duration_20250327_1950.9" depart="66.00" departLane="380351865#0_0" departPos="0.54" departSpeed="0.00" departDelay="39.00" arrival="122.00" arrivalLane="133126031#0_1" arrivalPos="33.76" arrivalSpeed="10.76" duration="56.00" routeLength="200.39" waitingTime="20.00" waitingCount="1" stopTime="0.00" timeLoss="39.31" rerouteNo="0" devices="tripinfo_flow_route_48_duration_20250327_1950.9" vType="car" speedFactor="0.99" vaporized=""/>
    <tripinfo id="flow_route_47_duration_20250327_1950.5" depart="72.00" departLane="380351865#0_0" departPos="6.57" departSpeed="0.00" departDelay="42.00" arrival="123.00" arrivalLane="1318793173#0_1" arrivalPos="40.16" arrivalSpeed="11.66" duration="51.00" routeLength="195.03" waitingTime="16.00" waitingCount="1" stopTime="0.00" timeLoss="36.99" rerouteNo="0" devices="tripinfo_flow_route_47_duration_20250327_1950.5" vType="car" speedFactor="1.18" vaporized=""/>
    <tripinfo id="flow_route_48_duration_20250327_1950.7" depart="52.00" departLane="380351865#0_0" departPos="0.59" departSpeed="0.00" departDelay="31.00" arrival="128.00" arrivalLane="133126031#0_0" arrivalPos="129.61" arrivalSpeed="15.29" duration="76.00" routeLength="296.19" waitingTime="32.00" waitingCount="1" stopTime="0.00" timeLoss="52.65" rerouteNo="0" devices="tripinfo_flow_route_48_duration_20250327_1950.7" vType="car" speedFactor="0.95" vaporized=""/>
    <tripinfo id="flow_route_47_duration_20250327_1950.6" depart="87.00" departLane="380351865#0_0" departPos="9.74" departSpeed="0.00" departDelay="51.00" arrival="130.00" arrivalLane="1318793173#0_1" arrivalPos="102.10" arrivalSpeed="15.06" duration="43.00" routeLength="253.81" waitingTime="4.00" waitingCount="1" stopTime="0.00" timeLoss="23.71" rerouteNo="0" devices="tripinfo_flow_route_47_duration_20250327_1950.6" vType="car" speedFactor="1.04" vaporized=""/>
    <tripinfo id="flow_route_47_duration_20250327_1950.7" depart="98.00" departLane="380351865#0_0" departPos="2.46" departSpeed="0.00" departDelay="56.00" arrival="130.00" arrivalLane="1318793173#0_1" arrivalPos="52.68" arrivalSpeed="13.85" duration="32.00" routeLength="211.66" waitingTime="0.00" waitingCount="0" stopTime="0.00" timeLoss="11.67" rerouteNo="0" devices="tripinfo_flow_route_47_duration_20250327_1950.7" vType="car" speedFactor="0.85" vaporized=""/>
    <tripinfo id="flow_route_48_duration_20250327_1950.11" depart="79.00" departLane="380351865#0_0" departPos="13.22" departSpeed="0.00" departDelay="46.00" arrival="132.00" arrivalLane="133126031#0_0" arrivalPos="143.28" arrivalSpeed="16.57" duration="53.00" routeLength="297.23" waitingTime="8.00" waitingCount="1" stopTime="0.00" timeLoss="30.97" rerouteNo="0" devices="tripinfo_flow_route_48_duration_20250327_1950.11" vType="car" speedFactor="1.03" vaporized=""/>
    <tripinfo id="flow_route_48_duration_20250327_1950.10" depart="78.00" departLane="380351865#0_0" departPos="0.19" departSpeed="0.00" departDelay="48.00" arrival="134.00" arrivalLane="133126031#0_0" arrivalPos="159.63" arrivalSpeed="16.54" duration="56.00" routeLength="326.61" waitingTime="9.00" waitingCount="1" stopTime="0.00" timeLoss="33.18" rerouteNo="0" devices="tripinfo_flow_route_48_duration_20250327_1950.10" vType="car" speedFactor="1.10" vaporized=""/>
    <tripinfo id="flow_route_48_duration_20250327_1950.12" depart="90.00" departLane="380351865#0_0" departPos="7.30" departSpeed="0.00" departDelay="54.00" arrival="138.00" arrivalLane="133126031#0_0" arrivalPos="182.65" arrivalSpeed="16.30" duration="48.00" routeLength="342.52" waitingTime="2.00" waitingCount="1" stopTime="0.00" timeLoss="23.49" rerouteNo="0" devices="tripinfo_flow_route_48_duration_20250327_1950.12" vType="car" speedFactor="1.04" vaporized=""/>
    <tripinfo id="flow_route_48_duration_20250327_1950.13" depart="93.00" departLane="380351865#0_0" departPos="1.34" departSpeed="0.00" departDelay="54.00" arrival="139.00" arrivalLane="133126031#0_1" arrivalPos="219.03" arrivalSpeed="16.45" duration="46.00" routeLength="384.86" waitingTime="0.00" waitingCount="0" stopTime="0.00" timeLoss="17.48" rerouteNo="0" devices="tripinfo_flow_route_48_duration_20250327_1950.13" vType="car" speedFactor="0.90" vaporized=""/>
    <tripinfo id="flow_route_48_duration_20250327_1950.8" depart="63.00" departLane="380351865#0_0" departPos="5.29" departSpeed="0.00" departDelay="39.00" arrival="140.00" arrivalLane="133126031#0_0" arrivalPos="307.58" arrivalSpeed="16.27" duration="77.00" routeLength="469.46" waitingTime="24.00" waitingCount="1" stopTime="0.00" timeLoss="45.96" rerouteNo="0" devices="tripinfo_flow_route_48_duration_20250327_1950.8" vType="car" speedFactor="1.15" vaporized=""/>
    <tripinfo id="flow_route_1_duration_20250327_1950.2" depart="67.00" departLane="1318793176#1_0" departPos="3.04" departSpeed="0.00" departDelay="27.00" arrival="143.00" arrivalLane="1318793173#0_1" arrivalPos="98.25" arrivalSpeed="13.70" duration="76.00" routeLength="219.11" waitingTime="41.00" waitingCount="1" stopTime="0.00" timeLoss="60.84" rerouteNo="0" devices="tripinfo_flow_route_1_duration_20250327_1950.2" vType="car" speedFactor="0.88" vaporized=""/>
    <tripinfo id="flow_route_48_duration_20250327_1950.18" depart="125.00" departLane="380351865#0_0" departPos="14.58" departSpeed="0.00" departDelay="71.00" arrival="184.00" arrivalLane="133126031#0_0" arrivalPos="28.29" arrivalSpeed="10.79" duration="59.00" routeLength="180.88" waitingTime="25.00" waitingCount="1" stopTime="0.00" timeLoss="43.48" rerouteNo="0" devices="tripinfo_flow_route_48_duration_20250327_1950.18" vType="car" speedFactor="0.94" vaporized=""/>
    <tripinfo id="flow_route_47_duration_20250327_1950.8" depart="112.00" departLane="380351865#0_0" departPos="2.55" departSpeed="0.00" departDelay="64.00" arrival="187.00" arrivalLane="1318793173#0_1" arrivalPos="99.38" arrivalSpeed="14.30" duration="75.00" routeLength="258.27" waitingTime="38.00" waitingCount="1" stopTime="0.00" timeLoss="56.89" rerouteNo="0" devices="tripinfo_flow_route_47_duration_20250327_1950.8" vType="car" speedFactor="1.14" vaporized=""/>