<?xml version="1.0" encoding="UTF-8"?>

<!-- generated on 2025-05-06 21:09:04 by Eclipse SUMO sumo Version 1.20.0
<configuration xmlns:xsi="http://www.w3.org/2001/XMLSchema-instance" xsi:noNamespaceSchemaLocation="http://sumo.dlr.de/xsd/sumoConfiguration.xsd">

    <input>
        <net-file value="osm.net.xml"/>
        <route-files value="xml/route_rl_cluster_11644940323_11644940324_3828703845_8.rou.xml"/>
    </input>

    <output>
        <tripinfo-output value="xml/tripinfo_rl_cluster_11644940323_11644940324_3828703845_8.xml"/>
    </output>

    <traci_server>
        <remote-port value="38639"/>
    </traci_server>

</configuration>
-->

<tripinfos xmlns:xsi="http://www.w3.org/2001/XMLSchema-instance" xsi:noNamespaceSchemaLocation="http://sumo.dlr.de/xsd/tripinfo_file.xsd">
    <tripinfo id="flow_route_3_duration_20250327_2110.0" depart="0.00" departLane="1318793173#0_0" departPos="80.53" departSpeed="0.00" departDelay="0.00" arrival="19.00" arrivalLane="291974733#0_1" arrivalPos="66.76" arrivalSpeed="13.99" duration="19.00" routeLength="123.20" waitingTime="0.00" waitingCount="0" stopTime="0.00" timeLoss="10.27" rerouteNo="0" devices="tripinfo_flow_route_3_duration_20250327_2110.0" vType="car" speedFactor="0.94" vaporized=""/>
    <tripinfo id="flow_route_2_duration_20250327_2110.0" depart="0.00" departLane="1318793173#0_0" departPos="58.93" departSpeed="0.00" departDelay="0.00" arrival="21.00" arrivalLane="189835257_0" arrivalPos="46.92" arrivalSpeed="16.15" duration="21.00" routeLength="167.93" waitingTime="0.00" waitingCount="0" stopTime="0.00" timeLoss="9.40" rerouteNo="0" devices="tripinfo_flow_route_2_duration_20250327_2110.0" vType="car" speedFactor="1.06" vaporized=""/>
    <tripinfo id="flow_route_16_duration_20250327_2110.0" depart="0.00" departLane="137406408#0_0" departPos="52.27" departSpeed="0.00" departDelay="0.00" arrival="21.00" arrivalLane="133126040#0_0" arrivalPos="80.39" arrivalSpeed="14.83" duration="21.00" routeLength="149.31" waitingTime="0.00" waitingCount="0" stopTime="0.00" timeLoss="11.14" rerouteNo="0" devices="tripinfo_flow_route_16_duration_20250327_2110.0" vType="car" speedFactor="1.05" vaporized=""/>
    <tripinfo id="flow_route_17_duration_20250327_2110.0" depart="0.00" departLane="137406408#0_0" departPos="24.41" departSpeed="0.00" departDelay="0.00" arrival="22.00" arrivalLane="1254771874#0_0" arrivalPos="63.27" arrivalSpeed="16.22" duration="22.00" routeLength="182.06" waitingTime="0.00" waitingCount="0" stopTime="0.00" timeLoss="9.94" rerouteNo="0" devices="tripinfo_flow_route_17_duration_20250327_2110.0" vType="car" speedFactor="0.89" vaporized=""/>
    <tripinfo id="flow_route_9_duration_20250327_2110.0" depart="0.00" departLane="1318793173#0_0" departPos="0.65" departSpeed="0.00" departDelay="0.00" arrival="24.00" arrivalLane="1254771874#0_1" arrivalPos="11.63" arrivalSpeed="11.12" duration="24.00" routeLength="169.44" waitingTime="0.00" waitingCount="0" stopTime="0.00" timeLoss="12.45" rerouteNo="0" devices="tripinfo_flow_route_9_duration_20250327_2110.0" vType="car" speedFactor="1.01" vaporized=""/>
    <tripinfo id="flow_route_2_duration_20250327_2110.3" depart="11.00" departLane="1318793173#0_0" departPos="89.08" departSpeed="0.00" departDelay="1.00" arrival="30.00" arrivalLane="189835257_0" arrivalPos="33.36" arrivalSpeed="13.34" duration="19.00" routeLength="124.22" waitingTime="0.00" waitingCount="0" stopTime="0.00" timeLoss="10.68" rerouteNo="0" devices="tripinfo_flow_route_2_duration_20250327_2110.3" vType="car" speedFactor="1.03" vaporized=""/>
    <tripinfo id="flow_route_2_duration_20250327_2110.1" depart="4.00" departLane="1318793173#0_0" departPos="34.79" departSpeed="0.00" departDelay="0.67" arrival="33.00" arrivalLane="189835257_0" arrivalPos="46.11" arrivalSpeed="14.80" duration="29.00" routeLength="191.25" waitingTime="0.00" waitingCount="0" stopTime="0.00" timeLoss="15.30" rerouteNo="0" devices="tripinfo_flow_route_2_duration_20250327_2110.1" vType="car" speedFactor="0.94" vaporized=""/>
    <tripinfo id="flow_route_2_duration_20250327_2110.4" depart="14.00" departLane="1318793173#0_0" departPos="42.86" departSpeed="0.00" departDelay="0.67" arrival="37.00" arrivalLane="189835257_0" arrivalPos="46.74" arrivalSpeed="16.35" duration="23.00" routeLength="183.82" waitingTime="0.00" waitingCount="0" stopTime="0.00" timeLoss="10.94" rerouteNo="0" devices="tripinfo_flow_route_2_duration_20250327_2110.4" vType="car" speedFactor="1.05" vaporized=""/>
    <tripinfo id="flow_route_9_duration_20250327_2110.1" depart="8.00" departLane="1318793173#0_0" departPos="33.18" departSpeed="0.00" departDelay="0.50" arrival="38.00" arrivalLane="1254771874#0_1" arrivalPos="131.12" arrivalSpeed="16.38" duration="30.00" routeLength="256.41" waitingTime="0.00" waitingCount="0" stopTime="0.00" timeLoss="13.08" rerouteNo="0" devices="tripinfo_flow_route_9_duration_20250327_2110.1" vType="car" speedFactor="1.09" vaporized=""/>
    <tripinfo id="flow_route_2_duration_20250327_2110.2" depart="7.00" departLane="1318793173#0_0" departPos="4.99" departSpeed="0.00" departDelay="0.33" arrival="39.00" arrivalLane="189835257_0" arrivalPos="36.00" arrivalSpeed="13.92" duration="32.00" routeLength="210.95" waitingTime="0.00" waitingCount="0" stopTime="0.00" timeLoss="16.49" rerouteNo="0" devices="tripinfo_flow_route_2_duration_20250327_2110.2" vType="car" speedFactor="0.86" vaporized=""/>
    <tripinfo id="flow_route_2_duration_20250327_2110.5" depart="17.00" departLane="1318793173#0_0" departPos="17.19" departSpeed="0.00" departDelay="0.34" arrival="42.00" arrivalLane="189835257_0" arrivalPos="40.26" arrivalSpeed="15.01" duration="25.00" routeLength="203.00" waitingTime="0.00" waitingCount="0" stopTime="0.00" timeLoss="10.97" rerouteNo="0" devices="tripinfo_flow_route_2_duration_20250327_2110.5" vType="car" speedFactor="0.93" vaporized=""/>
    <tripinfo id="flow_route_2_duration_20250327_2110.6" depart="20.00" departLane="1318793173#0_0" departPos="3.22" departSpeed="0.00" departDelay="0.00" arrival="47.00" arrivalLane="189835257_0" arrivalPos="50.37" arrivalSpeed="14.62" duration="27.00" routeLength="227.09" waitingTime="0.00" waitingCount="0" stopTime="0.00" timeLoss="10.72" rerouteNo="0" devices="tripinfo_flow_route_2_duration_20250327_2110.6" vType="car" speedFactor="0.88" vaporized=""/>
    <tripinfo id="flow_route_9_duration_20250327_2110.2" depart="15.00" departLane="1318793173#0_0" departPos="3.50" departSpeed="0.00" departDelay="0.00" arrival="48.00" arrivalLane="1254771874#0_1" arrivalPos="139.14" arrivalSpeed="16.26" duration="33.00" routeLength="294.10" waitingTime="0.00" waitingCount="0" stopTime="0.00" timeLoss="13.90" rerouteNo="0" devices="tripinfo_flow_route_9_duration_20250327_2110.2" vType="car" speedFactor="1.12" vaporized=""/>
    <tripinfo id="flow_route_3_duration_20250327_2110.1" depart="34.00" departLane="1318793173#0_0" departPos="59.09" departSpeed="0.00" departDelay="4.00" arrival="49.00" arrivalLane="291974733#0_1" arrivalPos="8.34" arrivalSpeed="11.76" duration="15.00" routeLength="86.21" waitingTime="0.00" waitingCount="0" stopTime="0.00" timeLoss="9.33" rerouteNo="0" devices="tripinfo_flow_route_3_duration_20250327_2110.1" vType="car" speedFactor="1.01" vaporized=""/>
    <tripinfo id="flow_route_2_duration_20250327_2110.12" depart="47.00" departLane="1318793173#0_0" departPos="105.57" departSpeed="0.00" departDelay="7.00" arrival="62.00" arrivalLane="189835257_0" arrivalPos="9.51" arrivalSpeed="11.63" duration="15.00" routeLength="83.89" waitingTime="0.00" waitingCount="0" stopTime="0.00" timeLoss="8.61" rerouteNo="0" devices="tripinfo_flow_route_2_duration_20250327_2110.12" vType="car" speedFactor="0.93" vaporized=""/>
    <tripinfo id="flow_route_9_duration_20250327_2110.3" depart="28.00" departLane="1318793173#0_0" departPos="18.15" departSpeed="0.00" departDelay="5.50" arrival="63.00" arrivalLane="1254771874#0_1" arrivalPos="175.12" arrivalSpeed="16.41" duration="35.00" routeLength="315.44" waitingTime="0.00" waitingCount="0" stopTime="0.00" timeLoss="14.03" rerouteNo="0" devices="tripinfo_flow_route_9_duration_20250327_2110.3" vType="car" speedFactor="0.94" vaporized=""/>
    <tripinfo id="flow_route_2_duration_20250327_2110.11" depart="41.00" departLane="1318793173#0_0" departPos="78.01" departSpeed="0.00" departDelay="4.34" arrival="67.00" arrivalLane="189835257_0" arrivalPos="52.25" arrivalSpeed="13.51" duration="26.00" routeLength="154.18" waitingTime="0.00" waitingCount="0" stopTime="0.00" timeLoss="15.66" rerouteNo="0" devices="tripinfo_flow_route_2_duration_20250327_2110.11" vType="car" speedFactor="0.95" vaporized=""/>
    <tripinfo id="flow_route_2_duration_20250327_2110.7" depart="33.00" departLane="1318793173#0_0" departPos="19.82" departSpeed="0.00" departDelay="9.67" arrival="68.00" arrivalLane="189835257_0" arrivalPos="6.81" arrivalSpeed="11.83" duration="35.00" routeLength="166.94" waitingTime="0.00" waitingCount="0" stopTime="0.00" timeLoss="23.44" rerouteNo="0" devices="tripinfo_flow_route_2_duration_20250327_2110.7" vType="car" speedFactor="0.94" vaporized=""/>
    <tripinfo id="flow_route_9_duration_20250327_2110.4" depart="39.00" departLane="1318793173#0_0" departPos="61.29" departSpeed="0.00" departDelay="9.00" arrival="68.00" arrivalLane="1254771874#0_1" arrivalPos="170.79" arrivalSpeed="16.53" duration="29.00" routeLength="267.96" waitingTime="0.00" waitingCount="0" stopTime="0.00" timeLoss="10.97" rerouteNo="0" devices="tripinfo_flow_route_9_duration_20250327_2110.4" vType="car" speedFactor="0.97" vaporized=""/>
    <tripinfo id="flow_route_2_duration_20250327_2110.9" depart="34.00" departLane="1318793173#0_0" departPos="30.13" departSpeed="0.00" departDelay="4.00" arrival="69.00" arrivalLane="189835257_0" arrivalPos="42.74" arrivalSpeed="13.70" duration="35.00" routeLength="192.55" waitingTime="0.00" waitingCount="0" stopTime="0.00" timeLoss="22.61" rerouteNo="0" devices="tripinfo_flow_route_2_duration_20250327_2110.9" vType="car" speedFactor="1.02" vaporized=""/>
    <tripinfo id="flow_route_2_duration_20250327_2110.8" depart="34.00" departLane="1318793173#0_0" departPos="3.01" departSpeed="0.00" departDelay="7.34" arrival="71.00" arrivalLane="189835257_0" arrivalPos="13.91" arrivalSpeed="12.10" duration="37.00" routeLength="190.84" waitingTime="0.00" waitingCount="0" stopTime="0.00" timeLoss="24.72" rerouteNo="0" devices="tripinfo_flow_route_2_duration_20250327_2110.8" vType="car" speedFactor="1.16" vaporized=""/>
    <tripinfo id="flow_route_9_duration_20250327_2110.5" depart="43.00" departLane="1318793173#0_0" departPos="22.95" departSpeed="0.00" departDelay="5.50" arrival="71.00" arrivalLane="1254771874#0_1" arrivalPos="86.66" arrivalSpeed="15.65" duration="28.00" routeLength="222.18" waitingTime="0.00" waitingCount="0" stopTime="0.00" timeLoss="12.99" rerouteNo="0" devices="tripinfo_flow_route_9_duration_20250327_2110.5" vType="car" speedFactor="1.13" vaporized=""/>
    <tripinfo id="flow_route_2_duration_20250327_2110.10" depart="40.00" departLane="1318793173#0_0" departPos="5.06" departSpeed="0.00" departDelay="6.67" arrival="72.00" arrivalLane="189835257_0" arrivalPos="8.00" arrivalSpeed="12.73" duration="32.00" routeLength="182.87" waitingTime="0.00" waitingCount="0" stopTime="0.00" timeLoss="19.16" rerouteNo="0" devices="tripinfo_flow_route_2_duration_20250327_2110.10" vType="car" speedFactor="0.92" vaporized=""/>
    <tripinfo id="flow_route_2_duration_20250327_2110.13" depart="47.00" departLane="1318793173#0_0" departPos="2.58" departSpeed="0.00" departDelay="3.67" arrival="75.00" arrivalLane="189835257_0" arrivalPos="22.29" arrivalSpeed="13.78" duration="28.00" routeLength="199.65" waitingTime="0.00" waitingCount="0" stopTime="0.00" timeLoss="15.29" rerouteNo="0" devices="tripinfo_flow_route_2_duration_20250327_2110.13" vType="car" speedFactor="1.18" vaporized=""/>
    <tripinfo id="flow_route_9_duration_20250327_2110.6" depart="52.00" departLane="1318793173#0_0" departPos="45.94" departSpeed="0.00" departDelay="7.00" arrival="78.00" arrivalLane="1254771874#0_1" arrivalPos="99.63" arrivalSpeed="16.19" duration="26.00" routeLength="212.16" waitingTime="0.00" waitingCount="0" stopTime="0.00" timeLoss="11.14" rerouteNo="0" devices="tripinfo_flow_route_9_duration_20250327_2110.6" vType="car" speedFactor="1.15" vaporized=""/>
    <tripinfo id="flow_route_13_duration_20250327_2110.0" depart="0.00" departLane="1252820503#0_0" departPos="99.64" departSpeed="0.00" departDelay="0.00" arrival="86.00" arrivalLane="291974733#0_0" arrivalPos="46.05" arrivalSpeed="9.48" duration="86.00" routeLength="103.57" waitingTime="61.00" waitingCount="1" stopTime="0.00" timeLoss="78.45" rerouteNo="0" devices="tripinfo_flow_route_13_duration_20250327_2110.0" vType="car" speedFactor="1.08" vaporized=""/>
    <tripinfo id="flow_route_15_duration_20250327_2110.0" depart="1.00" departLane="1252820503#0_0" departPos="8.92" departSpeed="0.00" departDelay="1.00" arrival="86.00" arrivalLane="133126040#0_1" arrivalPos="4.72" arrivalSpeed="7.98" duration="85.00" routeLength="174.98" waitingTime="52.00" waitingCount="1" stopTime="0.00" timeLoss="73.26" rerouteNo="0" devices="tripinfo_flow_route_15_duration_20250327_2110.0" vType="car" speedFactor="0.83" vaporized=""/>
    <tripinfo id="flow_route_2_duration_20250327_2110.17" depart="68.00" departLane="1318793173#0_0" departPos="72.98" departSpeed="0.00" departDelay="11.34" arrival="86.00" arrivalLane="189835257_0" arrivalPos="18.06" arrivalSpeed="13.72" duration="18.00" routeLength="125.01" waitingTime="0.00" waitingCount="0" stopTime="0.00" timeLoss="10.03" rerouteNo="0" devices="tripinfo_flow_route_2_duration_20250327_2110.17" vType="car" speedFactor="1.18" vaporized=""/>
    <tripinfo id="flow_route_2_duration_20250327_2110.14" depart="58.00" departLane="1318793173#0_0" departPos="10.97" departSpeed="0.00" departDelay="11.34" arrival="90.00" arrivalLane="189835257_0" arrivalPos="19.23" arrivalSpeed="13.53" duration="32.00" routeLength="188.20" waitingTime="0.00" waitingCount="0" stopTime="0.00" timeLoss="20.20" rerouteNo="0" devices="tripinfo_flow_route_2_duration_20250327_2110.14" vType="car" speedFactor="1.17" vaporized=""/>
    <tripinfo id="flow_route_2_duration_20250327_2110.15" depart="61.00" departLane="1318793173#0_0" departPos="30.39" departSpeed="0.00" departDelay="11.01" arrival="90.00" arrivalLane="189835257_0" arrivalPos="32.92" arrivalSpeed="15.43" duration="29.00" routeLength="182.47" waitingTime="0.00" waitingCount="0" stopTime="0.00" timeLoss="16.53" rerouteNo="0" devices="tripinfo_flow_route_2_duration_20250327_2110.15" vType="car" speedFactor="0.99" vaporized=""/>
    <tripinfo id="flow_route_14_duration_20250327_2110.1" depart="15.00" departLane="1252820503#0_0" departPos="44.68" departSpeed="0.00" departDelay="0.00" arrival="93.00" arrivalLane="1254771874#0_0" arrivalPos="60.51" arrivalSpeed="14.16" duration="78.00" routeLength="225.71" waitingTime="42.00" waitingCount="1" stopTime="0.00" timeLoss="64.19" rerouteNo="0" devices="tripinfo_flow_route_14_duration_20250327_2110.1" vType="car" speedFactor="0.99" vaporized=""/>
    <tripinfo id="flow_route_13_duration_20250327_2110.1" depart="31.00" departLane="1252820503#0_0" departPos="85.88" departSpeed="0.00" departDelay="1.00" arrival="93.00" arrivalLane="291974733#0_0" arrivalPos="67.05" arrivalSpeed="11.31" duration="62.00" routeLength="138.33" waitingTime="32.00" waitingCount="1" stopTime="0.00" timeLoss="51.22" rerouteNo="0" devices="tripinfo_flow_route_13_duration_20250327_2110.1" vType="car" speedFactor="0.89" vaporized=""/>
    <tripinfo id="flow_route_2_duration_20250327_2110.16" depart="67.00" departLane="1318793173#0_0" departPos="4.60" departSpeed="0.00" departDelay="13.67" arrival="93.00" arrivalLane="189835257_0" arrivalPos="30.21" arrivalSpeed="13.87" duration="26.00" routeLength="205.55" waitingTime="0.00" waitingCount="0" stopTime="0.00" timeLoss="12.43" rerouteNo="0" devices="tripinfo_flow_route_2_duration_20250327_2110.16" vType="car" speedFactor="0.97" vaporized=""/>
    <tripinfo id="flow_route_14_duration_20250327_2110.0" depart="0.00" departLane="1252820503#0_0" departPos="69.02" departSpeed="0.00" departDelay="0.00" arrival="97.00" arrivalLane="1254771874#0_0" arrivalPos="150.80" arrivalSpeed="16.35" duration="97.00" routeLength="291.67" waitingTime="57.00" waitingCount="1" stopTime="0.00" timeLoss="79.33" rerouteNo="0" devices="tripinfo_flow_route_14_duration_20250327_2110.0" vType="car" speedFactor="1.03" vaporized=""/>
    <tripinfo id="flow_route_14_duration_20250327_2110.2" depart="31.00" departLane="1252820503#0_0" departPos="24.93" departSpeed="0.00" departDelay="1.00" arrival="101.00" arrivalLane="1254771874#0_1" arrivalPos="152.41" arrivalSpeed="16.53" duration="70.00" routeLength="337.36" waitingTime="26.00" waitingCount="1" stopTime="0.00" timeLoss="48.75" rerouteNo="0" devices="tripinfo_flow_route_14_duration_20250327_2110.2" vType="car" speedFactor="0.83" vaporized=""/>
    <tripinfo id="flow_route_14_duration_20250327_2110.3" depart="45.00" departLane="1252820503#0_0" departPos="86.61" departSpeed="0.00" departDelay="0.00" arrival="102.00" arrivalLane="1254771874#0_0" arrivalPos="131.09" arrivalSpeed="16.12" duration="57.00" routeLength="254.36" waitingTime="20.00" waitingCount="1" stopTime="0.00" timeLoss="41.43" rerouteNo="0" devices="tripinfo_flow_route_14_duration_20250327_2110.3" vType="car" speedFactor="1.01" vaporized=""/>
    <tripinfo id="flow_route_9_duration_20250327_2110.7" depart="63.00" departLane="1318793173#0_0" departPos="77.08" departSpeed="0.00" departDelay="10.50" arrival="131.00" arrivalLane="1254771874#0_1" arrivalPos="116.51" arrivalSpeed="15.12" duration="68.00" routeLength="197.89" waitingTime="38.00" waitingCount="1" stopTime="0.00" timeLoss="54.80" rerouteNo="0" devices="tripinfo_flow_route_9_duration_20250327_2110.7" vType="car" speedFactor="1.02" vaporized=""/>
    <tripinfo id="flow_route_17_duration_20250327_2110.1" depart="30.00" departLane="137406408#0_0" departPos="28.41" departSpeed="0.00" departDelay="0.00" arrival="135.00" arrivalLane="1254771874#0_0" arrivalPos="176.79" arrivalSpeed="16.26" duration="105.00" routeLength="291.59" waitingTime="67.00" waitingCount="1" stopTime="0.00" timeLoss="85.86" rerouteNo="0" devices="tripinfo_flow_route_17_duration_20250327_2110.1" vType="car" speedFactor="0.87" vaporized=""/>
</tripinfos>
