<?xml version="1.0" encoding="UTF-8"?>

<!-- generated on 2025-05-06 21:09:03 by Eclipse SUMO sumo Version 1.20.0
<configuration xmlns:xsi="http://www.w3.org/2001/XMLSchema-instance" xsi:noNamespaceSchemaLocation="http://sumo.dlr.de/xsd/sumoConfiguration.xsd">

    <input>
        <net-file value="osm.net.xml"/>
        <route-files value="xml/route_rl_11644940310_8.rou.xml"/>
    </input>

    <output>
        <tripinfo-output value="xml/tripinfo_rl_11644940310_8.xml"/>
    </output>

    <traci_server>
        <remote-port value="40251"/>
    </traci_server>

</configuration>
-->

<tripinfos xmlns:xsi="http://www.w3.org/2001/XMLSchema-instance" xsi:noNamespaceSchemaLocation="http://sumo.dlr.de/xsd/tripinfo_file.xsd">
    <tripinfo id="flow_route_27_duration_without_traffic.0" depart="0.00" departLane="1254771874#0_0" departPos="190.47" departSpeed="0.00" departDelay="0.00" arrival="15.00" arrivalLane="138002006#0_1" arrivalPos="4.04" arrivalSpeed="9.09" duration="15.00" routeLength="85.46" waitingTime="0.00" waitingCount="0" stopTime="0.00" timeLoss="8.79" rerouteNo="0" devices="tripinfo_flow_route_27_duration_without_traffic.0" vType="car" speedFactor="1.01" vaporized=""/>
    <tripinfo id="flow_route_25_duration_without_traffic.0" depart="0.00" departLane="1254771874#0_0" departPos="63.27" departSpeed="0.00" departDelay="0.00" arrival="33.00" arrivalLane="1341093415#0_1" arrivalPos="158.81" arrivalSpeed="16.46" duration="33.00" routeLength="373.33" waitingTime="0.00" waitingCount="0" stopTime="0.00" timeLoss="10.11" rerouteNo="0" devices="tripinfo_flow_route_25_duration_without_traffic.0" vType="car" speedFactor="1.06" vaporized=""/>
    <tripinfo id="flow_route_26_duration_without_traffic.0" depart="0.00" departLane="1254771874#0_0" departPos="139.38" departSpeed="0.00" departDelay="0.00" arrival="39.00" arrivalLane="-422986370#2_0" arrivalPos="213.43" arrivalSpeed="15.21" duration="39.00" routeLength="338.64" waitingTime="0.00" waitingCount="0" stopTime="0.00" timeLoss="16.01" rerouteNo="0" devices="tripinfo_flow_route_26_duration_without_traffic.0" vType="car" speedFactor="0.94" vaporized=""/>
    <tripinfo id="flow_route_40_duration_without_traffic.1" depart="15.00" departLane="1369578054_0" departPos="262.36" departSpeed="0.00" departDelay="0.00" arrival="47.00" arrivalLane="1341093415#0_0" arrivalPos="10.74" arrivalSpeed="6.37" duration="32.00" routeLength="59.30" waitingTime="13.00" waitingCount="1" stopTime="0.00" timeLoss="27.04" rerouteNo="0" devices="tripinfo_flow_route_40_duration_without_traffic.1" vType="car" speedFactor="0.89" vaporized=""/>
    <tripinfo id="flow_route_50_duration_without_traffic.0" depart="0.00" departLane="-138002006#3_0" departPos="41.39" departSpeed="0.00" departDelay="0.00" arrival="48.00" arrivalLane="-422986370#2_0" arrivalPos="13.06" arrivalSpeed="6.90" duration="48.00" routeLength="82.72" waitingTime="25.00" waitingCount="1" stopTime="0.00" timeLoss="41.65" rerouteNo="0" devices="tripinfo_flow_route_50_duration_without_traffic.0" vType="car" speedFactor="0.83" vaporized=""/>
    <tripinfo id="flow_route_41_duration_without_traffic.1" depart="30.00" departLane="1369578054_0" departPos="189.81" departSpeed="0.00" departDelay="0.00" arrival="50.00" arrivalLane="138002006#0_1" arrivalPos="4.10" arrivalSpeed="13.02" duration="20.00" routeLength="136.22" waitingTime="0.00" waitingCount="0" stopTime="0.00" timeLoss="11.22" rerouteNo="0" devices="tripinfo_flow_route_41_duration_without_traffic.1" vType="car" speedFactor="1.09" vaporized=""/>
    <tripinfo id="flow_route_41_duration_without_traffic.0" depart="0.00" departLane="1369578054_0" departPos="201.66" departSpeed="0.00" departDelay="0.00" arrival="51.00" arrivalLane="138002006#0_0" arrivalPos="52.37" arrivalSpeed="11.37" duration="51.00" routeLength="172.64" waitingTime="20.00" waitingCount="1" stopTime="0.00" timeLoss="40.07" rerouteNo="0" devices="tripinfo_flow_route_41_duration_without_traffic.0" vType="car" speedFactor="1.03" vaporized=""/>
    <tripinfo id="flow_route_40_duration_without_traffic.0" depart="0.00" departLane="1369578054_0" departPos="1.81" departSpeed="0.00" departDelay="0.00" arrival="58.00" arrivalLane="1341093415#0_0" arrivalPos="87.60" arrivalSpeed="12.96" duration="58.00" routeLength="396.71" waitingTime="9.00" waitingCount="1" stopTime="0.00" timeLoss="32.61" rerouteNo="0" devices="tripinfo_flow_route_40_duration_without_traffic.0" vType="car" speedFactor="1.08" vaporized=""/>
    <tripinfo id="flow_route_51_duration_without_traffic.0" depart="2.00" departLane="-138002006#3_0" departPos="23.48" departSpeed="0.00" departDelay="2.00" arrival="69.00" arrivalLane="1341093415#0_3" arrivalPos="132.48" arrivalSpeed="14.86" duration="67.00" routeLength="212.67" waitingTime="32.00" waitingCount="2" stopTime="0.00" timeLoss="53.31" rerouteNo="0" devices="tripinfo_flow_route_51_duration_without_traffic.0" vType="car" speedFactor="1.05" vaporized=""/>
    <tripinfo id="flow_route_40_duration_without_traffic.3" depart="45.00" departLane="1369578054_0" departPos="247.00" departSpeed="0.00" departDelay="0.00" arrival="72.00" arrivalLane="1341093415#0_0" arrivalPos="167.37" arrivalSpeed="16.30" duration="27.00" routeLength="231.30" waitingTime="0.00" waitingCount="0" stopTime="0.00" timeLoss="11.75" rerouteNo="0" devices="tripinfo_flow_route_40_duration_without_traffic.3" vType="car" speedFactor="1.03" vaporized=""/>
    <tripinfo id="flow_route_40_duration_without_traffic.2" depart="30.00" departLane="1369578054_0" departPos="92.01" departSpeed="0.00" departDelay="0.00" arrival="73.00" arrivalLane="1341093415#0_0" arrivalPos="121.85" arrivalSpeed="15.12" duration="43.00" routeLength="340.76" waitingTime="0.00" waitingCount="0" stopTime="0.00" timeLoss="18.48" rerouteNo="0" devices="tripinfo_flow_route_40_duration_without_traffic.2" vType="car" speedFactor="0.86" vaporized=""/>
    <tripinfo id="flow_route_26_duration_without_traffic.1" depart="30.00" departLane="1254771874#0_0" departPos="131.12" departSpeed="0.00" departDelay="0.00" arrival="127.00" arrivalLane="-422986370#2_0" arrivalPos="96.44" arrivalSpeed="13.22" duration="97.00" routeLength="229.92" waitingTime="60.00" waitingCount="1" stopTime="0.00" timeLoss="81.43" rerouteNo="0" devices="tripinfo_flow_route_26_duration_without_traffic.1" vType="car" speedFactor="0.94" vaporized=""/>
</tripinfos>
