<?xml version="1.0" encoding="UTF-8"?>

<!-- generated on 2025-05-06 21:07:52 by Eclipse SUMO sumo Version 1.20.0
<configuration xmlns:xsi="http://www.w3.org/2001/XMLSchema-instance" xsi:noNamespaceSchemaLocation="http://sumo.dlr.de/xsd/sumoConfiguration.xsd">

    <input>
        <net-file value="osm.net.xml"/>
        <route-files value="xml/route_rl_cluster3828547534_cluster_1507433914_2954854770_2954854771_2954854772_#9more_1.rou.xml"/>
    </input>

    <output>
        <tripinfo-output value="xml/tripinfo_rl_cluster3828547534_cluster_1507433914_2954854770_2954854771_2954854772_#9more_1.xml"/>
    </output>

    <traci_server>
        <remote-port value="46991"/>
    </traci_server>

</configuration>
-->

<tripinfos xmlns:xsi="http://www.w3.org/2001/XMLSchema-instance" xsi:noNamespaceSchemaLocation="http://sumo.dlr.de/xsd/tripinfo_file.xsd">
    <tripinfo id="flow_route_6_duration_20250327_2120.0" depart="0.00" departLane="1252820505#0_0" departPos="39.30" departSpeed="0.00" departDelay="0.00" arrival="18.00" arrivalLane="379698350#0_0" arrivalPos="9.38" arrivalSpeed="14.07" duration="18.00" routeLength="129.45" waitingTime="0.00" waitingCount="0" stopTime="0.00" timeLoss="9.93" rerouteNo="0" devices="tripinfo_flow_route_6_duration_20250327_2120.0" vType="car" speedFactor="1.01" vaporized=""/>
    <tripinfo id="flow_route_22_duration_20250327_2120.0" depart="0.00" departLane="137415945#0_0" departPos="8.70" departSpeed="0.00" departDelay="0.00" arrival="24.00" arrivalLane="1342054204_0" arrivalPos="47.56" arrivalSpeed="15.23" duration="24.00" routeLength="232.19" waitingTime="0.00" waitingCount="0" stopTime="0.00" timeLoss="9.00" rerouteNo="0" devices="tripinfo_flow_route_22_duration_20250327_2120.0" vType="car" speedFactor="0.94" vaporized=""/>
    <tripinfo id="flow_route_24_duration_20250327_2120.0" depart="5.00" departLane="137415945#0_0" departPos="6.93" departSpeed="0.00" departDelay="5.00" arrival="26.00" arrivalLane="137406408#0_0" arrivalPos="0.56" arrivalSpeed="15.56" duration="21.00" routeLength="162.63" waitingTime="0.00" waitingCount="0" stopTime="0.00" timeLoss="10.79" rerouteNo="0" devices="tripinfo_flow_route_24_duration_20250327_2120.0" vType="car" speedFactor="1.09" vaporized=""/>
    <tripinfo id="flow_route_8_duration_20250327_2120.1" depart="7.00" departLane="133000078#0_0" departPos="197.52" departSpeed="0.00" departDelay="0.33" arrival="27.00" arrivalLane="1235147073.116_0" arrivalPos="4.62" arrivalSpeed="16.12" duration="20.00" routeLength="167.28" waitingTime="0.00" waitingCount="0" stopTime="0.00" timeLoss="9.06" rerouteNo="0" devices="tripinfo_flow_route_8_duration_20250327_2120.1" vType="car" speedFactor="1.12" vaporized=""/>
    <tripinfo id="flow_route_10_duration_20250327_2120.0" depart="0.00" departLane="1252820505#0_0" departPos="5.24" departSpeed="0.00" departDelay="0.00" arrival="29.00" arrivalLane="1235147073.116_0" arrivalPos="0.67" arrivalSpeed="13.51" duration="29.00" routeLength="263.17" waitingTime="0.00" waitingCount="0" stopTime="0.00" timeLoss="9.46" rerouteNo="0" devices="tripinfo_flow_route_10_duration_20250327_2120.0" vType="car" speedFactor="0.83" vaporized=""/>
    <tripinfo id="flow_route_8_duration_20250327_2120.2" depart="14.00" departLane="133000078#0_0" departPos="193.07" departSpeed="0.00" departDelay="0.67" arrival="35.00" arrivalLane="1235147073.116_0" arrivalPos="10.96" arrivalSpeed="16.18" duration="21.00" routeLength="178.07" waitingTime="0.00" waitingCount="0" stopTime="0.00" timeLoss="8.81" rerouteNo="0" devices="tripinfo_flow_route_8_duration_20250327_2120.2" vType="car" speedFactor="1.01" vaporized=""/>
    <tripinfo id="flow_route_6_duration_20250327_2120.1" depart="15.00" departLane="1252820505#0_0" departPos="83.00" departSpeed="0.00" departDelay="0.00" arrival="35.00" arrivalLane="379698350#0_0" arrivalPos="63.48" arrivalSpeed="13.41" duration="20.00" routeLength="139.85" waitingTime="0.00" waitingCount="0" stopTime="0.00" timeLoss="9.17" rerouteNo="0" devices="tripinfo_flow_route_6_duration_20250327_2120.1" vType="car" speedFactor="0.83" vaporized=""/>
    <tripinfo id="flow_route_10_duration_20250327_2120.1" depart="9.00" departLane="1252820505#0_0" departPos="22.95" departSpeed="0.00" departDelay="0.43" arrival="36.00" arrivalLane="1235147073.116_1" arrivalPos="1.98" arrivalSpeed="14.15" duration="27.00" routeLength="246.77" waitingTime="0.00" waitingCount="0" stopTime="0.00" timeLoss="9.66" rerouteNo="0" devices="tripinfo_flow_route_10_duration_20250327_2120.1" vType="car" speedFactor="0.88" vaporized=""/>
    <tripinfo id="flow_route_11_duration_20250327_2120.0" depart="0.00" departLane="1252820505#0_0" departPos="76.11" departSpeed="0.00" departDelay="0.00" arrival="37.00" arrivalLane="137406408#0_2" arrivalPos="68.60" arrivalSpeed="12.72" duration="37.00" routeLength="154.08" waitingTime="7.00" waitingCount="1" stopTime="0.00" timeLoss="27.06" rerouteNo="0" devices="tripinfo_flow_route_11_duration_20250327_2120.0" vType="car" speedFactor="1.05" vaporized=""/>
    <tripinfo id="flow_route_22_duration_20250327_2120.1" depart="10.00" departLane="137415945#0_0" departPos="2.84" departSpeed="0.00" departDelay="5.72" arrival="37.00" arrivalLane="1342054204_0" arrivalPos="77.43" arrivalSpeed="16.25" duration="27.00" routeLength="267.92" waitingTime="0.00" waitingCount="0" stopTime="0.00" timeLoss="10.75" rerouteNo="0" devices="tripinfo_flow_route_22_duration_20250327_2120.1" vType="car" speedFactor="1.03" vaporized=""/>
    <tripinfo id="flow_route_8_duration_20250327_2120.0" depart="0.00" departLane="133000078#0_0" departPos="54.62" departSpeed="0.00" departDelay="0.00" arrival="38.00" arrivalLane="1235147073.116_0" arrivalPos="9.03" arrivalSpeed="16.44" duration="38.00" routeLength="314.60" waitingTime="0.00" waitingCount="0" stopTime="0.00" timeLoss="17.69" rerouteNo="0" devices="tripinfo_flow_route_8_duration_20250327_2120.0" vType="car" speedFactor="1.03" vaporized=""/>
    <tripinfo id="flow_route_24_duration_20250327_2120.1" depart="15.00" departLane="137415945#0_0" departPos="6.27" departSpeed="0.00" departDelay="10.72" arrival="40.00" arrivalLane="137406408#0_0" arrivalPos="36.60" arrivalSpeed="16.43" duration="25.00" routeLength="199.33" waitingTime="1.00" waitingCount="1" stopTime="0.00" timeLoss="12.00" rerouteNo="0" devices="tripinfo_flow_route_24_duration_20250327_2120.1" vType="car" speedFactor="1.05" vaporized=""/>
    <tripinfo id="flow_route_10_duration_20250327_2120.3" depart="26.00" departLane="1252820505#0_0" departPos="84.91" departSpeed="0.00" departDelay="0.29" arrival="48.00" arrivalLane="1235147073.116_0" arrivalPos="12.64" arrivalSpeed="16.53" duration="22.00" routeLength="195.47" waitingTime="0.00" waitingCount="0" stopTime="0.00" timeLoss="9.82" rerouteNo="0" devices="tripinfo_flow_route_10_duration_20250327_2120.3" vType="car" speedFactor="0.99" vaporized=""/>
    <tripinfo id="flow_route_10_duration_20250327_2120.2" depart="20.00" departLane="1252820505#0_0" departPos="18.01" departSpeed="0.00" departDelay="2.86" arrival="49.00" arrivalLane="1235147073.116_0" arrivalPos="2.32" arrivalSpeed="14.53" duration="29.00" routeLength="252.06" waitingTime="0.00" waitingCount="0" stopTime="0.00" timeLoss="11.64" rerouteNo="0" devices="tripinfo_flow_route_10_duration_20250327_2120.2" vType="car" speedFactor="0.87" vaporized=""/>
    <tripinfo id="flow_route_6_duration_20250327_2120.2" depart="30.00" departLane="1252820505#0_0" departPos="29.80" departSpeed="0.00" departDelay="0.00" arrival="57.00" arrivalLane="379698350#0_0" arrivalPos="94.00" arrivalSpeed="16.24" duration="27.00" routeLength="223.57" waitingTime="0.00" waitingCount="0" stopTime="0.00" timeLoss="13.51" rerouteNo="0" devices="tripinfo_flow_route_6_duration_20250327_2120.2" vType="car" speedFactor="1.03" vaporized=""/>
    <tripinfo id="flow_route_10_duration_20250327_2120.4" depart="36.00" departLane="1252820505#0_0" departPos="85.03" departSpeed="0.00" departDelay="1.72" arrival="59.00" arrivalLane="1235147073.116_0" arrivalPos="13.50" arrivalSpeed="16.36" duration="23.00" routeLength="196.22" waitingTime="0.00" waitingCount="0" stopTime="0.00" timeLoss="10.25" rerouteNo="0" devices="tripinfo_flow_route_10_duration_20250327_2120.4" vType="car" speedFactor="1.00" vaporized=""/>
    <tripinfo id="flow_route_11_duration_20250327_2120.1" depart="31.00" departLane="1252820505#0_0" departPos="40.53" departSpeed="0.00" departDelay="1.00" arrival="60.00" arrivalLane="137406408#0_2" arrivalPos="80.65" arrivalSpeed="13.66" duration="29.00" routeLength="201.70" waitingTime="0.00" waitingCount="0" stopTime="0.00" timeLoss="16.10" rerouteNo="0" devices="tripinfo_flow_route_11_duration_20250327_2120.1" vType="car" speedFactor="0.96" vaporized=""/>
    <tripinfo id="flow_route_8_duration_20250327_2120.4" depart="27.00" departLane="133000078#0_0" departPos="129.10" departSpeed="0.00" departDelay="0.34" arrival="66.00" arrivalLane="1235147073.116_0" arrivalPos="0.37" arrivalSpeed="15.49" duration="39.00" routeLength="231.45" waitingTime="3.00" waitingCount="1" stopTime="0.00" timeLoss="24.47" rerouteNo="0" devices="tripinfo_flow_route_8_duration_20250327_2120.4" vType="car" speedFactor="1.18" vaporized=""/>
    <tripinfo id="flow_route_10_duration_20250327_2120.5" depart="43.00" departLane="1252820505#0_0" departPos="78.52" departSpeed="0.00" departDelay="0.15" arrival="67.00" arrivalLane="1235147073.116_1" arrivalPos="0.22" arrivalSpeed="16.08" duration="24.00" routeLength="189.44" waitingTime="0.00" waitingCount="0" stopTime="0.00" timeLoss="11.99" rerouteNo="0" devices="tripinfo_flow_route_10_duration_20250327_2120.5" vType="car" speedFactor="1.00" vaporized=""/>
    <tripinfo id="flow_route_6_duration_20250327_2120.3" depart="45.00" departLane="1252820505#0_0" departPos="57.25" departSpeed="0.00" departDelay="0.00" arrival="68.00" arrivalLane="379698350#0_0" arrivalPos="96.99" arrivalSpeed="16.04" duration="23.00" routeLength="199.11" waitingTime="0.00" waitingCount="0" stopTime="0.00" timeLoss="10.37" rerouteNo="0" devices="tripinfo_flow_route_6_duration_20250327_2120.3" vType="car" speedFactor="0.97" vaporized=""/>
    <tripinfo id="flow_route_8_duration_20250327_2120.3" depart="20.00" departLane="133000078#0_0" departPos="37.30" departSpeed="0.00" departDelay="0.00" arrival="74.00" arrivalLane="1235147073.116_0" arrivalPos="4.81" arrivalSpeed="15.48" duration="54.00" routeLength="327.68" waitingTime="3.00" waitingCount="2" stopTime="0.00" timeLoss="32.95" rerouteNo="0" devices="tripinfo_flow_route_8_duration_20250327_2120.3" vType="car" speedFactor="1.13" vaporized=""/>
    <tripinfo id="flow_route_8_duration_20250327_2120.5" depart="34.00" departLane="133000078#0_0" departPos="29.15" departSpeed="0.00" departDelay="0.67" arrival="75.00" arrivalLane="1235147073.116_0" arrivalPos="4.31" arrivalSpeed="15.54" duration="41.00" routeLength="335.34" waitingTime="0.00" waitingCount="0" stopTime="0.00" timeLoss="19.81" rerouteNo="0" devices="tripinfo_flow_route_8_duration_20250327_2120.5" vType="car" speedFactor="1.04" vaporized=""/>
    <tripinfo id="flow_route_10_duration_20250327_2120.6" depart="52.00" departLane="1252820505#0_0" departPos="38.81" departSpeed="0.00" departDelay="0.57" arrival="78.00" arrivalLane="1235147073.116_0" arrivalPos="7.09" arrivalSpeed="15.49" duration="26.00" routeLength="236.01" waitingTime="0.00" waitingCount="0" stopTime="0.00" timeLoss="10.79" rerouteNo="0" devices="tripinfo_flow_route_10_duration_20250327_2120.6" vType="car" speedFactor="0.94" vaporized=""/>
    <tripinfo id="flow_route_5_duration_20250327_2120.1" depart="8.00" departLane="291974733#0_0" departPos="31.04" departSpeed="0.00" departDelay="0.50" arrival="88.00" arrivalLane="1342054204_0" arrivalPos="2.60" arrivalSpeed="9.89" duration="80.00" routeLength="109.81" waitingTime="55.00" waitingCount="1" stopTime="0.00" timeLoss="71.62" rerouteNo="0" devices="tripinfo_flow_route_5_duration_20250327_2120.1" vType="car" speedFactor="0.93" vaporized=""/>
    <tripinfo id="flow_route_8_duration_20250327_2120.7" depart="47.00" departLane="133000078#0_0" departPos="85.04" departSpeed="0.00" departDelay="0.34" arrival="88.00" arrivalLane="1235147073.116_0" arrivalPos="0.18" arrivalSpeed="15.30" duration="41.00" routeLength="275.32" waitingTime="0.00" waitingCount="0" stopTime="0.00" timeLoss="23.05" rerouteNo="0" devices="tripinfo_flow_route_8_duration_20250327_2120.7" vType="car" speedFactor="1.08" vaporized=""/>
    <tripinfo id="flow_route_8_duration_20250327_2120.6" depart="40.00" departLane="133000078#0_0" departPos="21.24" departSpeed="0.00" departDelay="0.00" arrival="90.00" arrivalLane="1235147073.116_0" arrivalPos="4.25" arrivalSpeed="14.61" duration="50.00" routeLength="343.18" waitingTime="0.00" waitingCount="0" stopTime="0.00" timeLoss="28.38" rerouteNo="0" devices="tripinfo_flow_route_8_duration_20250327_2120.6" vType="car" speedFactor="1.02" vaporized=""/>
    <tripinfo id="flow_route_5_duration_20250327_2120.0" depart="0.00" departLane="291974733#0_0" departPos="43.68" departSpeed="0.00" departDelay="0.00" arrival="91.00" arrivalLane="1342054204_0" arrivalPos="62.15" arrivalSpeed="13.65" duration="91.00" routeLength="156.72" waitingTime="62.00" waitingCount="1" stopTime="0.00" timeLoss="79.48" rerouteNo="0" devices="tripinfo_flow_route_5_duration_20250327_2120.0" vType="car" speedFactor="0.94" vaporized=""/>
    <tripinfo id="flow_route_8_duration_20250327_2120.8" depart="54.00" departLane="133000078#0_0" departPos="26.74" departSpeed="0.00" departDelay="0.67" arrival="93.00" arrivalLane="1235147073.116_0" arrivalPos="5.61" arrivalSpeed="16.53" duration="39.00" routeLength="339.05" waitingTime="0.00" waitingCount="0" stopTime="0.00" timeLoss="17.01" rerouteNo="0" devices="tripinfo_flow_route_8_duration_20250327_2120.8" vType="car" speedFactor="1.04" vaporized=""/>
    <tripinfo id="flow_route_23_duration_20250327_2120.3" depart="49.00" departLane="137415945#0_0" departPos="5.01" departSpeed="0.00" departDelay="29.00" arrival="94.00" arrivalLane="379698350#0_2" arrivalPos="17.74" arrivalSpeed="11.60" duration="45.00" routeLength="205.08" waitingTime="8.00" waitingCount="1" stopTime="0.00" timeLoss="32.29" rerouteNo="0" devices="tripinfo_flow_route_23_duration_20250327_2120.3" vType="car" speedFactor="1.18" vaporized=""/>
    <tripinfo id="flow_route_5_duration_20250327_2120.3" depart="23.00" departLane="291974733#0_0" departPos="57.64" departSpeed="0.00" departDelay="0.50" arrival="94.00" arrivalLane="1342054204_0" arrivalPos="59.20" arrivalSpeed="13.52" duration="71.00" routeLength="139.81" waitingTime="45.00" waitingCount="1" stopTime="0.00" timeLoss="62.37" rerouteNo="0" devices="tripinfo_flow_route_5_duration_20250327_2120.3" vType="car" speedFactor="1.17" vaporized=""/>
    <tripinfo id="flow_route_23_duration_20250327_2120.0" depart="0.00" departLane="137415945#0_0" departPos="0.59" departSpeed="0.00" departDelay="0.00" arrival="98.00" arrivalLane="379698350#0_2" arrivalPos="153.67" arrivalSpeed="13.94" duration="98.00" routeLength="345.44" waitingTime="53.00" waitingCount="1" stopTime="0.00" timeLoss="73.20" rerouteNo="0" devices="tripinfo_flow_route_23_duration_20250327_2120.0" vType="car" speedFactor="0.86" vaporized=""/>
    <tripinfo id="flow_route_5_duration_20250327_2120.5" depart="38.00" departLane="291974733#0_0" departPos="32.28" departSpeed="0.00" departDelay="0.50" arrival="99.00" arrivalLane="1342054204_0" arrivalPos="13.40" arrivalSpeed="11.63" duration="61.00" routeLength="119.36" waitingTime="34.00" waitingCount="1" stopTime="0.00" timeLoss="51.14" rerouteNo="0" devices="tripinfo_flow_route_5_duration_20250327_2120.5" vType="car" speedFactor="0.85" vaporized=""/>
    <tripinfo id="flow_route_4_duration_20250327_2120.0" depart="0.00" departLane="291974733#0_0" departPos="63.06" departSpeed="0.00" departDelay="0.00" arrival="100.00" arrivalLane="379698350#0_0" arrivalPos="183.76" arrivalSpeed="16.20" duration="100.00" routeLength="311.60" waitingTime="61.00" waitingCount="1" stopTime="0.00" timeLoss="80.76" rerouteNo="0" devices="tripinfo_flow_route_4_duration_20250327_2120.0" vType="car" speedFactor="1.06" vaporized=""/>
    <tripinfo id="flow_route_23_duration_20250327_2120.1" depart="19.00" departLane="137415945#0_0" departPos="0.85" departSpeed="0.00" departDelay="12.33" arrival="100.00" arrivalLane="379698350#0_2" arrivalPos="157.67" arrivalSpeed="16.35" duration="81.00" routeLength="349.17" waitingTime="36.00" waitingCount="1" stopTime="0.00" timeLoss="59.19" rerouteNo="0" devices="tripinfo_flow_route_23_duration_20250327_2120.1" vType="car" speedFactor="0.99" vaporized=""/>
    <tripinfo id="flow_route_23_duration_20250327_2120.2" depart="40.00" departLane="137415945#0_0" departPos="7.54" departSpeed="0.00" departDelay="26.67" arrival="100.00" arrivalLane="379698350#0_2" arrivalPos="122.97" arrivalSpeed="15.87" duration="60.00" routeLength="307.77" waitingTime="16.00" waitingCount="1" stopTime="0.00" timeLoss="39.93" rerouteNo="0" devices="tripinfo_flow_route_23_duration_20250327_2120.2" vType="car" speedFactor="0.97" vaporized=""/>
    <tripinfo id="flow_route_5_duration_20250327_2120.2" depart="15.00" departLane="291974733#0_0" departPos="15.78" departSpeed="0.00" departDelay="0.00" arrival="100.00" arrivalLane="1342054204_0" arrivalPos="83.74" arrivalSpeed="14.10" duration="85.00" routeLength="206.21" waitingTime="44.00" waitingCount="1" stopTime="0.00" timeLoss="69.39" rerouteNo="0" devices="tripinfo_flow_route_5_duration_20250327_2120.2" vType="car" speedFactor="0.89" vaporized=""/>
    <tripinfo id="flow_route_5_duration_20250327_2120.4" depart="30.00" departLane="291974733#0_0" departPos="38.52" departSpeed="0.00" departDelay="0.00" arrival="100.00" arrivalLane="1342054204_0" arrivalPos="62.00" arrivalSpeed="13.73" duration="70.00" routeLength="161.73" waitingTime="41.00" waitingCount="1" stopTime="0.00" timeLoss="57.70" rerouteNo="0" devices="tripinfo_flow_route_5_duration_20250327_2120.4" vType="car" speedFactor="0.90" vaporized=""/>
    <tripinfo id="flow_route_23_duration_20250327_2120.4" depart="68.00" departLane="137415945#0_0" departPos="5.13" departSpeed="0.00" departDelay="41.34" arrival="102.00" arrivalLane="379698350#0_2" arrivalPos="62.44" arrivalSpeed="12.41" duration="34.00" routeLength="249.65" waitingTime="0.00" waitingCount="0" stopTime="0.00" timeLoss="18.76" rerouteNo="0" devices="tripinfo_flow_route_23_duration_20250327_2120.4" vType="car" speedFactor="1.10" vaporized=""/>
    <tripinfo id="flow_route_5_duration_20250327_2120.6" depart="45.00" departLane="291974733#0_0" departPos="0.08" departSpeed="0.00" departDelay="0.00" arrival="105.00" arrivalLane="1342054204_0" arrivalPos="69.61" arrivalSpeed="14.35" duration="60.00" routeLength="207.78" waitingTime="23.00" waitingCount="1" stopTime="0.00" timeLoss="46.38" rerouteNo="0" devices="tripinfo_flow_route_5_duration_20250327_2120.6" vType="car" speedFactor="1.02" vaporized=""/>
    <tripinfo id="flow_route_5_duration_20250327_2120.7" depart="55.00" departLane="291974733#0_0" departPos="10.74" departSpeed="0.00" departDelay="2.50" arrival="105.00" arrivalLane="1342054204_0" arrivalPos="28.21" arrivalSpeed="12.54" duration="50.00" routeLength="155.72" waitingTime="17.00" waitingCount="1" stopTime="0.00" timeLoss="38.50" rerouteNo="0" devices="tripinfo_flow_route_5_duration_20250327_2120.7" vType="car" speedFactor="0.91" vaporized=""/>
    <tripinfo id="flow_route_23_duration_20250327_2120.5" depart="80.00" departLane="137415945#0_0" departPos="7.70" departSpeed="0.00" departDelay="46.67" arrival="118.00" arrivalLane="379698350#0_2" arrivalPos="146.89" arrivalSpeed="16.18" duration="38.00" routeLength="331.54" waitingTime="0.00" waitingCount="0" stopTime="0.00" timeLoss="17.07" rerouteNo="0" devices="tripinfo_flow_route_23_duration_20250327_2120.5" vType="car" speedFactor="1.09" vaporized=""/>
    <tripinfo id="flow_route_12_duration_20250327_2120.0" depart="0.00" departLane="133000078#0_0" departPos="66.48" departSpeed="0.00" departDelay="0.00" arrival="126.00" arrivalLane="1342054204_3" arrivalPos="21.59" arrivalSpeed="12.62" duration="126.00" routeLength="252.91" waitingTime="87.00" waitingCount="1" stopTime="0.00" timeLoss="108.82" rerouteNo="0" devices="tripinfo_flow_route_12_duration_20250327_2120.0" vType="car" speedFactor="0.89" vaporized=""/>
    <tripinfo id="flow_route_7_duration_20250327_2120.0" depart="0.00" departLane="133000078#0_0" departPos="116.92" departSpeed="0.00" departDelay="0.00" arrival="129.00" arrivalLane="137406408#0_1" arrivalPos="45.36" arrivalSpeed="15.52" duration="129.00" routeLength="233.24" waitingTime="91.00" waitingCount="1" stopTime="0.00" timeLoss="114.20" rerouteNo="0" devices="tripinfo_flow_route_7_duration_20250327_2120.0" vType="car" speedFactor="1.08" vaporized=""/>
    <tripinfo id="flow_route_12_duration_20250327_2120.1" depart="20.00" departLane="133000078#0_0" departPos="9.67" departSpeed="0.00" departDelay="0.00" arrival="129.00" arrivalLane="1342054204_3" arrivalPos="29.57" arrivalSpeed="14.46" duration="109.00" routeLength="317.70" waitingTime="66.00" waitingCount="1" stopTime="0.00" timeLoss="87.76" rerouteNo="0" devices="tripinfo_flow_route_12_duration_20250327_2120.1" vType="car" speedFactor="0.93" vaporized=""/>
    <tripinfo id="flow_route_12_duration_20250327_2120.2" depart="41.00" departLane="133000078#0_0" departPos="169.54" departSpeed="0.00" departDelay="1.00" arrival="131.00" arrivalLane="1342054204_3" arrivalPos="33.10" arrivalSpeed="14.14" duration="90.00" routeLength="161.36" waitingTime="62.00" waitingCount="1" stopTime="0.00" timeLoss="80.10" rerouteNo="0" devices="tripinfo_flow_route_12_duration_20250327_2120.2" vType="car" speedFactor="1.10" vaporized=""/>
    <tripinfo id="flow_route_22_duration_20250327_2120.2" depart="22.00" departLane="137415945#0_0" departPos="3.69" departSpeed="0.00" departDelay="13.43" arrival="160.00" arrivalLane="1342054204_0" arrivalPos="10.94" arrivalSpeed="11.12" duration="138.00" routeLength="200.57" waitingTime="104.00" waitingCount="1" stopTime="0.00" timeLoss="124.76" rerouteNo="0" devices="tripinfo_flow_route_22_duration_20250327_2120.2" vType="car" speedFactor="0.94" vaporized=""/>
    <tripinfo id="flow_route_24_duration_20250327_2120.2" depart="27.00" departLane="137415945#0_0" departPos="1.33" departSpeed="0.00" departDelay="18.43" arrival="162.00" arrivalLane="137406408#0_0" arrivalPos="37.97" arrivalSpeed="12.09" duration="135.00" routeLength="205.63" waitingTime="99.00" waitingCount="1" stopTime="0.00" timeLoss="121.27" rerouteNo="0" devices="tripinfo_flow_route_24_duration_20250327_2120.2" vType="car" speedFactor="0.94" vaporized=""/>
    <tripinfo id="flow_route_24_duration_20250327_2120.3" depart="34.00" departLane="137415945#0_0" departPos="1.58" departSpeed="0.00" departDelay="21.15" arrival="162.00" arrivalLane="137406408#0_0" arrivalPos="8.22" arrivalSpeed="10.12" duration="128.00" routeLength="175.63" waitingTime="94.00" waitingCount="1" stopTime="0.00" timeLoss="116.69" rerouteNo="0" devices="tripinfo_flow_route_24_duration_20250327_2120.3" vType="car" speedFactor="1.02" vaporized=""/>
    <tripinfo id="flow_route_22_duration_20250327_2120.4" depart="42.00" departLane="137415945#0_0" departPos="12.03" departSpeed="0.00" departDelay="24.86" arrival="162.00" arrivalLane="1342054204_1" arrivalPos="2.43" arrivalSpeed="10.57" duration="120.00" routeLength="183.73" waitingTime="86.00" waitingCount="1" stopTime="0.00" timeLoss="107.81" rerouteNo="0" devices="tripinfo_flow_route_22_duration_20250327_2120.4" vType="car" speedFactor="0.92" vaporized=""/>
    <tripinfo id="flow_route_22_duration_20250327_2120.3" depart="28.00" departLane="137415945#0_0" departPos="11.77" departSpeed="0.00" departDelay="15.15" arrival="165.00" arrivalLane="1342054204_0" arrivalPos="70.80" arrivalSpeed="14.63" duration="137.00" routeLength="252.36" waitingTime="100.00" waitingCount="1" stopTime="0.00" timeLoss="121.51" rerouteNo="0" devices="tripinfo_flow_route_22_duration_20250327_2120.3" vType="car" speedFactor="1.16" vaporized=""/>
    <tripinfo id="flow_route_24_duration_20250327_2120.4" depart="44.00" departLane="137415945#0_0" departPos="2.13" departSpeed="0.00" departDelay="26.86" arrival="165.00" arrivalLane="137406408#0_0" arrivalPos="25.74" arrivalSpeed="12.04" duration="121.00" routeLength="192.60" waitingTime="87.00" waitingCount="1" stopTime="0.00" timeLoss="108.16" rerouteNo="0" devices="tripinfo_flow_route_24_duration_20250327_2120.4" vType="car" speedFactor="0.95" vaporized=""/>
    <tripinfo id="flow_route_24_duration_20250327_2120.5" depart="52.00" departLane="137415945#0_0" departPos="2.64" departSpeed="0.00" departDelay="30.58" arrival="167.00" arrivalLane="137406408#0_0" arrivalPos="32.48" arrivalSpeed="12.35" duration="115.00" routeLength="198.83" waitingTime="79.00" waitingCount="1" stopTime="0.00" timeLoss="102.79" rerouteNo="0" devices="tripinfo_flow_route_24_duration_20250327_2120.5" vType="car" speedFactor="1.01" vaporized=""/>
    <tripinfo id="flow_route_22_duration_20250327_2120.5" depart="51.00" departLane="137415945#0_0" departPos="11.92" departSpeed="0.00" departDelay="29.58" arrival="169.00" arrivalLane="1342054204_1" arrivalPos="62.97" arrivalSpeed="14.33" duration="118.00" routeLength="244.38" waitingTime="79.00" waitingCount="1" stopTime="0.00" timeLoss="102.86" rerouteNo="0" devices="tripinfo_flow_route_22_duration_20250327_2120.5" vType="car" speedFactor="1.15" vaporized=""/>
    <tripinfo id="flow_route_22_duration_20250327_2120.6" depart="57.00" departLane="137415945#0_0" departPos="2.49" departSpeed="0.00" departDelay="31.29" arrival="170.00" arrivalLane="1342054204_1" arrivalPos="51.03" arrivalSpeed="13.96" duration="113.00" routeLength="241.87" waitingTime="74.00" waitingCount="1" stopTime="0.00" timeLoss="97.81" rerouteNo="0" devices="tripinfo_flow_route_22_duration_20250327_2120.6" vType="car" speedFactor="1.02" vaporized=""/>
    <tripinfo id="flow_route_24_duration_20250327_2120.6" depart="62.00" departLane="137415945#0_0" departPos="2.43" departSpeed="0.00" departDelay="36.29" arrival="170.00" arrivalLane="137406408#0_0" arrivalPos="38.51" arrivalSpeed="13.16" duration="108.00" routeLength="205.08" waitingTime="71.00" waitingCount="1" stopTime="0.00" timeLoss="95.02" rerouteNo="0" devices="tripinfo_flow_route_24_duration_20250327_2120.6" vType="car" speedFactor="0.97" vaporized=""/>
    <tripinfo id="flow_route_22_duration_20250327_2120.7" depart="71.00" departLane="137415945#0_0" departPos="9.54" departSpeed="0.00" departDelay="41.01" arrival="171.00" arrivalLane="1342054204_1" arrivalPos="50.04" arrivalSpeed="14.41" duration="100.00" routeLength="233.83" waitingTime="62.00" waitingCount="1" stopTime="0.00" timeLoss="85.83" rerouteNo="0" devices="tripinfo_flow_route_22_duration_20250327_2120.7" vType="car" speedFactor="1.09" vaporized=""/>
    <tripinfo id="flow_route_22_duration_20250327_2120.8" depart="83.00" departLane="137415945#0_0" departPos="1.40" departSpeed="0.00" departDelay="48.72" arrival="172.00" arrivalLane="1342054204_1" arrivalPos="32.42" arrivalSpeed="14.08" duration="89.00" routeLength="224.35" waitingTime="51.00" waitingCount="1" stopTime="0.00" timeLoss="73.43" rerouteNo="0" devices="tripinfo_flow_route_22_duration_20250327_2120.8" vType="car" speedFactor="0.90" vaporized=""/>
    <tripinfo id="flow_route_24_duration_20250327_2120.8" depart="90.00" departLane="137415945#0_0" departPos="2.83" departSpeed="0.00" departDelay="55.72" arrival="174.00" arrivalLane="137406408#0_0" arrivalPos="44.31" arrivalSpeed="14.30" duration="84.00" routeLength="210.48" waitingTime="47.00" waitingCount="1" stopTime="0.00" timeLoss="68.84" rerouteNo="0" devices="tripinfo_flow_route_24_duration_20250327_2120.8" vType="car" speedFactor="0.88" vaporized=""/>
    <tripinfo id="flow_route_24_duration_20250327_2120.7" depart="73.00" departLane="137415945#0_0" departPos="1.52" departSpeed="0.00" departDelay="43.01" arrival="175.00" arrivalLane="137406408#0_0" arrivalPos="89.67" arrivalSpeed="15.84" duration="102.00" routeLength="257.15" waitingTime="63.00" waitingCount="1" stopTime="0.00" timeLoss="86.28" rerouteNo="0" devices="tripinfo_flow_route_24_duration_20250327_2120.7" vType="car" speedFactor="1.04" vaporized=""/>
    <tripinfo id="flow_route_22_duration_20250327_2120.9" depart="90.00" departLane="137415945#0_0" departPos="11.66" departSpeed="0.00" departDelay="51.44" arrival="176.00" arrivalLane="1342054204_1" arrivalPos="57.86" arrivalSpeed="14.03" duration="86.00" routeLength="239.53" waitingTime="47.00" waitingCount="1" stopTime="0.00" timeLoss="68.36" rerouteNo="0" devices="tripinfo_flow_route_22_duration_20250327_2120.9" vType="car" speedFactor="0.85" vaporized=""/>
    <tripinfo id="flow_route_24_duration_20250327_2120.9" depart="97.00" departLane="137415945#0_0" departPos="10.54" departSpeed="0.00" departDelay="58.44" arrival="176.00" arrivalLane="137406408#0_0" arrivalPos="39.77" arrivalSpeed="14.85" duration="79.00" routeLength="198.22" waitingTime="45.00" waitingCount="1" stopTime="0.00" timeLoss="66.20" rerouteNo="0" devices="tripinfo_flow_route_24_duration_20250327_2120.9" vType="car" speedFactor="1.17" vaporized=""/>
    <tripinfo id="flow_route_22_duration_20250327_2120.11" depart="114.00" departLane="137415945#0_0" departPos="6.10" departSpeed="0.00" departDelay="66.87" arrival="176.00" arrivalLane="1342054204_1" arrivalPos="9.97" arrivalSpeed="14.35" duration="62.00" routeLength="197.21" waitingTime="28.00" waitingCount="1" stopTime="0.00" timeLoss="49.53" rerouteNo="0" devices="tripinfo_flow_route_22_duration_20250327_2120.11" vType="car" speedFactor="1.02" vaporized=""/>