<?xml version="1.0" encoding="UTF-8"?>

<!-- generated on 2025-05-06 21:08:14 by Eclipse SUMO sumo Version 1.20.0
<configuration xmlns:xsi="http://www.w3.org/2001/XMLSchema-instance" xsi:noNamespaceSchemaLocation="http://sumo.dlr.de/xsd/sumoConfiguration.xsd">

    <input>
        <net-file value="osm.net.xml"/>
        <route-files value="xml/route_static_cluster10852700972_12154751993_3.rou.xml"/>
    </input>

    <output>
        <tripinfo-output value="xml/tripinfo_static_cluster10852700972_12154751993_3.xml"/>
    </output>

    <traci_server>
        <remote-port value="48693"/>
    </traci_server>

</configuration>
-->

<tripinfos xmlns:xsi="http://www.w3.org/2001/XMLSchema-instance" xsi:noNamespaceSchemaLocation="http://sumo.dlr.de/xsd/tripinfo_file.xsd">
    <tripinfo id="flow_route_60_duration_20250327_2030.1" depart="7.00" departLane="186407684#0_0" departPos="59.31" departSpeed="0.00" departDelay="0.33" arrival="18.00" arrivalLane="791826085_0" arrivalPos="1.97" arrivalSpeed="8.92" duration="11.00" routeLength="51.59" waitingTime="0.00" waitingCount="0" stopTime="0.00" timeLoss="7.14" rerouteNo="0" devices="tripinfo_flow_route_60_duration_20250327_2030.1" vType="car" speedFactor="0.83" vaporized=""/>
    <tripinfo id="flow_route_61_duration_20250327_2030.0" depart="0.00" departLane="186407684#0_0" departPos="65.67" departSpeed="0.00" departDelay="0.00" arrival="24.00" arrivalLane="1341093416#0_1" arrivalPos="161.76" arrivalSpeed="16.51" duration="24.00" routeLength="210.27" waitingTime="0.00" waitingCount="0" stopTime="0.00" timeLoss="9.92" rerouteNo="0" devices="tripinfo_flow_route_61_duration_20250327_2030.0" vType="car" speedFactor="1.03" vaporized=""/>
    <tripinfo id="flow_route_60_duration_20250327_2030.0" depart="0.00" departLane="186407684#0_0" departPos="48.06" departSpeed="0.00" departDelay="0.00" arrival="25.00" arrivalLane="791826085_0" arrivalPos="160.28" arrivalSpeed="16.59" duration="25.00" routeLength="221.15" waitingTime="0.00" waitingCount="0" stopTime="0.00" timeLoss="11.11" rerouteNo="0" devices="tripinfo_flow_route_60_duration_20250327_2030.0" vType="car" speedFactor="1.08" vaporized=""/>
    <tripinfo id="flow_route_56_duration_20250327_2030.0" depart="0.00" departLane="1341093415#0_0" departPos="44.11" departSpeed="0.00" departDelay="0.00" arrival="39.00" arrivalLane="409155823_0" arrivalPos="4.00" arrivalSpeed="6.74" duration="39.00" routeLength="164.73" waitingTime="11.00" waitingCount="1" stopTime="0.00" timeLoss="28.19" rerouteNo="0" devices="tripinfo_flow_route_56_duration_20250327_2030.0" vType="car" speedFactor="1.01" vaporized=""/>
    <tripinfo id="flow_route_54_duration_20250327_2030.1" depart="15.00" departLane="1341093415#0_0" departPos="156.06" departSpeed="0.00" departDelay="0.00" arrival="41.00" arrivalLane="1341093416#0_1" arrivalPos="16.52" arrivalSpeed="7.91" duration="26.00" routeLength="67.28" waitingTime="7.00" waitingCount="1" stopTime="0.00" timeLoss="21.87" rerouteNo="0" devices="tripinfo_flow_route_54_duration_20250327_2030.1" vType="car" speedFactor="0.94" vaporized=""/>
    <tripinfo id="flow_route_60_duration_20250327_2030.2" depart="14.00" departLane="186407684#0_0" departPos="23.31" departSpeed="0.00" departDelay="0.67" arrival="42.00" arrivalLane="791826085_0" arrivalPos="184.68" arrivalSpeed="14.75" duration="28.00" routeLength="270.30" waitingTime="0.00" waitingCount="0" stopTime="0.00" timeLoss="8.76" rerouteNo="0" devices="tripinfo_flow_route_60_duration_20250327_2030.2" vType="car" speedFactor="0.89" vaporized=""/>
    <tripinfo id="flow_route_56_duration_20250327_2030.1" depart="31.00" departLane="1341093415#0_0" departPos="136.26" departSpeed="0.00" departDelay="1.00" arrival="48.00" arrivalLane="409155823_0" arrivalPos="20.84" arrivalSpeed="10.74" duration="17.00" routeLength="89.41" waitingTime="0.00" waitingCount="0" stopTime="0.00" timeLoss="10.08" rerouteNo="0" devices="tripinfo_flow_route_56_duration_20250327_2030.1" vType="car" speedFactor="0.99" vaporized=""/>
    <tripinfo id="flow_route_55_duration_20250327_2030.1" depart="9.00" departLane="1341093415#0_0" departPos="80.58" departSpeed="0.00" departDelay="0.43" arrival="53.00" arrivalLane="791826085_0" arrivalPos="152.03" arrivalSpeed="15.22" duration="44.00" routeLength="261.16" waitingTime="6.00" waitingCount="1" stopTime="0.00" timeLoss="26.75" rerouteNo="0" devices="tripinfo_flow_route_55_duration_20250327_2030.1" vType="car" speedFactor="1.05" vaporized=""/>
    <tripinfo id="flow_route_55_duration_20250327_2030.2" depart="19.00" departLane="1341093415#0_0" departPos="8.23" departSpeed="0.00" departDelay="1.86" arrival="54.00" arrivalLane="791826085_0" arrivalPos="105.00" arrivalSpeed="13.64" duration="35.00" routeLength="286.48" waitingTime="0.00" waitingCount="0" stopTime="0.00" timeLoss="15.42" rerouteNo="0" devices="tripinfo_flow_route_55_duration_20250327_2030.2" vType="car" speedFactor="0.86" vaporized=""/>
    <tripinfo id="flow_route_55_duration_20250327_2030.4" depart="35.00" departLane="1341093415#0_0" departPos="59.05" departSpeed="0.00" departDelay="0.72" arrival="55.00" arrivalLane="791826085_0" arrivalPos="9.73" arrivalSpeed="7.86" duration="20.00" routeLength="140.38" waitingTime="0.00" waitingCount="0" stopTime="0.00" timeLoss="10.85" rerouteNo="0" devices="tripinfo_flow_route_55_duration_20250327_2030.4" vType="car" speedFactor="0.88" vaporized=""/>
    <tripinfo id="flow_route_55_duration_20250327_2030.0" depart="0.00" departLane="1341093415#0_0" departPos="132.48" departSpeed="0.00" departDelay="0.00" arrival="56.00" arrivalLane="791826085_0" arrivalPos="232.37" arrivalSpeed="15.62" duration="56.00" routeLength="289.60" waitingTime="18.00" waitingCount="1" stopTime="0.00" timeLoss="36.75" rerouteNo="0" devices="tripinfo_flow_route_55_duration_20250327_2030.0" vType="car" speedFactor="0.94" vaporized=""/>
    <tripinfo id="flow_route_54_duration_20250327_2030.0" depart="0.00" departLane="1341093415#0_0" departPos="7.77" departSpeed="0.00" departDelay="0.00" arrival="58.00" arrivalLane="1341093416#0_1" arrivalPos="244.31" arrivalSpeed="16.36" duration="58.00" routeLength="443.35" waitingTime="4.00" waitingCount="1" stopTime="0.00" timeLoss="30.70" rerouteNo="0" devices="tripinfo_flow_route_54_duration_20250327_2030.0" vType="car" speedFactor="1.06" vaporized=""/>
    <tripinfo id="flow_route_55_duration_20250327_2030.3" depart="27.00" departLane="1341093415#0_0" departPos="158.21" departSpeed="0.00" departDelay="1.29" arrival="59.00" arrivalLane="791826085_0" arrivalPos="206.60" arrivalSpeed="16.10" duration="32.00" routeLength="238.10" waitingTime="2.00" waitingCount="1" stopTime="0.00" timeLoss="15.83" rerouteNo="0" devices="tripinfo_flow_route_55_duration_20250327_2030.3" vType="car" speedFactor="1.03" vaporized=""/>
    <tripinfo id="flow_route_54_duration_20250327_2030.2" depart="30.00" departLane="1341093415#0_0" departPos="5.78" departSpeed="0.00" departDelay="0.00" arrival="63.00" arrivalLane="1341093416#0_1" arrivalPos="149.25" arrivalSpeed="16.23" duration="33.00" routeLength="350.29" waitingTime="0.00" waitingCount="0" stopTime="0.00" timeLoss="11.89" rerouteNo="0" devices="tripinfo_flow_route_54_duration_20250327_2030.2" vType="car" speedFactor="1.12" vaporized=""/>
    <tripinfo id="flow_route_55_duration_20250327_2030.5" depart="43.00" departLane="1341093415#0_0" departPos="171.92" departSpeed="0.00" departDelay="0.15" arrival="64.00" arrivalLane="791826085_0" arrivalPos="134.15" arrivalSpeed="15.17" duration="21.00" routeLength="151.94" waitingTime="0.00" waitingCount="0" stopTime="0.00" timeLoss="9.65" rerouteNo="0" devices="tripinfo_flow_route_55_duration_20250327_2030.5" vType="car" speedFactor="0.94" vaporized=""/>
    <tripinfo id="flow_route_55_duration_20250327_2030.6" depart="52.00" departLane="1341093415#0_0" departPos="144.68" departSpeed="0.00" departDelay="0.57" arrival="70.00" arrivalLane="791826085_0" arrivalPos="78.72" arrivalSpeed="13.54" duration="18.00" routeLength="123.76" waitingTime="0.00" waitingCount="0" stopTime="0.00" timeLoss="9.40" rerouteNo="0" devices="tripinfo_flow_route_55_duration_20250327_2030.6" vType="car" speedFactor="1.01" vaporized=""/>
    <tripinfo id="flow_route_60_duration_20250327_2030.5" depart="35.00" departLane="186407684#0_0" departPos="60.38" departSpeed="0.00" departDelay="1.67" arrival="81.00" arrivalLane="791826085_0" arrivalPos="51.89" arrivalSpeed="10.76" duration="46.00" routeLength="100.44" waitingTime="24.00" waitingCount="1" stopTime="0.00" timeLoss="39.32" rerouteNo="0" devices="tripinfo_flow_route_60_duration_20250327_2030.5" vType="car" speedFactor="0.93" vaporized=""/>
    <tripinfo id="flow_route_60_duration_20250327_2030.7" depart="47.00" departLane="186407684#0_0" departPos="50.38" departSpeed="0.00" departDelay="0.34" arrival="81.00" arrivalLane="791826085_1" arrivalPos="54.77" arrivalSpeed="10.93" duration="34.00" routeLength="113.33" waitingTime="8.00" waitingCount="1" stopTime="0.00" timeLoss="26.94" rerouteNo="0" devices="tripinfo_flow_route_60_duration_20250327_2030.7" vType="car" speedFactor="1.02" vaporized=""/>
    <tripinfo id="flow_route_60_duration_20250327_2030.8" depart="54.00" departLane="186407684#0_0" departPos="58.88" departSpeed="0.00" departDelay="0.67" arrival="81.00" arrivalLane="791826085_1" arrivalPos="29.03" arrivalSpeed="10.32" duration="27.00" routeLength="79.08" waitingTime="6.00" waitingCount="1" stopTime="0.00" timeLoss="21.51" rerouteNo="0" devices="tripinfo_flow_route_60_duration_20250327_2030.8" vType="car" speedFactor="0.97" vaporized=""/>
    <tripinfo id="flow_route_60_duration_20250327_2030.6" depart="40.00" departLane="186407684#0_0" departPos="11.05" departSpeed="0.00" departDelay="0.00" arrival="82.00" arrivalLane="791826085_0" arrivalPos="42.19" arrivalSpeed="10.22" duration="42.00" routeLength="140.07" waitingTime="12.00" waitingCount="1" stopTime="0.00" timeLoss="33.00" rerouteNo="0" devices="tripinfo_flow_route_60_duration_20250327_2030.6" vType="car" speedFactor="0.94" vaporized=""/>
    <tripinfo id="flow_route_60_duration_20250327_2030.3" depart="20.00" departLane="186407684#0_0" departPos="27.06" departSpeed="0.00" departDelay="0.00" arrival="88.00" arrivalLane="791826085_0" arrivalPos="167.29" arrivalSpeed="16.25" duration="68.00" routeLength="249.16" waitingTime="31.00" waitingCount="1" stopTime="0.00" timeLoss="52.24" rerouteNo="0" devices="tripinfo_flow_route_60_duration_20250327_2030.3" vType="car" speedFactor="1.09" vaporized=""/>
    <tripinfo id="flow_route_60_duration_20250327_2030.4" depart="27.00" departLane="186407684#0_0" departPos="34.95" departSpeed="0.00" departDelay="0.34" arrival="93.00" arrivalLane="791826085_0" arrivalPos="268.83" arrivalSpeed="16.52" duration="66.00" routeLength="342.81" waitingTime="26.00" waitingCount="1" stopTime="0.00" timeLoss="45.03" rerouteNo="0" devices="tripinfo_flow_route_60_duration_20250327_2030.4" vType="car" speedFactor="1.05" vaporized=""/>
    <tripinfo id="flow_route_54_duration_20250327_2030.3" depart="45.00" departLane="1341093415#0_0" departPos="39.77" departSpeed="0.00" departDelay="0.00" arrival="113.00" arrivalLane="1341093416#0_0" arrivalPos="72.41" arrivalSpeed="12.54" duration="68.00" routeLength="239.46" waitingTime="30.00" waitingCount="1" stopTime="0.00" timeLoss="53.31" rerouteNo="0" devices="tripinfo_flow_route_54_duration_20250327_2030.3" vType="car" speedFactor="1.16" vaporized=""/>
</tripinfos>
