<?xml version="1.0" encoding="UTF-8"?>

<!-- generated on 2025-05-06 21:09:03 by Eclipse SUMO sumo Version 1.20.0
<configuration xmlns:xsi="http://www.w3.org/2001/XMLSchema-instance" xsi:noNamespaceSchemaLocation="http://sumo.dlr.de/xsd/sumoConfiguration.xsd">

    <input>
        <net-file value="osm.net.xml"/>
        <route-files value="xml/route_rl_cluster_4110471701_632031939_8.rou.xml"/>
    </input>

    <output>
        <tripinfo-output value="xml/tripinfo_rl_cluster_4110471701_632031939_8.xml"/>
    </output>

    <traci_server>
        <remote-port value="40325"/>
    </traci_server>

</configuration>
-->

<tripinfos xmlns:xsi="http://www.w3.org/2001/XMLSchema-instance" xsi:noNamespaceSchemaLocation="http://sumo.dlr.de/xsd/tripinfo_file.xsd">
    <tripinfo id="flow_route_83_duration_20250327_2050.0" depart="0.00" departLane="423956929_0" departPos="101.16" departSpeed="0.00" departDelay="0.00" arrival="17.00" arrivalLane="186407685_0" arrivalPos="8.05" arrivalSpeed="6.86" duration="17.00" routeLength="101.45" waitingTime="0.00" waitingCount="0" stopTime="0.00" timeLoss="10.18" rerouteNo="0" devices="tripinfo_flow_route_83_duration_20250327_2050.0" vType="car" speedFactor="1.01" vaporized=""/>
    <tripinfo id="flow_route_62_duration_20250327_2050.1" depart="7.00" departLane="409155823_0" departPos="77.08" departSpeed="0.00" departDelay="0.33" arrival="17.00" arrivalLane="1091883842_0" arrivalPos="11.19" arrivalSpeed="7.48" duration="10.00" routeLength="39.52" waitingTime="0.00" waitingCount="0" stopTime="0.00" timeLoss="7.39" rerouteNo="0" devices="tripinfo_flow_route_62_duration_20250327_2050.1" vType="car" speedFactor="0.94" vaporized=""/>
    <tripinfo id="flow_route_62_duration_20250327_2050.0" depart="0.00" departLane="409155823_0" departPos="65.43" departSpeed="0.00" departDelay="0.00" arrival="23.00" arrivalLane="1091883842_0" arrivalPos="165.47" arrivalSpeed="16.20" duration="23.00" routeLength="205.45" waitingTime="0.00" waitingCount="0" stopTime="0.00" timeLoss="10.47" rerouteNo="0" devices="tripinfo_flow_route_62_duration_20250327_2050.0" vType="car" speedFactor="1.06" vaporized=""/>
    <tripinfo id="flow_route_82_duration_20250327_2050.0" depart="0.00" departLane="423956929_0" departPos="45.92" departSpeed="0.00" departDelay="0.00" arrival="24.00" arrivalLane="186407684#0_0" arrivalPos="62.79" arrivalSpeed="15.18" duration="24.00" routeLength="219.95" waitingTime="0.00" waitingCount="0" stopTime="0.00" timeLoss="8.99" rerouteNo="0" devices="tripinfo_flow_route_82_duration_20250327_2050.0" vType="car" speedFactor="0.94" vaporized=""/>
    <tripinfo id="flow_route_62_duration_20250327_2050.2" depart="14.00" departLane="409155823_0" departPos="34.91" departSpeed="0.00" departDelay="0.67" arrival="41.00" arrivalLane="1091883842_1" arrivalPos="164.84" arrivalSpeed="16.59" duration="27.00" routeLength="235.34" waitingTime="0.00" waitingCount="0" stopTime="0.00" timeLoss="11.93" rerouteNo="0" devices="tripinfo_flow_route_62_duration_20250327_2050.2" vType="car" speedFactor="1.12" vaporized=""/>
    <tripinfo id="flow_route_62_duration_20250327_2050.3" depart="20.00" departLane="409155823_0" departPos="60.31" departSpeed="0.00" departDelay="0.00" arrival="45.00" arrivalLane="1091883842_0" arrivalPos="177.65" arrivalSpeed="15.57" duration="25.00" routeLength="222.75" waitingTime="0.00" waitingCount="0" stopTime="0.00" timeLoss="10.27" rerouteNo="0" devices="tripinfo_flow_route_62_duration_20250327_2050.3" vType="car" speedFactor="0.94" vaporized=""/>
    <tripinfo id="flow_route_88_duration_20250327_2050.0" depart="0.00" departLane="430416184_0" departPos="194.63" departSpeed="0.00" departDelay="0.00" arrival="47.00" arrivalLane="186407684#0_1" arrivalPos="3.84" arrivalSpeed="7.40" duration="47.00" routeLength="126.85" waitingTime="20.00" waitingCount="1" stopTime="0.00" timeLoss="37.90" rerouteNo="0" devices="tripinfo_flow_route_88_duration_20250327_2050.0" vType="car" speedFactor="0.83" vaporized=""/>
    <tripinfo id="flow_route_86_duration_20250327_2050.0" depart="0.00" departLane="430416184_0" departPos="215.48" departSpeed="0.00" departDelay="0.00" arrival="54.00" arrivalLane="186407685_1" arrivalPos="87.02" arrivalSpeed="13.85" duration="54.00" routeLength="195.42" waitingTime="20.00" waitingCount="1" stopTime="0.00" timeLoss="41.71" rerouteNo="0" devices="tripinfo_flow_route_86_duration_20250327_2050.0" vType="car" speedFactor="1.08" vaporized=""/>
    <tripinfo id="flow_route_88_duration_20250327_2050.5" depart="22.00" departLane="430416184_0" departPos="278.94" departSpeed="0.00" departDelay="0.58" arrival="55.00" arrivalLane="186407684#0_1" arrivalPos="11.05" arrivalSpeed="8.18" duration="33.00" routeLength="49.74" waitingTime="19.00" waitingCount="2" stopTime="0.00" timeLoss="28.95" rerouteNo="0" devices="tripinfo_flow_route_88_duration_20250327_2050.5" vType="car" speedFactor="1.02" vaporized=""/>
    <tripinfo id="flow_route_88_duration_20250327_2050.3" depart="13.00" departLane="430416184_0" departPos="238.38" departSpeed="0.00" departDelay="0.15" arrival="57.00" arrivalLane="186407684#0_1" arrivalPos="82.76" arrivalSpeed="14.04" duration="44.00" routeLength="162.01" waitingTime="14.00" waitingCount="1" stopTime="0.00" timeLoss="32.76" rerouteNo="0" devices="tripinfo_flow_route_88_duration_20250327_2050.3" vType="car" speedFactor="1.05" vaporized=""/>
    <tripinfo id="flow_route_87_duration_20250327_2050.2" depart="11.00" departLane="430416184_0" departPos="183.20" departSpeed="0.00" departDelay="0.09" arrival="59.00" arrivalLane="1091883842_0" arrivalPos="57.02" arrivalSpeed="10.80" duration="48.00" routeLength="174.28" waitingTime="13.00" waitingCount="1" stopTime="0.00" timeLoss="36.46" rerouteNo="0" devices="tripinfo_flow_route_87_duration_20250327_2050.2" vType="car" speedFactor="1.03" vaporized=""/>
    <tripinfo id="flow_route_88_duration_20250327_2050.2" depart="9.00" departLane="430416184_0" departPos="148.34" departSpeed="0.00" departDelay="0.43" arrival="60.00" arrivalLane="186407684#0_1" arrivalPos="4.07" arrivalSpeed="8.91" duration="51.00" routeLength="173.36" waitingTime="12.00" waitingCount="1" stopTime="0.00" timeLoss="39.84" rerouteNo="0" devices="tripinfo_flow_route_88_duration_20250327_2050.2" vType="car" speedFactor="1.09" vaporized=""/>
    <tripinfo id="flow_route_88_duration_20250327_2050.1" depart="5.00" departLane="430416184_0" departPos="130.75" departSpeed="0.00" departDelay="0.72" arrival="62.00" arrivalLane="186407684#0_1" arrivalPos="41.08" arrivalSpeed="11.46" duration="57.00" routeLength="227.97" waitingTime="12.00" waitingCount="1" stopTime="0.00" timeLoss="42.28" rerouteNo="0" devices="tripinfo_flow_route_88_duration_20250327_2050.1" vType="car" speedFactor="1.05" vaporized=""/>
    <tripinfo id="flow_route_86_duration_20250327_2050.1" depart="8.00" departLane="430416184_0" departPos="197.69" departSpeed="0.00" departDelay="0.50" arrival="62.00" arrivalLane="186407685_1" arrivalPos="57.01" arrivalSpeed="12.96" duration="54.00" routeLength="183.20" waitingTime="14.00" waitingCount="1" stopTime="0.00" timeLoss="42.71" rerouteNo="0" devices="tripinfo_flow_route_86_duration_20250327_2050.1" vType="car" speedFactor="0.86" vaporized=""/>
    <tripinfo id="flow_route_87_duration_20250327_2050.1" depart="6.00" departLane="430416184_0" departPos="76.50" departSpeed="0.00" departDelay="0.55" arrival="66.00" arrivalLane="1091883842_0" arrivalPos="105.16" arrivalSpeed="14.27" duration="60.00" routeLength="329.12" waitingTime="11.00" waitingCount="1" stopTime="0.00" timeLoss="37.85" rerouteNo="0" devices="tripinfo_flow_route_87_duration_20250327_2050.1" vType="car" speedFactor="0.89" vaporized=""/>
    <tripinfo id="flow_route_87_duration_20250327_2050.3" depart="17.00" departLane="430416184_0" departPos="87.27" departSpeed="0.00" departDelay="0.64" arrival="66.00" arrivalLane="1091883842_0" arrivalPos="6.02" arrivalSpeed="7.58" duration="49.00" routeLength="219.20" waitingTime="0.00" waitingCount="0" stopTime="0.00" timeLoss="35.13" rerouteNo="0" devices="tripinfo_flow_route_87_duration_20250327_2050.3" vType="car" speedFactor="0.93" vaporized=""/>
    <tripinfo id="flow_route_87_duration_20250327_2050.4" depart="22.00" departLane="430416184_0" departPos="118.96" departSpeed="0.00" departDelay="0.18" arrival="66.00" arrivalLane="1091883842_0" arrivalPos="24.03" arrivalSpeed="8.84" duration="44.00" routeLength="205.52" waitingTime="0.00" waitingCount="0" stopTime="0.00" timeLoss="30.74" rerouteNo="0" devices="tripinfo_flow_route_87_duration_20250327_2050.4" vType="car" speedFactor="1.16" vaporized=""/>
    <tripinfo id="flow_route_87_duration_20250327_2050.0" depart="0.00" departLane="430416184_0" departPos="1.75" departSpeed="0.00" departDelay="0.00" arrival="68.00" arrivalLane="1091883842_0" arrivalPos="109.56" arrivalSpeed="14.20" duration="68.00" routeLength="408.27" waitingTime="11.00" waitingCount="1" stopTime="0.00" timeLoss="42.22" rerouteNo="0" devices="tripinfo_flow_route_87_duration_20250327_2050.0" vType="car" speedFactor="1.03" vaporized=""/>
    <tripinfo id="flow_route_88_duration_20250327_2050.9" depart="42.00" departLane="430416184_0" departPos="196.27" departSpeed="0.00" departDelay="3.44" arrival="69.00" arrivalLane="186407684#0_1" arrivalPos="7.58" arrivalSpeed="11.28" duration="27.00" routeLength="128.94" waitingTime="0.00" waitingCount="0" stopTime="0.00" timeLoss="17.63" rerouteNo="0" devices="tripinfo_flow_route_88_duration_20250327_2050.9" vType="car" speedFactor="1.01" vaporized=""/>
    <tripinfo id="flow_route_86_duration_20250327_2050.2" depart="15.00" departLane="430416184_0" departPos="68.46" departSpeed="0.00" departDelay="0.00" arrival="70.00" arrivalLane="186407685_1" arrivalPos="96.38" arrivalSpeed="15.85" duration="55.00" routeLength="351.81" waitingTime="4.00" waitingCount="1" stopTime="0.00" timeLoss="33.46" rerouteNo="0" devices="tripinfo_flow_route_86_duration_20250327_2050.2" vType="car" speedFactor="0.99" vaporized=""/>
    <tripinfo id="flow_route_88_duration_20250327_2050.4" depart="18.00" departLane="430416184_0" departPos="46.01" departSpeed="0.00" departDelay="0.86" arrival="70.00" arrivalLane="186407684#0_1" arrivalPos="67.38" arrivalSpeed="13.80" duration="52.00" routeLength="338.99" waitingTime="2.00" waitingCount="1" stopTime="0.00" timeLoss="29.48" rerouteNo="0" devices="tripinfo_flow_route_88_duration_20250327_2050.4" vType="car" speedFactor="0.88" vaporized=""/>
    <tripinfo id="flow_route_86_duration_20250327_2050.3" depart="24.00" departLane="430416184_0" departPos="48.57" departSpeed="0.00" departDelay="1.50" arrival="70.00" arrivalLane="186407685_1" arrivalPos="46.76" arrivalSpeed="13.68" duration="46.00" routeLength="322.07" waitingTime="0.00" waitingCount="0" stopTime="0.00" timeLoss="26.48" rerouteNo="0" devices="tripinfo_flow_route_86_duration_20250327_2050.3" vType="car" speedFactor="1.01" vaporized=""/>
    <tripinfo id="flow_route_87_duration_20250327_2050.5" depart="28.00" departLane="430416184_0" departPos="172.42" departSpeed="0.00" departDelay="0.73" arrival="74.00" arrivalLane="1091883842_0" arrivalPos="132.89" arrivalSpeed="13.69" duration="46.00" routeLength="260.91" waitingTime="0.00" waitingCount="0" stopTime="0.00" timeLoss="26.63" rerouteNo="0" devices="tripinfo_flow_route_87_duration_20250327_2050.5" vType="car" speedFactor="0.83" vaporized=""/>
    <tripinfo id="flow_route_88_duration_20250327_2050.10" depart="43.00" departLane="430416184_0" departPos="177.89" departSpeed="0.00" departDelay="0.15" arrival="75.00" arrivalLane="186407684#0_1" arrivalPos="37.30" arrivalSpeed="13.63" duration="32.00" routeLength="177.04" waitingTime="1.00" waitingCount="1" stopTime="0.00" timeLoss="19.91" rerouteNo="0" devices="tripinfo_flow_route_88_duration_20250327_2050.10" vType="car" speedFactor="1.02" vaporized=""/>
    <tripinfo id="flow_route_88_duration_20250327_2050.12" depart="54.00" departLane="430416184_0" departPos="205.54" departSpeed="0.00" departDelay="2.58" arrival="79.00" arrivalLane="186407684#0_1" arrivalPos="77.16" arrivalSpeed="14.95" duration="25.00" routeLength="189.25" waitingTime="0.00" waitingCount="0" stopTime="0.00" timeLoss="12.51" rerouteNo="0" devices="tripinfo_flow_route_88_duration_20250327_2050.12" vType="car" speedFactor="0.96" vaporized=""/>
    <tripinfo id="flow_route_83_duration_20250327_2050.1" depart="20.00" departLane="423956929_0" departPos="61.47" departSpeed="0.00" departDelay="0.00" arrival="80.00" arrivalLane="186407685_0" arrivalPos="5.28" arrivalSpeed="4.45" duration="60.00" routeLength="138.37" waitingTime="33.00" waitingCount="1" stopTime="0.00" timeLoss="50.50" rerouteNo="0" devices="tripinfo_flow_route_83_duration_20250327_2050.1" vType="car" speedFactor="0.94" vaporized=""/>
    <tripinfo id="flow_route_86_duration_20250327_2050.5" depart="39.00" departLane="430416184_0" departPos="164.01" departSpeed="0.00" departDelay="1.50" arrival="82.00" arrivalLane="186407685_1" arrivalPos="175.70" arrivalSpeed="16.14" duration="43.00" routeLength="335.57" waitingTime="0.00" waitingCount="0" stopTime="0.00" timeLoss="22.16" rerouteNo="0" devices="tripinfo_flow_route_86_duration_20250327_2050.5" vType="car" speedFactor="1.18" vaporized=""/>
    <tripinfo id="flow_route_87_duration_20250327_2050.10" depart="56.00" departLane="430416184_0" departPos="202.28" departSpeed="0.00" departDelay="1.46" arrival="83.00" arrivalLane="1091883842_0" arrivalPos="106.53" arrivalSpeed="15.59" duration="27.00" routeLength="204.70" waitingTime="0.00" waitingCount="0" stopTime="0.00" timeLoss="13.43" rerouteNo="0" devices="tripinfo_flow_route_87_duration_20250327_2050.10" vType="car" speedFactor="1.04" vaporized=""/>
    <tripinfo id="flow_route_83_duration_20250327_2050.2" depart="40.00" departLane="423956929_0" departPos="65.28" departSpeed="0.00" departDelay="0.00" arrival="84.00" arrivalLane="186407685_0" arrivalPos="8.29" arrivalSpeed="6.05" duration="44.00" routeLength="137.58" waitingTime="16.00" waitingCount="1" stopTime="0.00" timeLoss="34.79" rerouteNo="0" devices="tripinfo_flow_route_83_duration_20250327_2050.2" vType="car" speedFactor="0.99" vaporized=""/>
    <tripinfo id="flow_route_62_duration_20250327_2050.6" depart="40.00" departLane="409155823_0" departPos="63.55" departSpeed="0.00" departDelay="0.00" arrival="86.00" arrivalLane="1091883842_1" arrivalPos="33.55" arrivalSpeed="8.92" duration="46.00" routeLength="75.41" waitingTime="25.00" waitingCount="1" stopTime="0.00" timeLoss="41.02" rerouteNo="0" devices="tripinfo_flow_route_62_duration_20250327_2050.6" vType="car" speedFactor="1.17" vaporized=""/>
    <tripinfo id="flow_route_62_duration_20250327_2050.5" depart="34.00" departLane="409155823_0" departPos="13.37" departSpeed="0.00" departDelay="0.67" arrival="89.00" arrivalLane="1091883842_0" arrivalPos="34.05" arrivalSpeed="8.94" duration="55.00" routeLength="126.10" waitingTime="28.00" waitingCount="1" stopTime="0.00" timeLoss="46.88" rerouteNo="0" devices="tripinfo_flow_route_62_duration_20250327_2050.5" vType="car" speedFactor="1.13" vaporized=""/>
    <tripinfo id="flow_route_62_duration_20250327_2050.7" depart="47.00" departLane="409155823_0" departPos="32.15" departSpeed="0.00" departDelay="0.34" arrival="90.00" arrivalLane="1091883842_1" arrivalPos="77.47" arrivalSpeed="12.13" duration="43.00" routeLength="150.74" waitingTime="13.00" waitingCount="1" stopTime="0.00" timeLoss="33.61" rerouteNo="0" devices="tripinfo_flow_route_62_duration_20250327_2050.7" vType="car" speedFactor="1.10" vaporized=""/>
    <tripinfo id="flow_route_62_duration_20250327_2050.8" depart="55.00" departLane="409155823_0" departPos="26.09" departSpeed="0.00" departDelay="1.67" arrival="92.00" arrivalLane="1091883842_1" arrivalPos="78.95" arrivalSpeed="12.36" duration="37.00" routeLength="158.27" waitingTime="8.00" waitingCount="1" stopTime="0.00" timeLoss="27.14" rerouteNo="0" devices="tripinfo_flow_route_62_duration_20250327_2050.8" vType="car" speedFactor="1.04" vaporized=""/>
    <tripinfo id="flow_route_62_duration_20250327_2050.4" depart="27.00" departLane="409155823_0" departPos="58.82" departSpeed="0.00" departDelay="0.34" arrival="95.00" arrivalLane="1091883842_0" arrivalPos="150.74" arrivalSpeed="14.42" duration="68.00" routeLength="197.34" waitingTime="37.00" waitingCount="1" stopTime="0.00" timeLoss="54.41" rerouteNo="0" devices="tripinfo_flow_route_62_duration_20250327_2050.4" vType="car" speedFactor="0.89" vaporized=""/>
    <tripinfo id="flow_route_87_duration_20250327_2050.6" depart="37.00" departLane="430416184_0" departPos="19.37" departSpeed="0.00" departDelay="4.28" arrival="98.00" arrivalLane="1091883842_0" arrivalPos="31.27" arrivalSpeed="8.84" duration="61.00" routeLength="312.36" waitingTime="7.00" waitingCount="1" stopTime="0.00" timeLoss="41.05" rerouteNo="0" devices="tripinfo_flow_route_87_duration_20250327_2050.6" vType="car" speedFactor="0.95" vaporized=""/>
    <tripinfo id="flow_route_87_duration_20250327_2050.8" depart="44.00" departLane="430416184_0" departPos="148.30" departSpeed="0.00" departDelay="0.37" arrival="98.00" arrivalLane="1091883842_0" arrivalPos="72.38" arrivalSpeed="11.08" duration="54.00" routeLength="224.53" waitingTime="8.00" waitingCount="1" stopTime="0.00" timeLoss="39.57" rerouteNo="0" devices="tripinfo_flow_route_87_duration_20250327_2050.8" vType="car" speedFactor="0.97" vaporized=""/>
    <tripinfo id="flow_route_87_duration_20250327_2050.7" depart="41.00" departLane="430416184_0" departPos="83.88" departSpeed="0.00" departDelay="2.82" arrival="99.00" arrivalLane="1091883842_0" arrivalPos="62.96" arrivalSpeed="10.60" duration="58.00" routeLength="279.53" waitingTime="8.00" waitingCount="1" stopTime="0.00" timeLoss="40.48" rerouteNo="0" devices="tripinfo_flow_route_87_duration_20250327_2050.7" vType="car" speedFactor="1.15" vaporized=""/>
    <tripinfo id="flow_route_87_duration_20250327_2050.9" depart="50.00" departLane="430416184_0" departPos="30.28" departSpeed="0.00" departDelay="0.91" arrival="102.00" arrivalLane="1091883842_0" arrivalPos="56.22" arrivalSpeed="11.57" duration="52.00" routeLength="326.39" waitingTime="6.00" waitingCount="1" stopTime="0.00" timeLoss="31.35" rerouteNo="0" devices="tripinfo_flow_route_87_duration_20250327_2050.9" vType="car" speedFactor="1.03" vaporized=""/>
    <tripinfo id="flow_route_88_duration_20250327_2050.6" depart="27.00" departLane="430416184_0" departPos="25.74" departSpeed="0.00" departDelay="1.29" arrival="130.00" arrivalLane="186407684#0_1" arrivalPos="50.38" arrivalSpeed="11.85" duration="103.00" routeLength="342.26" waitingTime="36.00" waitingCount="1" stopTime="0.00" timeLoss="80.64" rerouteNo="0" devices="tripinfo_flow_route_88_duration_20250327_2050.6" vType="car" speedFactor="0.97" vaporized=""/>
    <tripinfo id="flow_route_88_duration_20250327_2050.8" depart="37.00" departLane="430416184_0" departPos="51.76" departSpeed="0.00" departDelay="2.72" arrival="130.00" arrivalLane="186407684#0_1" arrivalPos="2.45" arrivalSpeed="9.33" duration="93.00" routeLength="268.32" waitingTime="34.00" waitingCount="1" stopTime="0.00" timeLoss="75.46" rerouteNo="0" devices="tripinfo_flow_route_88_duration_20250327_2050.8" vType="car" speedFactor="0.93" vaporized=""/>
    <tripinfo id="flow_route_86_duration_20250327_2050.6" depart="45.00" departLane="430416184_0" departPos="169.18" departSpeed="0.00" departDelay="0.00" arrival="133.00" arrivalLane="186407685_1" arrivalPos="146.18" arrivalSpeed="16.36" duration="88.00" routeLength="300.88" waitingTime="38.00" waitingCount="2" stopTime="0.00" timeLoss="69.17" rerouteNo="0" devices="tripinfo_flow_route_86_duration_20250327_2050.6" vType="car" speedFactor="1.18" vaporized=""/>
    <tripinfo id="flow_route_86_duration_20250327_2050.4" depart="31.00" departLane="430416184_0" departPos="89.01" departSpeed="0.00" departDelay="1.00" arrival="134.00" arrivalLane="186407685_1" arrivalPos="122.46" arrivalSpeed="16.08" duration="103.00" routeLength="357.33" waitingTime="41.00" waitingCount="2" stopTime="0.00" timeLoss="80.89" rerouteNo="0" devices="tripinfo_flow_route_86_duration_20250327_2050.4" vType="car" speedFactor="0.87" vaporized=""/>
    <tripinfo id="flow_route_88_duration_20250327_2050.7" depart="35.00" departLane="430416184_0" departPos="80.64" departSpeed="0.00" departDelay="5.01" arrival="134.00" arrivalLane="186407684#0_1" arrivalPos="82.41" arrivalSpeed="13.58" duration="99.00" routeLength="319.40" waitingTime="35.00" waitingCount="1" stopTime="0.00" timeLoss="78.09" rerouteNo="0" devices="tripinfo_flow_route_88_duration_20250327_2050.7" vType="car" speedFactor="0.92" vaporized=""/>
    <tripinfo id="flow_route_88_duration_20250327_2050.13" depart="56.00" departLane="430416184_0" departPos="29.36" departSpeed="0.00" departDelay="0.30" arrival="139.00" arrivalLane="186407684#0_1" arrivalPos="36.23" arrivalSpeed="12.04" duration="83.00" routeLength="324.50" waitingTime="34.00" waitingCount="1" stopTime="0.00" timeLoss="62.56" rerouteNo="0" devices="tripinfo_flow_route_88_duration_20250327_2050.13" vType="car" speedFactor="1.09" vaporized=""/>
    <tripinfo id="flow_route_88_duration_20250327_2050.11" depart="48.00" departLane="430416184_0" departPos="6.90" departSpeed="0.00" departDelay="0.87" arrival="141.00" arrivalLane="186407684#0_1" arrivalPos="86.09" arrivalSpeed="14.24" duration="93.00" routeLength="396.82" waitingTime="34.00" waitingCount="1" stopTime="0.00" timeLoss="67.13" rerouteNo="0" devices="tripinfo_flow_route_88_duration_20250327_2050.11" vType="car" speedFactor="0.90" vaporized=""/>
    <tripinfo id="flow_route_86_duration_20250327_2050.7" depart="56.00" departLane="430416184_0" departPos="99.16" departSpeed="0.00" departDelay="3.50" arrival="144.00" arrivalLane="186407685_1" arrivalPos="163.77" arrivalSpeed="16.13" duration="88.00" routeLength="388.50" waitingTime="34.00" waitingCount="1" stopTime="0.00" timeLoss="63.99" rerouteNo="0" devices="tripinfo_flow_route_86_duration_20250327_2050.7" vType="car" speedFactor="1.09" vaporized=""/>
</tripinfos>
