<?xml version="1.0" encoding="UTF-8"?>

<!-- generated on 2025-05-06 21:09:15 by Eclipse SUMO sumo Version 1.20.0
<configuration xmlns:xsi="http://www.w3.org/2001/XMLSchema-instance" xsi:noNamespaceSchemaLocation="http://sumo.dlr.de/xsd/sumoConfiguration.xsd">

    <input>
        <net-file value="osm.net.xml"/>
        <route-files value="xml/route_rl_cluster_11648745684_256036885_3839031483_9.rou.xml"/>
    </input>

    <output>
        <tripinfo-output value="xml/tripinfo_rl_cluster_11648745684_256036885_3839031483_9.xml"/>
    </output>

    <traci_server>
        <remote-port value="33861"/>
    </traci_server>

</configuration>
-->

<tripinfos xmlns:xsi="http://www.w3.org/2001/XMLSchema-instance" xsi:noNamespaceSchemaLocation="http://sumo.dlr.de/xsd/tripinfo_file.xsd">
    <tripinfo id="flow_route_72_duration_20250327_2120.0" depart="0.00" departLane="1369578052#0_0" departPos="161.40" departSpeed="0.00" departDelay="0.00" arrival="15.00" arrivalLane="133342692#0_0" arrivalPos="42.43" arrivalSpeed="11.65" duration="15.00" routeLength="81.12" waitingTime="0.00" waitingCount="0" stopTime="0.00" timeLoss="8.08" rerouteNo="0" devices="tripinfo_flow_route_72_duration_20250327_2120.0" vType="car" speedFactor="0.89" vaporized=""/>
    <tripinfo id="flow_route_68_duration_20250327_2120.0" depart="0.00" departLane="1253209803#0_0" departPos="143.52" departSpeed="0.00" departDelay="0.00" arrival="29.00" arrivalLane="-138002002#2_1" arrivalPos="90.53" arrivalSpeed="16.38" duration="29.00" routeLength="298.33" waitingTime="0.00" waitingCount="0" stopTime="0.00" timeLoss="10.70" rerouteNo="0" devices="tripinfo_flow_route_68_duration_20250327_2120.0" vType="car" speedFactor="1.08" vaporized=""/>
    <tripinfo id="flow_route_71_duration_20250327_2120.1" depart="12.00" departLane="1369578052#0_0" departPos="123.16" departSpeed="0.00" departDelay="0.00" arrival="33.00" arrivalLane="138002016#0_0" arrivalPos="53.47" arrivalSpeed="14.63" duration="21.00" routeLength="147.99" waitingTime="0.00" waitingCount="0" stopTime="0.00" timeLoss="11.06" rerouteNo="0" devices="tripinfo_flow_route_71_duration_20250327_2120.1" vType="car" speedFactor="0.94" vaporized=""/>
    <tripinfo id="flow_route_72_duration_20250327_2120.1" depart="12.00" departLane="1369578052#0_0" departPos="131.90" departSpeed="0.00" departDelay="0.00" arrival="33.00" arrivalLane="133342692#0_0" arrivalPos="98.00" arrivalSpeed="15.76" duration="21.00" routeLength="166.18" waitingTime="0.00" waitingCount="0" stopTime="0.00" timeLoss="10.12" rerouteNo="0" devices="tripinfo_flow_route_72_duration_20250327_2120.1" vType="car" speedFactor="1.16" vaporized=""/>
    <tripinfo id="flow_route_69_duration_20250327_2120.0" depart="0.00" departLane="1253209803#0_0" departPos="179.76" departSpeed="0.00" departDelay="0.00" arrival="34.00" arrivalLane="380585337#0_0" arrivalPos="14.31" arrivalSpeed="16.34" duration="34.00" routeLength="299.43" waitingTime="0.00" waitingCount="0" stopTime="0.00" timeLoss="14.64" rerouteNo="0" devices="tripinfo_flow_route_69_duration_20250327_2120.0" vType="car" speedFactor="1.03" vaporized=""/>
    <tripinfo id="flow_route_70_duration_20250327_2120.1" depart="10.00" departLane="1253209803#0_0" departPos="306.19" departSpeed="0.00" departDelay="0.00" arrival="38.00" arrivalLane="133342692#0_2" arrivalPos="22.18" arrivalSpeed="8.25" duration="28.00" routeLength="63.66" waitingTime="11.00" waitingCount="1" stopTime="0.00" timeLoss="22.55" rerouteNo="0" devices="tripinfo_flow_route_70_duration_20250327_2120.1" vType="car" speedFactor="0.88" vaporized=""/>
    <tripinfo id="flow_route_71_duration_20250327_2120.0" depart="0.00" departLane="1369578052#0_0" departPos="11.11" departSpeed="0.00" departDelay="0.00" arrival="39.00" arrivalLane="138002016#0_1" arrivalPos="236.62" arrivalSpeed="16.26" duration="39.00" routeLength="443.19" waitingTime="0.00" waitingCount="0" stopTime="0.00" timeLoss="11.71" rerouteNo="0" devices="tripinfo_flow_route_71_duration_20250327_2120.0" vType="car" speedFactor="1.05" vaporized=""/>
    <tripinfo id="flow_route_70_duration_20250327_2120.0" depart="0.00" departLane="1253209803#0_0" departPos="83.97" departSpeed="0.00" departDelay="0.00" arrival="40.00" arrivalLane="133342692#0_2" arrivalPos="7.48" arrivalSpeed="7.94" duration="40.00" routeLength="271.18" waitingTime="2.00" waitingCount="1" stopTime="0.00" timeLoss="21.61" rerouteNo="0" devices="tripinfo_flow_route_70_duration_20250327_2120.0" vType="car" speedFactor="0.83" vaporized=""/>
    <tripinfo id="flow_route_68_duration_20250327_2120.1" depart="20.00" departLane="1253209803#0_0" departPos="99.64" departSpeed="0.00" departDelay="0.00" arrival="49.00" arrivalLane="-138002002#2_0" arrivalPos="12.34" arrivalSpeed="15.07" duration="29.00" routeLength="264.02" waitingTime="0.00" waitingCount="0" stopTime="0.00" timeLoss="12.14" rerouteNo="0" devices="tripinfo_flow_route_68_duration_20250327_2120.1" vType="car" speedFactor="0.92" vaporized=""/>
    <tripinfo id="flow_route_70_duration_20250327_2120.3" depart="31.00" departLane="1253209803#0_0" departPos="308.40" departSpeed="0.00" departDelay="1.00" arrival="51.00" arrivalLane="133342692#0_2" arrivalPos="107.20" arrivalSpeed="14.59" duration="20.00" routeLength="146.47" waitingTime="0.00" waitingCount="0" stopTime="0.00" timeLoss="10.13" rerouteNo="0" devices="tripinfo_flow_route_70_duration_20250327_2120.3" vType="car" speedFactor="1.18" vaporized=""/>
    <tripinfo id="flow_route_70_duration_20250327_2120.2" depart="20.00" departLane="1253209803#0_0" departPos="107.62" departSpeed="0.00" departDelay="0.00" arrival="54.00" arrivalLane="133342692#0_2" arrivalPos="30.69" arrivalSpeed="10.26" duration="34.00" routeLength="270.74" waitingTime="0.00" waitingCount="0" stopTime="0.00" timeLoss="15.98" rerouteNo="0" devices="tripinfo_flow_route_70_duration_20250327_2120.2" vType="car" speedFactor="0.95" vaporized=""/>
    <tripinfo id="flow_route_70_duration_20250327_2120.4" depart="41.00" departLane="1253209803#0_0" departPos="203.52" departSpeed="0.00" departDelay="1.00" arrival="67.00" arrivalLane="133342692#0_2" arrivalPos="47.54" arrivalSpeed="11.89" duration="26.00" routeLength="191.69" waitingTime="0.00" waitingCount="0" stopTime="0.00" timeLoss="12.20" rerouteNo="0" devices="tripinfo_flow_route_70_duration_20250327_2120.4" vType="car" speedFactor="0.85" vaporized=""/>
    <tripinfo id="flow_route_68_duration_20250327_2120.2" depart="40.00" departLane="1253209803#0_0" departPos="188.15" departSpeed="0.00" departDelay="0.00" arrival="69.00" arrivalLane="-138002002#2_0" arrivalPos="108.52" arrivalSpeed="14.29" duration="29.00" routeLength="271.69" waitingTime="0.00" waitingCount="0" stopTime="0.00" timeLoss="10.96" rerouteNo="0" devices="tripinfo_flow_route_68_duration_20250327_2120.2" vType="car" speedFactor="0.88" vaporized=""/>
    <tripinfo id="flow_route_70_duration_20250327_2120.5" depart="50.00" departLane="1253209803#0_0" departPos="248.89" departSpeed="0.00" departDelay="0.00" arrival="72.00" arrivalLane="133342692#0_2" arrivalPos="67.46" arrivalSpeed="14.70" duration="22.00" routeLength="166.24" waitingTime="0.00" waitingCount="0" stopTime="0.00" timeLoss="10.16" rerouteNo="0" devices="tripinfo_flow_route_70_duration_20250327_2120.5" vType="car" speedFactor="0.97" vaporized=""/>
    <tripinfo id="flow_route_63_duration_20250327_2120.1" depart="15.00" departLane="133131666#1_0" departPos="10.94" departSpeed="0.00" departDelay="6.43" arrival="80.00" arrivalLane="133342692#0_1" arrivalPos="5.11" arrivalSpeed="6.91" duration="65.00" routeLength="177.90" waitingTime="32.00" waitingCount="1" stopTime="0.00" timeLoss="53.88" rerouteNo="0" devices="tripinfo_flow_route_63_duration_20250327_2120.1" vType="car" speedFactor="0.99" vaporized=""/>
    <tripinfo id="flow_route_65_duration_20250327_2120.0" depart="6.00" departLane="133131666#1_0" departPos="5.26" departSpeed="0.00" departDelay="6.00" arrival="81.00" arrivalLane="138002016#0_2" arrivalPos="14.48" arrivalSpeed="7.58" duration="75.00" routeLength="193.68" waitingTime="43.00" waitingCount="1" stopTime="0.00" timeLoss="62.56" rerouteNo="0" devices="tripinfo_flow_route_65_duration_20250327_2120.0" vType="car" speedFactor="1.01" vaporized=""/>
    <tripinfo id="flow_route_63_duration_20250327_2120.2" depart="31.00" departLane="133131666#1_0" departPos="19.40" departSpeed="0.00" departDelay="13.86" arrival="84.00" arrivalLane="133342692#0_1" arrivalPos="26.03" arrivalSpeed="9.17" duration="53.00" routeLength="190.35" waitingTime="20.00" waitingCount="1" stopTime="0.00" timeLoss="39.01" rerouteNo="0" devices="tripinfo_flow_route_63_duration_20250327_2120.2" vType="car" speedFactor="0.83" vaporized=""/>
    <tripinfo id="flow_route_64_duration_20250327_2120.2" depart="22.00" departLane="133131666#1_0" departPos="4.60" departSpeed="0.00" departDelay="11.09" arrival="90.00" arrivalLane="-138002002#2_0" arrivalPos="48.64" arrivalSpeed="10.33" duration="68.00" routeLength="209.60" waitingTime="30.00" waitingCount="1" stopTime="0.00" timeLoss="52.98" rerouteNo="0" devices="tripinfo_flow_route_64_duration_20250327_2120.2" vType="car" speedFactor="0.94" vaporized=""/>
    <tripinfo id="flow_route_64_duration_20250327_2120.0" depart="2.00" departLane="133131666#1_0" departPos="6.82" departSpeed="0.00" departDelay="2.00" arrival="91.00" arrivalLane="-138002002#2_0" arrivalPos="131.25" arrivalSpeed="14.78" duration="89.00" routeLength="289.98" waitingTime="49.00" waitingCount="1" stopTime="0.00" timeLoss="69.31" rerouteNo="0" devices="tripinfo_flow_route_64_duration_20250327_2120.0" vType="car" speedFactor="0.94" vaporized=""/>
    <tripinfo id="flow_route_64_duration_20250327_2120.1" depart="12.00" departLane="133131666#1_0" departPos="18.02" departSpeed="0.00" departDelay="6.55" arrival="91.00" arrivalLane="-138002002#2_0" arrivalPos="100.27" arrivalSpeed="13.65" duration="79.00" routeLength="247.80" waitingTime="41.00" waitingCount="1" stopTime="0.00" timeLoss="62.95" rerouteNo="0" devices="tripinfo_flow_route_64_duration_20250327_2120.1" vType="car" speedFactor="1.05" vaporized=""/>
    <tripinfo id="flow_route_64_duration_20250327_2120.3" depart="31.00" departLane="133131666#1_0" departPos="10.12" departSpeed="0.00" departDelay="14.64" arrival="91.00" arrivalLane="-138002002#2_0" arrivalPos="33.78" arrivalSpeed="9.28" duration="60.00" routeLength="189.21" waitingTime="22.00" waitingCount="1" stopTime="0.00" timeLoss="45.63" rerouteNo="0" devices="tripinfo_flow_route_64_duration_20250327_2120.3" vType="car" speedFactor="0.89" vaporized=""/>
    <tripinfo id="flow_route_63_duration_20250327_2120.0" depart="0.00" departLane="133131666#1_0" departPos="14.94" departSpeed="0.00" departDelay="0.00" arrival="92.00" arrivalLane="133342692#0_0" arrivalPos="152.76" arrivalSpeed="16.19" duration="92.00" routeLength="321.54" waitingTime="50.00" waitingCount="1" stopTime="0.00" timeLoss="72.03" rerouteNo="0" devices="tripinfo_flow_route_63_duration_20250327_2120.0" vType="car" speedFactor="1.06" vaporized=""/>
    <tripinfo id="flow_route_63_duration_20250327_2120.3" depart="41.00" departLane="133131666#1_0" departPos="2.28" departSpeed="0.00" departDelay="15.29" arrival="92.00" arrivalLane="133342692#0_1" arrivalPos="100.30" arrivalSpeed="15.03" duration="51.00" routeLength="281.74" waitingTime="10.00" waitingCount="1" stopTime="0.00" timeLoss="33.61" rerouteNo="0" devices="tripinfo_flow_route_63_duration_20250327_2120.3" vType="car" speedFactor="0.99" vaporized=""/>
    <tripinfo id="flow_route_64_duration_20250327_2120.5" depart="49.00" departLane="133131666#1_0" departPos="9.14" departSpeed="0.00" departDelay="21.73" arrival="92.00" arrivalLane="-138002002#2_0" arrivalPos="4.39" arrivalSpeed="7.13" duration="43.00" routeLength="160.80" waitingTime="9.00" waitingCount="1" stopTime="0.00" timeLoss="32.42" rerouteNo="0" devices="tripinfo_flow_route_64_duration_20250327_2120.5" vType="car" speedFactor="1.02" vaporized=""/>
    <tripinfo id="flow_route_65_duration_20250327_2120.2" depart="18.00" departLane="133131666#1_0" departPos="0.62" departSpeed="0.00" departDelay="8.77" arrival="93.00" arrivalLane="138002016#0_2" arrivalPos="105.47" arrivalSpeed="15.29" duration="75.00" routeLength="289.31" waitingTime="32.00" waitingCount="1" stopTime="0.00" timeLoss="54.76" rerouteNo="0" devices="tripinfo_flow_route_65_duration_20250327_2120.2" vType="car" speedFactor="0.93" vaporized=""/>
    <tripinfo id="flow_route_63_duration_20250327_2120.4" depart="59.00" departLane="133131666#1_0" departPos="5.02" departSpeed="0.00" departDelay="24.72" arrival="96.00" arrivalLane="133342692#0_1" arrivalPos="133.90" arrivalSpeed="15.61" duration="37.00" routeLength="312.61" waitingTime="0.00" waitingCount="0" stopTime="0.00" timeLoss="16.99" rerouteNo="0" devices="tripinfo_flow_route_63_duration_20250327_2120.4" vType="car" speedFactor="0.96" vaporized=""/>
    <tripinfo id="flow_route_63_duration_20250327_2120.5" depart="71.00" departLane="133131666#1_0" departPos="1.88" departSpeed="0.00" departDelay="28.15" arrival="98.00" arrivalLane="133342692#0_1" arrivalPos="94.17" arrivalSpeed="16.34" duration="27.00" routeLength="276.01" waitingTime="0.00" waitingCount="0" stopTime="0.00" timeLoss="10.17" rerouteNo="0" devices="tripinfo_flow_route_63_duration_20250327_2120.5" vType="car" speedFactor="1.17" vaporized=""/>
    <tripinfo id="flow_route_64_duration_20250327_2120.4" depart="36.00" departLane="133131666#1_0" departPos="3.13" departSpeed="0.00" departDelay="14.18" arrival="99.00" arrivalLane="-138002002#2_0" arrivalPos="104.47" arrivalSpeed="14.36" duration="63.00" routeLength="266.89" waitingTime="17.00" waitingCount="1" stopTime="0.00" timeLoss="45.26" rerouteNo="0" devices="tripinfo_flow_route_64_duration_20250327_2120.4" vType="car" speedFactor="1.13" vaporized=""/>
    <tripinfo id="flow_route_65_duration_20250327_2120.5" depart="37.00" departLane="133131666#1_0" departPos="14.99" departSpeed="0.00" departDelay="13.93" arrival="100.00" arrivalLane="138002016#0_2" arrivalPos="112.01" arrivalSpeed="15.66" duration="63.00" routeLength="281.48" waitingTime="19.00" waitingCount="1" stopTime="0.00" timeLoss="44.96" rerouteNo="0" devices="tripinfo_flow_route_65_duration_20250327_2120.5" vType="car" speedFactor="1.18" vaporized=""/>
    <tripinfo id="flow_route_65_duration_20250327_2120.6" depart="50.00" departLane="133131666#1_0" departPos="22.13" departSpeed="0.00" departDelay="22.31" arrival="100.00" arrivalLane="138002016#0_2" arrivalPos="96.38" arrivalSpeed="14.64" duration="50.00" routeLength="258.71" waitingTime="8.00" waitingCount="1" stopTime="0.00" timeLoss="33.22" rerouteNo="0" devices="tripinfo_flow_route_65_duration_20250327_2120.6" vType="car" speedFactor="0.97" vaporized=""/>
    <tripinfo id="flow_route_65_duration_20250327_2120.4" depart="33.00" departLane="133131666#1_0" departPos="2.25" departSpeed="0.00" departDelay="14.54" arrival="101.00" arrivalLane="138002016#0_2" arrivalPos="174.06" arrivalSpeed="14.13" duration="68.00" routeLength="356.27" waitingTime="22.00" waitingCount="1" stopTime="0.00" timeLoss="42.12" rerouteNo="0" devices="tripinfo_flow_route_65_duration_20250327_2120.4" vType="car" speedFactor="0.87" vaporized=""/>
    <tripinfo id="flow_route_65_duration_20250327_2120.1" depart="10.00" departLane="133131666#1_0" departPos="2.78" departSpeed="0.00" departDelay="5.39" arrival="102.00" arrivalLane="138002016#0_2" arrivalPos="282.58" arrivalSpeed="16.30" duration="92.00" routeLength="464.25" waitingTime="39.00" waitingCount="1" stopTime="0.00" timeLoss="62.88" rerouteNo="0" devices="tripinfo_flow_route_65_duration_20250327_2120.1" vType="car" speedFactor="1.03" vaporized=""/>
    <tripinfo id="flow_route_64_duration_20250327_2120.6" depart="52.00" departLane="133131666#1_0" departPos="3.40" departSpeed="0.00" departDelay="19.28" arrival="102.00" arrivalLane="-138002002#2_0" arrivalPos="63.16" arrivalSpeed="10.97" duration="50.00" routeLength="225.31" waitingTime="9.00" waitingCount="1" stopTime="0.00" timeLoss="33.35" rerouteNo="0" devices="tripinfo_flow_route_64_duration_20250327_2120.6" vType="car" speedFactor="0.90" vaporized=""/>
    <tripinfo id="flow_route_64_duration_20250327_2120.7" depart="65.00" departLane="133131666#1_0" departPos="4.23" departSpeed="0.00" departDelay="26.82" arrival="104.00" arrivalLane="-138002002#2_0" arrivalPos="63.47" arrivalSpeed="11.55" duration="39.00" routeLength="224.79" waitingTime="0.00" waitingCount="0" stopTime="0.00" timeLoss="22.99" rerouteNo="0" devices="tripinfo_flow_route_64_duration_20250327_2120.7" vType="car" speedFactor="0.90" vaporized=""/>
    <tripinfo id="flow_route_65_duration_20250327_2120.3" depart="27.00" departLane="133131666#1_0" departPos="8.11" departSpeed="0.00" departDelay="13.16" arrival="106.00" arrivalLane="138002016#0_2" arrivalPos="297.67" arrivalSpeed="16.32" duration="79.00" routeLength="474.03" waitingTime="26.00" waitingCount="1" stopTime="0.00" timeLoss="49.65" rerouteNo="0" devices="tripinfo_flow_route_65_duration_20250327_2120.3" vType="car" speedFactor="1.01" vaporized=""/>
    <tripinfo id="flow_route_65_duration_20250327_2120.8" depart="61.00" departLane="133131666#1_0" departPos="20.41" departSpeed="0.00" departDelay="24.08" arrival="108.00" arrivalLane="138002016#0_2" arrivalPos="124.37" arrivalSpeed="16.12" duration="47.00" routeLength="288.41" waitingTime="1.00" waitingCount="1" stopTime="0.00" timeLoss="28.67" rerouteNo="0" devices="tripinfo_flow_route_65_duration_20250327_2120.8" vType="car" speedFactor="1.09" vaporized=""/>
    <tripinfo id="flow_route_65_duration_20250327_2120.7" depart="56.00" departLane="133131666#1_0" departPos="2.87" departSpeed="0.00" departDelay="23.70" arrival="112.00" arrivalLane="138002016#0_2" arrivalPos="222.68" arrivalSpeed="16.30" duration="56.00" routeLength="404.27" waitingTime="4.00" waitingCount="1" stopTime="0.00" timeLoss="31.05" rerouteNo="0" devices="tripinfo_flow_route_65_duration_20250327_2120.7" vType="car" speedFactor="1.03" vaporized=""/>
    <tripinfo id="flow_route_64_duration_20250327_2120.8" depart="76.00" departLane="133131666#1_0" departPos="2.65" departSpeed="0.00" departDelay="32.37" arrival="114.00" arrivalLane="-138002002#2_0" arrivalPos="180.70" arrivalSpeed="16.11" duration="38.00" routeLength="343.60" waitingTime="0.00" waitingCount="0" stopTime="0.00" timeLoss="15.91" rerouteNo="0" devices="tripinfo_flow_route_64_duration_20250327_2120.8" vType="car" speedFactor="1.02" vaporized=""/>
    <tripinfo id="flow_route_75_duration_20250327_2120.0" depart="0.00" departLane="380593307#0_0" departPos="8.02" departSpeed="0.00" departDelay="0.00" arrival="116.00" arrivalLane="-138002002#2_1" arrivalPos="1.11" arrivalSpeed="6.47" duration="116.00" routeLength="196.85" waitingTime="85.00" waitingCount="1" stopTime="0.00" timeLoss="103.47" rerouteNo="0" devices="tripinfo_flow_route_75_duration_20250327_2120.0" vType="car" speedFactor="1.09" vaporized=""/>
    <tripinfo id="flow_route_64_duration_20250327_2120.9" depart="83.00" departLane="133131666#1_0" departPos="4.23" departSpeed="0.00" departDelay="33.91" arrival="118.00" arrivalLane="-138002002#2_0" arrivalPos="150.93" arrivalSpeed="16.43" duration="35.00" routeLength="312.25" waitingTime="0.00" waitingCount="0" stopTime="0.00" timeLoss="14.88" rerouteNo="0" devices="tripinfo_flow_route_64_duration_20250327_2120.9" vType="car" speedFactor="1.02" vaporized=""/>
    <tripinfo id="flow_route_74_duration_20250327_2120.3" depart="23.00" departLane="380593307#0_0" departPos="125.32" departSpeed="0.00" departDelay="0.50" arrival="120.00" arrivalLane="138002016#0_0" arrivalPos="14.91" arrivalSpeed="6.72" duration="97.00" routeLength="72.28" waitingTime="75.00" waitingCount="1" stopTime="0.00" timeLoss="91.14" rerouteNo="0" devices="tripinfo_flow_route_74_duration_20250327_2120.3" vType="car" speedFactor="0.93" vaporized=""/>
    <tripinfo id="flow_route_65_duration_20250327_2120.9" depart="68.00" departLane="133131666#1_0" departPos="20.38" departSpeed="0.00" departDelay="26.47" arrival="121.00" arrivalLane="138002016#0_1" arrivalPos="261.40" arrivalSpeed="14.21" duration="53.00" routeLength="425.48" waitingTime="0.00" waitingCount="0" stopTime="0.00" timeLoss="22.13" rerouteNo="0" devices="tripinfo_flow_route_65_duration_20250327_2120.9" vType="car" speedFactor="0.85" vaporized=""/>
    <tripinfo id="flow_route_65_duration_20250327_2120.10" depart="83.00" departLane="133131666#1_0" departPos="13.42" departSpeed="0.00" departDelay="36.85" arrival="122.00" arrivalLane="138002016#0_2" arrivalPos="254.03" arrivalSpeed="16.33" duration="39.00" routeLength="425.07" waitingTime="0.00" waitingCount="0" stopTime="0.00" timeLoss="12.67" rerouteNo="0" devices="tripinfo_flow_route_65_duration_20250327_2120.10" vType="car" speedFactor="1.00" vaporized=""/>
    <tripinfo id="flow_route_75_duration_20250327_2120.1" depart="12.00" departLane="380593307#0_0" departPos="103.51" departSpeed="0.00" departDelay="0.00" arrival="123.00" arrivalLane="-138002002#2_1" arrivalPos="44.47" arrivalSpeed="11.06" duration="111.00" routeLength="144.72" waitingTime="83.00" waitingCount="1" stopTime="0.00" timeLoss="101.23" rerouteNo="0" devices="tripinfo_flow_route_75_duration_20250327_2120.1" vType="car" speedFactor="1.02" vaporized=""/>
    <tripinfo id="flow_route_73_duration_20250327_2120.0" depart="0.00" departLane="380593307#0_0" departPos="55.90" departSpeed="0.00" departDelay="0.00" arrival="129.00" arrivalLane="380585337#0_0" arrivalPos="13.23" arrivalSpeed="15.30" duration="129.00" routeLength="294.01" waitingTime="88.00" waitingCount="1" stopTime="0.00" timeLoss="109.40" rerouteNo="0" devices="tripinfo_flow_route_73_duration_20250327_2120.0" vType="car" speedFactor="0.94" vaporized=""/>
    <tripinfo id="flow_route_75_duration_20250327_2120.2" depart="24.00" departLane="380593307#0_0" departPos="89.03" departSpeed="0.00" departDelay="0.00" arrival="130.00" arrivalLane="-138002002#2_1" arrivalPos="125.02" arrivalSpeed="16.07" duration="106.00" routeLength="239.75" waitingTime="70.00" waitingCount="1" stopTime="0.00" timeLoss="91.26" rerouteNo="0" devices="tripinfo_flow_route_75_duration_20250327_2120.2" vType="car" speedFactor="1.17" vaporized=""/>
    <tripinfo id="flow_route_74_duration_20250327_2120.2" depart="15.00" departLane="380593307#0_0" departPos="29.24" departSpeed="0.00" departDelay="0.00" arrival="131.00" arrivalLane="138002016#0_0" arrivalPos="97.98" arrivalSpeed="13.58" duration="116.00" routeLength="251.44" waitingTime="74.00" waitingCount="1" stopTime="0.00" timeLoss="98.95" rerouteNo="0" devices="tripinfo_flow_route_74_duration_20250327_2120.2" vType="car" speedFactor="0.97" vaporized=""/>
    <tripinfo id="flow_route_74_duration_20250327_2120.1" depart="8.00" departLane="380593307#0_0" departPos="166.07" departSpeed="0.00" departDelay="0.50" arrival="133.00" arrivalLane="138002016#0_0" arrivalPos="243.38" arrivalSpeed="16.14" duration="125.00" routeLength="260.00" waitingTime="94.00" waitingCount="1" stopTime="0.00" timeLoss="108.74" rerouteNo="0" devices="tripinfo_flow_route_74_duration_20250327_2120.1" vType="car" speedFactor="1.12" vaporized=""/>
    <tripinfo id="flow_route_75_duration_20250327_2120.3" depart="36.00" departLane="380593307#0_0" departPos="7.39" departSpeed="0.00" departDelay="0.00" arrival="133.00" arrivalLane="-138002002#2_1" arrivalPos="131.39" arrivalSpeed="16.38" duration="97.00" routeLength="327.76" waitingTime="54.00" waitingCount="1" stopTime="0.00" timeLoss="76.49" rerouteNo="0" devices="tripinfo_flow_route_75_duration_20250327_2120.3" vType="car" speedFactor="1.04" vaporized=""/>
    <tripinfo id="flow_route_74_duration_20250327_2120.0" depart="0.00" departLane="380593307#0_0" departPos="118.68" departSpeed="0.00" departDelay="0.00" arrival="136.00" arrivalLane="138002016#0_0" arrivalPos="237.21" arrivalSpeed="14.16" duration="136.00" routeLength="301.22" waitingTime="93.00" waitingCount="1" stopTime="0.00" timeLoss="113.42" rerouteNo="0" devices="tripinfo_flow_route_74_duration_20250327_2120.0" vType="car" speedFactor="0.86" vaporized=""/>
    <tripinfo id="flow_route_75_duration_20250327_2120.4" depart="51.00" departLane="380593307#0_0" departPos="57.78" departSpeed="0.00" departDelay="3.00" arrival="136.00" arrivalLane="-138002002#2_1" arrivalPos="121.33" arrivalSpeed="15.93" duration="85.00" routeLength="267.30" waitingTime="43.00" waitingCount="1" stopTime="0.00" timeLoss="68.22" rerouteNo="0" devices="tripinfo_flow_route_75_duration_20250327_2120.4" vType="car" speedFactor="1.14" vaporized=""/>
    <tripinfo id="flow_route_74_duration_20250327_2120.7" depart="53.00" departLane="380593307#0_0" departPos="77.19" departSpeed="0.00" departDelay="0.50" arrival="138.00" arrivalLane="138002016#0_0" arrivalPos="102.96" arrivalSpeed="14.07" duration="85.00" routeLength="208.47" waitingTime="49.00" waitingCount="1" stopTime="0.00" timeLoss="70.89" rerouteNo="0" devices="tripinfo_flow_route_74_duration_20250327_2120.7" vType="car" speedFactor="1.02" vaporized=""/>
    <tripinfo id="flow_route_74_duration_20250327_2120.5" depart="40.00" departLane="380593307#0_0" departPos="118.20" departSpeed="0.00" departDelay="2.50" arrival="144.00" arrivalLane="138002016#0_0" arrivalPos="269.16" arrivalSpeed="16.40" duration="104.00" routeLength="333.65" waitingTime="62.00" waitingCount="1" stopTime="0.00" timeLoss="82.91" rerouteNo="0" devices="tripinfo_flow_route_74_duration_20250327_2120.5" vType="car" speedFactor="1.00" vaporized=""/>
    <tripinfo id="flow_route_74_duration_20250327_2120.6" depart="45.00" departLane="380593307#0_0" departPos="29.08" departSpeed="0.00" departDelay="0.00" arrival="144.00" arrivalLane="138002016#0_0" arrivalPos="153.66" arrivalSpeed="16.34" duration="99.00" routeLength="307.27" waitingTime="48.00" waitingCount="1" stopTime="0.00" timeLoss="79.17" rerouteNo="0" devices="tripinfo_flow_route_74_duration_20250327_2120.6" vType="car" speedFactor="1.10" vaporized=""/>
    <tripinfo id="flow_route_74_duration_20250327_2120.4" depart="31.00" departLane="380593307#0_0" departPos="51.44" departSpeed="0.00" departDelay="1.00" arrival="147.00" arrivalLane="138002016#0_0" arrivalPos="294.44" arrivalSpeed="16.38" duration="116.00" routeLength="425.69" waitingTime="61.00" waitingCount="1" stopTime="0.00" timeLoss="89.53" rerouteNo="0" devices="tripinfo_flow_route_74_duration_20250327_2120.4" vType="car" speedFactor="1.10" vaporized=""/>
    <tripinfo id="flow_route_72_duration_20250327_2120.2" depart="24.00" departLane="1369578052#0_0" departPos="71.84" departSpeed="0.00" departDelay="0.00" arrival="160.00" arrivalLane="133342692#0_0" arrivalPos="36.41" arrivalSpeed="10.06" duration="136.00" routeLength="164.65" waitingTime="102.00" waitingCount="1" stopTime="0.00" timeLoss="124.80" rerouteNo="0" devices="tripinfo_flow_route_72_duration_20250327_2120.2" vType="car" speedFactor="1.01" vaporized=""/>
    <tripinfo id="flow_route_72_duration_20250327_2120.3" depart="36.00" departLane="1369578052#0_0" departPos="88.48" departSpeed="0.00" departDelay="0.00" arrival="160.00" arrivalLane="133342692#0_0" arrivalPos="21.31" arrivalSpeed="8.91" duration="124.00" routeLength="132.91" waitingTime="95.00" waitingCount="1" stopTime="0.00" timeLoss="115.09" rerouteNo="0" devices="tripinfo_flow_route_72_duration_20250327_2120.3" vType="car" speedFactor="1.04" vaporized=""/>
    <tripinfo id="flow_route_72_duration_20250327_2120.4" depart="48.00" departLane="1369578052#0_0" departPos="89.66" departSpeed="0.00" departDelay="0.00" arrival="160.00" arrivalLane="133342692#0_0" arrivalPos="0.15" arrivalSpeed="7.05" duration="112.00" routeLength="110.57" waitingTime="86.00" waitingCount="1" stopTime="0.00" timeLoss="103.26" rerouteNo="0" devices="tripinfo_flow_route_72_duration_20250327_2120.4" vType="car" speedFactor="0.90" vaporized=""/>
    <tripinfo id="flow_route_71_duration_20250327_2120.2" depart="24.00" departLane="1369578052#0_0" departPos="113.38" departSpeed="0.00" departDelay="0.00" arrival="164.00" arrivalLane="138002016#0_0" arrivalPos="92.33" arrivalSpeed="13.98" duration="140.00" routeLength="196.63" waitingTime="104.00" waitingCount="1" stopTime="0.00" timeLoss="127.42" rerouteNo="0" devices="tripinfo_flow_route_71_duration_20250327_2120.2" vType="car" speedFactor="1.15" vaporized=""/>
    <tripinfo id="flow_route_71_duration_20250327_2120.4" depart="48.00" departLane="1369578052#0_0" departPos="2.15" departSpeed="0.00" departDelay="0.00" arrival="166.00" arrivalLane="138002016#0_1" arrivalPos="107.87" arrivalSpeed="14.92" duration="118.00" routeLength="323.40" waitingTime="74.00" waitingCount="1" stopTime="0.00" timeLoss="98.41" rerouteNo="0" devices="tripinfo_flow_route_71_duration_20250327_2120.4" vType="car" speedFactor="1.00" vaporized=""/>
    <tripinfo id="flow_route_71_duration_20250327_2120.3" depart="36.00" departLane="1369578052#0_0" departPos="68.50" departSpeed="0.00" departDelay="0.00" arrival="171.00" arrivalLane="138002016#0_0" arrivalPos="226.73" arrivalSpeed="16.35" duration="135.00" routeLength="375.92" waitingTime="90.00" waitingCount="1" stopTime="0.00" timeLoss="112.29" rerouteNo="0" devices="tripinfo_flow_route_71_duration_20250327_2120.3" vType="car" speedFactor="1.09" vaporized=""/>
    <tripinfo id="flow_route_63_duration_20250327_2120.6" depart="89.00" departLane="133131666#1_0" departPos="12.11" departSpeed="0.00" departDelay="37.57" arrival="229.00" arrivalLane="133342692#0_0" arrivalPos="35.58" arrivalSpeed="9.48" duration="140.00" routeLength="207.18" waitingTime="107.00" waitingCount="1" stopTime="0.00" timeLoss="127.33" rerouteNo="0" devices="tripinfo_flow_route_63_duration_20250327_2120.6" vType="car" speedFactor="1.12" vaporized=""/>