<?xml version="1.0" encoding="UTF-8"?>

<!-- generated on 2025-05-06 21:08:32 by Eclipse SUMO sumo Version 1.20.0
<configuration xmlns:xsi="http://www.w3.org/2001/XMLSchema-instance" xsi:noNamespaceSchemaLocation="http://sumo.dlr.de/xsd/sumoConfiguration.xsd">

    <input>
        <net-file value="osm.net.xml"/>
        <route-files value="xml/route_rl_cluster_11648561419_11648561420_2271142975_4854142869_5.rou.xml"/>
    </input>

    <output>
        <tripinfo-output value="xml/tripinfo_rl_cluster_11648561419_11648561420_2271142975_4854142869_5.xml"/>
    </output>

    <traci_server>
        <remote-port value="58541"/>
    </traci_server>

</configuration>
-->

<tripinfos xmlns:xsi="http://www.w3.org/2001/XMLSchema-instance" xsi:noNamespaceSchemaLocation="http://sumo.dlr.de/xsd/tripinfo_file.xsd">
    <tripinfo id="flow_route_119_duration_20250327_2200.0" depart="0.00" departLane="134194079#0_0" departPos="151.34" departSpeed="0.00" departDelay="0.00" arrival="22.00" arrivalLane="1253188486#8_0" arrivalPos="1.48" arrivalSpeed="8.97" duration="22.00" routeLength="161.10" waitingTime="0.00" waitingCount="0" stopTime="0.00" timeLoss="10.99" rerouteNo="0" devices="tripinfo_flow_route_119_duration_20250327_2200.0" vType="car" speedFactor="1.09" vaporized=""/>
    <tripinfo id="flow_route_97_duration_20250327_2200.0" depart="0.00" departLane="1328664748#0_0" departPos="149.74" departSpeed="0.00" departDelay="0.00" arrival="27.00" arrivalLane="135474719#0_0" arrivalPos="137.46" arrivalSpeed="15.89" duration="27.00" routeLength="222.45" waitingTime="0.00" waitingCount="0" stopTime="0.00" timeLoss="12.53" rerouteNo="0" devices="tripinfo_flow_route_97_duration_20250327_2200.0" vType="car" speedFactor="1.06" vaporized=""/>
    <tripinfo id="flow_route_98_duration_20250327_2200.0" depart="0.00" departLane="1328664748#0_0" departPos="103.72" departSpeed="0.00" departDelay="0.00" arrival="27.00" arrivalLane="177211987#1_0" arrivalPos="104.29" arrivalSpeed="15.20" duration="27.00" routeLength="249.04" waitingTime="0.00" waitingCount="0" stopTime="0.00" timeLoss="10.90" rerouteNo="0" devices="tripinfo_flow_route_98_duration_20250327_2200.0" vType="car" speedFactor="0.94" vaporized=""/>
    <tripinfo id="flow_route_99_duration_20250327_2200.0" depart="1.00" departLane="1328664748#0_0" departPos="68.32" departSpeed="0.00" departDelay="1.00" arrival="27.00" arrivalLane="1253188486#8_2" arrivalPos="11.16" arrivalSpeed="9.83" duration="26.00" routeLength="200.71" waitingTime="0.00" waitingCount="0" stopTime="0.00" timeLoss="13.32" rerouteNo="0" devices="tripinfo_flow_route_99_duration_20250327_2200.0" vType="car" speedFactor="1.01" vaporized=""/>
    <tripinfo id="flow_route_119_duration_20250327_2200.1" depart="4.00" departLane="134194079#0_0" departPos="277.04" departSpeed="0.00" departDelay="0.47" arrival="27.00" arrivalLane="1253188486#8_0" arrivalPos="155.42" arrivalSpeed="16.31" duration="23.00" routeLength="189.33" waitingTime="0.00" waitingCount="0" stopTime="0.00" timeLoss="10.69" rerouteNo="0" devices="tripinfo_flow_route_119_duration_20250327_2200.1" vType="car" speedFactor="1.03" vaporized=""/>
    <tripinfo id="flow_route_118_duration_20250327_2200.1" depart="5.00" departLane="134194079#0_0" departPos="261.87" departSpeed="0.00" departDelay="0.39" arrival="30.00" arrivalLane="1328664744#0_0" arrivalPos="182.87" arrivalSpeed="16.51" duration="25.00" routeLength="242.16" waitingTime="0.00" waitingCount="0" stopTime="0.00" timeLoss="10.12" rerouteNo="0" devices="tripinfo_flow_route_118_duration_20250327_2200.1" vType="car" speedFactor="1.05" vaporized=""/>
    <tripinfo id="flow_route_118_duration_20250327_2200.0" depart="0.00" departLane="134194079#0_0" departPos="13.63" departSpeed="0.00" departDelay="0.00" arrival="44.00" arrivalLane="1328664744#0_1" arrivalPos="165.30" arrivalSpeed="13.97" duration="44.00" routeLength="472.83" waitingTime="0.00" waitingCount="0" stopTime="0.00" timeLoss="10.32" rerouteNo="0" devices="tripinfo_flow_route_118_duration_20250327_2200.0" vType="car" speedFactor="0.86" vaporized=""/>
    <tripinfo id="flow_route_119_duration_20250327_2200.4" depart="17.00" departLane="134194079#0_0" departPos="211.10" departSpeed="0.00" departDelay="2.88" arrival="45.00" arrivalLane="1253188486#8_0" arrivalPos="140.24" arrivalSpeed="16.26" duration="28.00" routeLength="240.08" waitingTime="0.00" waitingCount="0" stopTime="0.00" timeLoss="12.37" rerouteNo="0" devices="tripinfo_flow_route_119_duration_20250327_2200.4" vType="car" speedFactor="1.01" vaporized=""/>
    <tripinfo id="flow_route_118_duration_20250327_2200.2" depart="11.00" departLane="134194079#0_0" departPos="97.74" departSpeed="0.00" departDelay="1.77" arrival="47.00" arrivalLane="1328664744#0_1" arrivalPos="169.60" arrivalSpeed="14.23" duration="36.00" routeLength="393.01" waitingTime="0.00" waitingCount="0" stopTime="0.00" timeLoss="8.85" rerouteNo="0" devices="tripinfo_flow_route_118_duration_20250327_2200.2" vType="car" speedFactor="0.88" vaporized=""/>
    <tripinfo id="flow_route_110_duration_20250327_2200.0" depart="0.00" departLane="1254519225#0.109_0" departPos="3.76" departSpeed="0.00" departDelay="0.00" arrival="81.00" arrivalLane="177211987#1_2" arrivalPos="6.38" arrivalSpeed="7.83" duration="81.00" routeLength="190.24" waitingTime="49.00" waitingCount="1" stopTime="0.00" timeLoss="66.28" rerouteNo="0" devices="tripinfo_flow_route_110_duration_20250327_2200.0" vType="car" speedFactor="0.83" vaporized=""/>
    <tripinfo id="flow_route_110_duration_20250327_2200.1" depart="20.00" departLane="1254519225#0.109_0" departPos="11.44" departSpeed="0.00" departDelay="0.00" arrival="85.00" arrivalLane="177211987#1_2" arrivalPos="24.65" arrivalSpeed="9.66" duration="65.00" routeLength="200.83" waitingTime="32.00" waitingCount="1" stopTime="0.00" timeLoss="51.00" rerouteNo="0" devices="tripinfo_flow_route_110_duration_20250327_2200.1" vType="car" speedFactor="0.92" vaporized=""/>
    <tripinfo id="flow_route_108_duration_20250327_2200.0" depart="0.00" departLane="1254519225#0.109_0" departPos="35.33" departSpeed="0.00" departDelay="0.00" arrival="89.00" arrivalLane="135474719#0_0" arrivalPos="75.82" arrivalSpeed="13.41" duration="89.00" routeLength="240.24" waitingTime="51.00" waitingCount="1" stopTime="0.00" timeLoss="74.12" rerouteNo="0" devices="tripinfo_flow_route_108_duration_20250327_2200.0" vType="car" speedFactor="1.08" vaporized=""/>
    <tripinfo id="flow_route_110_duration_20250327_2200.2" depart="40.00" departLane="1254519225#0.109_0" departPos="23.18" departSpeed="0.00" departDelay="0.00" arrival="89.00" arrivalLane="177211987#1_2" arrivalPos="18.19" arrivalSpeed="10.06" duration="49.00" routeLength="182.63" waitingTime="16.00" waitingCount="1" stopTime="0.00" timeLoss="37.23" rerouteNo="0" devices="tripinfo_flow_route_110_duration_20250327_2200.2" vType="car" speedFactor="1.00" vaporized=""/>
    <tripinfo id="flow_route_109_duration_20250327_2200.1" depart="10.00" departLane="1254519225#0.109_0" departPos="9.93" departSpeed="0.00" departDelay="0.00" arrival="90.00" arrivalLane="1328664744#0_0" arrivalPos="66.95" arrivalSpeed="12.61" duration="80.00" routeLength="231.25" waitingTime="42.00" waitingCount="1" stopTime="0.00" timeLoss="63.67" rerouteNo="0" devices="tripinfo_flow_route_109_duration_20250327_2200.1" vType="car" speedFactor="0.93" vaporized=""/>
    <tripinfo id="flow_route_109_duration_20250327_2200.0" depart="0.00" departLane="1254519225#0.109_0" departPos="16.50" departSpeed="0.00" departDelay="0.00" arrival="93.00" arrivalLane="1328664744#0_0" arrivalPos="130.88" arrivalSpeed="15.98" duration="93.00" routeLength="288.61" waitingTime="51.00" waitingCount="1" stopTime="0.00" timeLoss="74.07" rerouteNo="0" devices="tripinfo_flow_route_109_duration_20250327_2200.0" vType="car" speedFactor="1.03" vaporized=""/>
    <tripinfo id="flow_route_108_duration_20250327_2200.1" depart="30.00" departLane="1254519225#0.109_0" departPos="51.50" departSpeed="0.00" departDelay="0.00" arrival="94.00" arrivalLane="135474719#0_2" arrivalPos="94.90" arrivalSpeed="14.98" duration="64.00" routeLength="243.15" waitingTime="27.00" waitingCount="1" stopTime="0.00" timeLoss="49.11" rerouteNo="0" devices="tripinfo_flow_route_108_duration_20250327_2200.1" vType="car" speedFactor="1.02" vaporized=""/>
    <tripinfo id="flow_route_109_duration_20250327_2200.2" depart="20.00" departLane="1254519225#0.109_0" departPos="59.58" departSpeed="0.00" departDelay="0.00" arrival="97.00" arrivalLane="1328664744#0_0" arrivalPos="128.69" arrivalSpeed="14.11" duration="77.00" routeLength="243.34" waitingTime="37.00" waitingCount="1" stopTime="0.00" timeLoss="59.05" rerouteNo="0" devices="tripinfo_flow_route_109_duration_20250327_2200.2" vType="car" speedFactor="0.87" vaporized=""/>
    <tripinfo id="flow_route_109_duration_20250327_2200.3" depart="30.00" departLane="1254519225#0.109_0" departPos="36.50" departSpeed="0.00" departDelay="0.00" arrival="97.00" arrivalLane="1328664744#0_0" arrivalPos="86.47" arrivalSpeed="14.21" duration="67.00" routeLength="224.20" waitingTime="28.00" waitingCount="1" stopTime="0.00" timeLoss="51.35" rerouteNo="0" devices="tripinfo_flow_route_109_duration_20250327_2200.3" vType="car" speedFactor="0.97" vaporized=""/>
    <tripinfo id="flow_route_109_duration_20250327_2200.4" depart="40.00" departLane="1254519225#0.109_0" departPos="55.03" departSpeed="0.00" departDelay="0.00" arrival="103.00" arrivalLane="1328664744#0_0" arrivalPos="158.01" arrivalSpeed="16.22" duration="63.00" routeLength="277.21" waitingTime="23.00" waitingCount="1" stopTime="0.00" timeLoss="44.73" rerouteNo="0" devices="tripinfo_flow_route_109_duration_20250327_2200.4" vType="car" speedFactor="1.09" vaporized=""/>
    <tripinfo id="flow_route_109_duration_20250327_2200.5" depart="50.00" departLane="1254519225#0.109_0" departPos="21.58" departSpeed="0.00" departDelay="0.00" arrival="107.00" arrivalLane="1328664744#0_0" arrivalPos="196.83" arrivalSpeed="16.10" duration="57.00" routeLength="349.48" waitingTime="11.00" waitingCount="1" stopTime="0.00" timeLoss="34.28" rerouteNo="0" devices="tripinfo_flow_route_109_duration_20250327_2200.5" vType="car" speedFactor="1.10" vaporized=""/>
    <tripinfo id="flow_route_114_duration_20250327_2200.0" depart="0.00" departLane="1253188486#4_0" departPos="49.31" departSpeed="0.00" departDelay="0.00" arrival="121.00" arrivalLane="177211987#1_0" arrivalPos="36.23" arrivalSpeed="9.29" duration="121.00" routeLength="153.37" waitingTime="85.00" waitingCount="1" stopTime="0.00" timeLoss="110.22" rerouteNo="0" devices="tripinfo_flow_route_114_duration_20250327_2200.0" vType="car" speedFactor="0.89" vaporized=""/>
    <tripinfo id="flow_route_113_duration_20250327_2200.2" depart="11.00" departLane="1253188486#4_0" departPos="19.82" departSpeed="0.00" departDelay="0.09" arrival="123.00" arrivalLane="1253188486#8_0" arrivalPos="7.32" arrivalSpeed="9.54" duration="112.00" routeLength="186.13" waitingTime="78.00" waitingCount="1" stopTime="0.00" timeLoss="100.76" rerouteNo="0" devices="tripinfo_flow_route_113_duration_20250327_2200.2" vType="car" speedFactor="0.94" vaporized=""/>
    <tripinfo id="flow_route_113_duration_20250327_2200.1" depart="6.00" departLane="1253188486#4_0" departPos="83.37" departSpeed="0.00" departDelay="0.55" arrival="126.00" arrivalLane="1253188486#8_1" arrivalPos="97.30" arrivalSpeed="15.14" duration="120.00" routeLength="212.56" waitingTime="87.00" waitingCount="1" stopTime="0.00" timeLoss="106.39" rerouteNo="0" devices="tripinfo_flow_route_113_duration_20250327_2200.1" vType="car" speedFactor="1.12" vaporized=""/>
    <tripinfo id="flow_route_113_duration_20250327_2200.6" depart="36.00" departLane="1253188486#4_0" departPos="45.38" departSpeed="0.00" departDelay="3.28" arrival="126.00" arrivalLane="1253188486#8_1" arrivalPos="25.69" arrivalSpeed="11.85" duration="90.00" routeLength="178.94" waitingTime="57.00" waitingCount="1" stopTime="0.00" timeLoss="79.05" rerouteNo="0" devices="tripinfo_flow_route_113_duration_20250327_2200.6" vType="car" speedFactor="1.10" vaporized=""/>
    <tripinfo id="flow_route_115_duration_20250327_2200.0" depart="0.00" departLane="1253188486#4_0" departPos="104.70" departSpeed="0.00" departDelay="0.00" arrival="127.00" arrivalLane="1328664744#0_2" arrivalPos="120.97" arrivalSpeed="15.22" duration="127.00" routeLength="201.67" waitingTime="95.00" waitingCount="1" stopTime="0.00" timeLoss="112.76" rerouteNo="0" devices="tripinfo_flow_route_115_duration_20250327_2200.0" vType="car" speedFactor="0.94" vaporized=""/>
    <tripinfo id="flow_route_115_duration_20250327_2200.1" depart="13.00" departLane="1253188486#4_0" departPos="40.45" departSpeed="0.00" departDelay="1.00" arrival="127.00" arrivalLane="1328664744#0_2" arrivalPos="91.26" arrivalSpeed="14.23" duration="114.00" routeLength="236.21" waitingTime="77.00" waitingCount="1" stopTime="0.00" timeLoss="98.88" rerouteNo="0" devices="tripinfo_flow_route_115_duration_20250327_2200.1" vType="car" speedFactor="1.16" vaporized=""/>
    <tripinfo id="flow_route_113_duration_20250327_2200.3" depart="17.00" departLane="1253188486#4_0" departPos="91.32" departSpeed="0.00" departDelay="0.64" arrival="131.00" arrivalLane="1253188486#8_1" arrivalPos="163.92" arrivalSpeed="16.14" duration="114.00" routeLength="271.23" waitingTime="77.00" waitingCount="1" stopTime="0.00" timeLoss="97.45" rerouteNo="0" devices="tripinfo_flow_route_113_duration_20250327_2200.3" vType="car" speedFactor="0.97" vaporized=""/>
    <tripinfo id="flow_route_113_duration_20250327_2200.0" depart="0.00" departLane="1253188486#4_0" departPos="134.10" departSpeed="0.00" departDelay="0.00" arrival="132.00" arrivalLane="1253188486#8_0" arrivalPos="182.35" arrivalSpeed="16.52" duration="132.00" routeLength="246.88" waitingTime="99.00" waitingCount="1" stopTime="0.00" timeLoss="116.47" rerouteNo="0" devices="tripinfo_flow_route_113_duration_20250327_2200.0" vType="car" speedFactor="1.05" vaporized=""/>
    <tripinfo id="flow_route_113_duration_20250327_2200.4" depart="22.00" departLane="1253188486#4_0" departPos="4.26" departSpeed="0.00" departDelay="0.18" arrival="133.00" arrivalLane="1253188486#8_1" arrivalPos="157.42" arrivalSpeed="16.59" duration="111.00" routeLength="351.79" waitingTime="62.00" waitingCount="1" stopTime="0.00" timeLoss="89.74" rerouteNo="0" devices="tripinfo_flow_route_113_duration_20250327_2200.4" vType="car" speedFactor="0.95" vaporized=""/>
    <tripinfo id="flow_route_113_duration_20250327_2200.8" depart="44.00" departLane="1253188486#4_0" departPos="90.23" departSpeed="0.00" departDelay="0.37" arrival="133.00" arrivalLane="1253188486#8_0" arrivalPos="84.53" arrivalSpeed="15.73" duration="89.00" routeLength="192.94" waitingTime="57.00" waitingCount="1" stopTime="0.00" timeLoss="77.05" rerouteNo="0" devices="tripinfo_flow_route_113_duration_20250327_2200.8" vType="car" speedFactor="0.85" vaporized=""/>
    <tripinfo id="flow_route_113_duration_20250327_2200.7" depart="40.00" departLane="1253188486#4_0" departPos="21.62" departSpeed="0.00" departDelay="1.82" arrival="135.00" arrivalLane="1253188486#8_1" arrivalPos="114.41" arrivalSpeed="16.30" duration="95.00" routeLength="291.42" waitingTime="53.00" waitingCount="1" stopTime="0.00" timeLoss="76.96" rerouteNo="0" devices="tripinfo_flow_route_113_duration_20250327_2200.7" vType="car" speedFactor="1.04" vaporized=""/>
    <tripinfo id="flow_route_115_duration_20250327_2200.2" depart="26.00" departLane="1253188486#4_0" departPos="31.73" departSpeed="0.00" departDelay="2.00" arrival="136.00" arrivalLane="1328664744#0_2" arrivalPos="205.90" arrivalSpeed="15.49" duration="110.00" routeLength="359.57" waitingTime="64.00" waitingCount="1" stopTime="0.00" timeLoss="86.23" rerouteNo="0" devices="tripinfo_flow_route_115_duration_20250327_2200.2" vType="car" speedFactor="0.93" vaporized=""/>
    <tripinfo id="flow_route_113_duration_20250327_2200.10" depart="56.00" departLane="1253188486#4_0" departPos="74.66" departSpeed="0.00" departDelay="1.46" arrival="136.00" arrivalLane="1253188486#8_0" arrivalPos="101.05" arrivalSpeed="15.70" duration="80.00" routeLength="225.02" waitingTime="44.00" waitingCount="1" stopTime="0.00" timeLoss="65.98" rerouteNo="0" devices="tripinfo_flow_route_113_duration_20250327_2200.10" vType="car" speedFactor="1.02" vaporized=""/>
    <tripinfo id="flow_route_113_duration_20250327_2200.5" depart="28.00" departLane="1253188486#4_0" departPos="44.42" departSpeed="0.00" departDelay="0.73" arrival="137.00" arrivalLane="1253188486#8_0" arrivalPos="177.11" arrivalSpeed="16.27" duration="109.00" routeLength="331.31" waitingTime="64.00" waitingCount="1" stopTime="0.00" timeLoss="88.76" rerouteNo="0" devices="tripinfo_flow_route_113_duration_20250327_2200.5" vType="car" speedFactor="1.01" vaporized=""/>
    <tripinfo id="flow_route_113_duration_20250327_2200.9" depart="51.00" departLane="1253188486#4_0" departPos="0.13" departSpeed="0.00" departDelay="1.91" arrival="137.00" arrivalLane="1253188486#8_1" arrivalPos="118.42" arrivalSpeed="16.35" duration="86.00" routeLength="316.92" waitingTime="43.00" waitingCount="1" stopTime="0.00" timeLoss="66.23" rerouteNo="0" devices="tripinfo_flow_route_113_duration_20250327_2200.9" vType="car" speedFactor="1.00" vaporized=""/>
    <tripinfo id="flow_route_115_duration_20250327_2200.3" depart="36.00" departLane="1253188486#4_0" departPos="62.96" departSpeed="0.00" departDelay="0.00" arrival="138.00" arrivalLane="1328664744#0_2" arrivalPos="193.86" arrivalSpeed="16.40" duration="102.00" routeLength="316.30" waitingTime="58.00" waitingCount="1" stopTime="0.00" timeLoss="81.36" rerouteNo="0" devices="tripinfo_flow_route_115_duration_20250327_2200.3" vType="car" speedFactor="1.03" vaporized=""/>
    <tripinfo id="flow_route_115_duration_20250327_2200.4" depart="48.00" departLane="1253188486#4_0" departPos="84.12" departSpeed="0.00" departDelay="0.00" arrival="139.00" arrivalLane="1328664744#0_2" arrivalPos="190.03" arrivalSpeed="16.24" duration="91.00" routeLength="291.31" waitingTime="53.00" waitingCount="1" stopTime="0.00" timeLoss="72.62" rerouteNo="0" devices="tripinfo_flow_route_115_duration_20250327_2200.4" vType="car" speedFactor="1.02" vaporized=""/>
    <tripinfo id="flow_route_118_duration_20250327_2200.5" depart="27.00" departLane="134194079#0_0" departPos="13.82" departSpeed="0.00" departDelay="3.93" arrival="156.00" arrivalLane="1328664744#0_1" arrivalPos="14.86" arrivalSpeed="7.88" duration="129.00" routeLength="322.19" waitingTime="87.00" waitingCount="1" stopTime="0.00" timeLoss="109.59" rerouteNo="0" devices="tripinfo_flow_route_118_duration_20250327_2200.5" vType="car" speedFactor="1.18" vaporized=""/>
    <tripinfo id="flow_route_118_duration_20250327_2200.3" depart="15.00" departLane="134194079#0_0" departPos="71.21" departSpeed="0.00" departDelay="1.16" arrival="158.00" arrivalLane="1328664744#0_2" arrivalPos="49.50" arrivalSpeed="10.50" duration="143.00" routeLength="299.44" waitingTime="101.00" waitingCount="1" stopTime="0.00" timeLoss="124.85" rerouteNo="0" devices="tripinfo_flow_route_118_duration_20250327_2200.3" vType="car" speedFactor="1.02" vaporized=""/>
    <tripinfo id="flow_route_118_duration_20250327_2200.6" depart="32.00" departLane="134194079#0_0" departPos="288.18" departSpeed="0.00" departDelay="4.31" arrival="161.00" arrivalLane="1328664744#0_0" arrivalPos="78.06" arrivalSpeed="13.21" duration="129.00" routeLength="111.02" waitingTime="108.00" waitingCount="1" stopTime="0.00" timeLoss="121.78" rerouteNo="0" devices="tripinfo_flow_route_118_duration_20250327_2200.6" vType="car" speedFactor="1.17" vaporized=""/>
    <tripinfo id="flow_route_118_duration_20250327_2200.8" depart="44.00" departLane="134194079#0_0" departPos="195.69" departSpeed="0.00" departDelay="7.08" arrival="162.00" arrivalLane="1328664744#0_2" arrivalPos="76.07" arrivalSpeed="12.60" duration="118.00" routeLength="201.53" waitingTime="84.00" waitingCount="1" stopTime="0.00" timeLoss="105.77" rerouteNo="0" devices="tripinfo_flow_route_118_duration_20250327_2200.8" vType="car" speedFactor="1.09" vaporized=""/>
    <tripinfo id="flow_route_119_duration_20250327_2200.2" depart="8.00" departLane="134194079#0_0" departPos="9.56" departSpeed="0.00" departDelay="0.94" arrival="166.00" arrivalLane="1253188486#8_0" arrivalPos="58.08" arrivalSpeed="12.43" duration="158.00" routeLength="359.46" waitingTime="100.00" waitingCount="1" stopTime="0.00" timeLoss="134.78" rerouteNo="0" devices="tripinfo_flow_route_119_duration_20250327_2200.2" vType="car" speedFactor="0.99" vaporized=""/>
    <tripinfo id="flow_route_119_duration_20250327_2200.6" depart="24.00" departLane="134194079#0_0" departPos="52.80" departSpeed="0.00" departDelay="2.83" arrival="166.00" arrivalLane="1253188486#8_0" arrivalPos="37.25" arrivalSpeed="10.85" duration="142.00" routeLength="295.40" waitingTime="99.00" waitingCount="1" stopTime="0.00" timeLoss="123.26" rerouteNo="0" devices="tripinfo_flow_route_119_duration_20250327_2200.6" vType="car" speedFactor="1.13" vaporized=""/>
    <tripinfo id="flow_route_119_duration_20250327_2200.15" depart="58.00" departLane="134194079#0_0" departPos="248.90" departSpeed="0.00" departDelay="5.07" arrival="167.00" arrivalLane="1253188486#8_0" arrivalPos="2.86" arrivalSpeed="8.14" duration="109.00" routeLength="64.91" waitingTime="93.00" waitingCount="1" stopTime="0.00" timeLoss="104.09" rerouteNo="0" devices="tripinfo_flow_route_119_duration_20250327_2200.15" vType="car" speedFactor="1.14" vaporized=""/>
    <tripinfo id="flow_route_119_duration_20250327_2200.5" depart="19.00" departLane="134194079#0_0" departPos="90.80" departSpeed="0.00" departDelay="1.36" arrival="168.00" arrivalLane="1253188486#8_0" arrivalPos="169.68" arrivalSpeed="16.37" duration="149.00" routeLength="389.83" waitingTime="101.00" waitingCount="1" stopTime="0.00" timeLoss="122.47" rerouteNo="0" devices="tripinfo_flow_route_119_duration_20250327_2200.5" vType="car" speedFactor="0.89" vaporized=""/>
    <tripinfo id="flow_route_118_duration_20250327_2200.12" depart="58.00" departLane="134194079#0_0" departPos="98.19" departSpeed="0.00" departDelay="2.62" arrival="168.00" arrivalLane="1328664744#0_2" arrivalPos="87.29" arrivalSpeed="14.35" duration="110.00" routeLength="310.25" waitingTime="64.00" waitingCount="1" stopTime="0.00" timeLoss="90.17" rerouteNo="0" devices="tripinfo_flow_route_118_duration_20250327_2200.12" vType="car" speedFactor="0.97" vaporized=""/>
    <tripinfo id="flow_route_118_duration_20250327_2200.9" depart="48.00" departLane="134194079#0_0" departPos="189.14" departSpeed="0.00" departDelay="6.47" arrival="169.00" arrivalLane="1328664744#0_1" arrivalPos="149.82" arrivalSpeed="14.94" duration="121.00" routeLength="281.83" waitingTime="80.00" waitingCount="1" stopTime="0.00" timeLoss="101.88" rerouteNo="0" devices="tripinfo_flow_route_118_duration_20250327_2200.9" vType="car" speedFactor="0.90" vaporized=""/>
    <tripinfo id="flow_route_118_duration_20250327_2200.4" depart="19.00" departLane="134194079#0_0" departPos="145.32" departSpeed="0.00" departDelay="0.54" arrival="170.00" arrivalLane="1328664744#0_0" arrivalPos="212.96" arrivalSpeed="13.75" duration="151.00" routeLength="388.79" waitingTime="104.00" waitingCount="1" stopTime="0.00" timeLoss="122.39" rerouteNo="0" devices="tripinfo_flow_route_118_duration_20250327_2200.4" vType="car" speedFactor="0.83" vaporized=""/>
    <tripinfo id="flow_route_118_duration_20250327_2200.10" depart="51.00" departLane="134194079#0_0" departPos="99.97" departSpeed="0.00" departDelay="4.85" arrival="170.00" arrivalLane="1328664744#0_1" arrivalPos="131.49" arrivalSpeed="16.13" duration="119.00" routeLength="352.67" waitingTime="69.00" waitingCount="1" stopTime="0.00" timeLoss="97.08" rerouteNo="0" devices="tripinfo_flow_route_118_duration_20250327_2200.10" vType="car" speedFactor="1.17" vaporized=""/>
    <tripinfo id="flow_route_118_duration_20250327_2200.11" depart="58.00" departLane="134194079#0_0" departPos="136.56" departSpeed="0.00" departDelay="7.24" arrival="170.00" arrivalLane="1328664744#0_1" arrivalPos="104.33" arrivalSpeed="14.58" duration="112.00" routeLength="288.92" waitingTime="65.00" waitingCount="1" stopTime="0.00" timeLoss="92.45" rerouteNo="0" devices="tripinfo_flow_route_118_duration_20250327_2200.11" vType="car" speedFactor="0.90" vaporized=""/>
    <tripinfo id="flow_route_119_duration_20250327_2200.3" depart="11.00" departLane="134194079#0_0" departPos="36.99" departSpeed="0.00" departDelay="0.41" arrival="171.00" arrivalLane="1253188486#8_0" arrivalPos="168.08" arrivalSpeed="16.42" duration="160.00" routeLength="442.04" waitingTime="100.00" waitingCount="1" stopTime="0.00" timeLoss="130.53" rerouteNo="0" devices="tripinfo_flow_route_119_duration_20250327_2200.3" vType="car" speedFactor="0.94" vaporized=""/>
    <tripinfo id="flow_route_118_duration_20250327_2200.7" depart="41.00" departLane="134194079#0_0" departPos="12.57" departSpeed="0.00" departDelay="8.70" arrival="172.00" arrivalLane="1328664744#0_2" arrivalPos="194.24" arrivalSpeed="14.98" duration="131.00" routeLength="502.82" waitingTime="73.00" waitingCount="1" stopTime="0.00" timeLoss="97.19" rerouteNo="0" devices="tripinfo_flow_route_118_duration_20250327_2200.7" vType="car" speedFactor="0.90" vaporized=""/>
    <tripinfo id="flow_route_119_duration_20250327_2200.9" depart="41.00" departLane="134194079#0_0" departPos="141.62" departSpeed="0.00" departDelay="9.24" arrival="178.00" arrivalLane="1253188486#8_0" arrivalPos="89.59" arrivalSpeed="14.24" duration="137.00" routeLength="258.93" waitingTime="88.00" waitingCount="1" stopTime="0.00" timeLoss="120.27" rerouteNo="0" devices="tripinfo_flow_route_119_duration_20250327_2200.9" vType="car" speedFactor="1.18" vaporized=""/>
    <tripinfo id="flow_route_119_duration_20250327_2200.7" depart="27.00" departLane="134194079#0_0" departPos="23.60" departSpeed="0.00" departDelay="2.30" arrival="180.00" arrivalLane="1253188486#8_0" arrivalPos="83.17" arrivalSpeed="13.73" duration="153.00" routeLength="370.52" waitingTime="88.00" waitingCount="1" stopTime="0.00" timeLoss="129.10" rerouteNo="0" devices="tripinfo_flow_route_119_duration_20250327_2200.7" vType="car" speedFactor="1.15" vaporized=""/>
    <tripinfo id="flow_route_119_duration_20250327_2200.11" depart="47.00" departLane="134194079#0_0" departPos="169.15" departSpeed="0.00" departDelay="8.18" arrival="181.00" arrivalLane="1253188486#8_0" arrivalPos="162.37" arrivalSpeed="16.54" duration="134.00" routeLength="304.17" waitingTime="89.00" waitingCount="1" stopTime="0.00" timeLoss="114.32" rerouteNo="0" devices="tripinfo_flow_route_119_duration_20250327_2200.11" vType="car" speedFactor="1.04" vaporized=""/>
    <tripinfo id="flow_route_119_duration_20250327_2200.12" depart="48.00" departLane="134194079#0_0" departPos="242.24" departSpeed="0.00" departDelay="5.65" arrival="181.00" arrivalLane="1253188486#8_0" arrivalPos="207.43" arrivalSpeed="16.13" duration="133.00" routeLength="276.14" waitingTime="95.00" waitingCount="1" stopTime="0.00" timeLoss="114.29" rerouteNo="0" devices="tripinfo_flow_route_119_duration_20250327_2200.12" vType="car" speedFactor="0.88" vaporized=""/>
    <tripinfo id="flow_route_119_duration_20250327_2200.8" depart="32.00" departLane="134194079#0_0" departPos="7.03" departSpeed="0.00" departDelay="3.77" arrival="187.00" arrivalLane="1253188486#8_0" arrivalPos="166.51" arrivalSpeed="16.57" duration="155.00" routeLength="470.42" waitingTime="89.00" waitingCount="1" stopTime="0.00" timeLoss="125.25" rerouteNo="0" devices="tripinfo_flow_route_119_duration_20250327_2200.8" vType="car" speedFactor="0.99" vaporized=""/>
    <tripinfo id="flow_route_119_duration_20250327_2200.10" depart="43.00" departLane="134194079#0_0" departPos="45.30" departSpeed="0.00" departDelay="7.71" arrival="188.00" arrivalLane="1253188486#8_0" arrivalPos="140.74" arrivalSpeed="16.22" duration="145.00" routeLength="406.39" waitingTime="81.00" waitingCount="1" stopTime="0.00" timeLoss="118.28" rerouteNo="0" devices="tripinfo_flow_route_119_duration_20250327_2200.10" vType="car" speedFactor="0.96" vaporized=""/>
    <tripinfo id="flow_route_119_duration_20250327_2200.16" depart="58.00" departLane="134194079#0_0" departPos="61.22" departSpeed="0.00" departDelay="1.54" arrival="196.00" arrivalLane="1253188486#8_0" arrivalPos="229.68" arrivalSpeed="16.20" duration="138.00" routeLength="479.41" waitingTime="78.00" waitingCount="1" stopTime="0.00" timeLoss="107.52" rerouteNo="0" devices="tripinfo_flow_route_119_duration_20250327_2200.16" vType="car" speedFactor="1.08" vaporized=""/>
    <tripinfo id="flow_route_119_duration_20250327_2200.14" depart="55.00" departLane="134194079#0_0" departPos="33.73" departSpeed="0.00" departDelay="5.59" arrival="197.00" arrivalLane="1253188486#8_0" arrivalPos="221.63" arrivalSpeed="16.24" duration="142.00" routeLength="498.85" waitingTime="78.00" waitingCount="1" stopTime="0.00" timeLoss="110.76" rerouteNo="0" devices="tripinfo_flow_route_119_duration_20250327_2200.14" vType="car" speedFactor="1.00" vaporized=""/>
    <tripinfo id="flow_route_119_duration_20250327_2200.13" depart="49.00" departLane="134194079#0_0" departPos="4.31" departSpeed="0.00" departDelay="3.12" arrival="308.00" arrivalLane="1253188486#8_0" arrivalPos="93.10" arrivalSpeed="12.60" duration="259.00" routeLength="399.73" waitingTime="186.00" waitingCount="2" stopTime="0.00" timeLoss="229.97" rerouteNo="0" devices="tripinfo_flow_route_119_duration_20250327_2200.13" vType="car" speedFactor="0.85" vaporized=""/>
</tripinfos>
