<?xml version="1.0" encoding="UTF-8"?>

<!-- generated on 2025-05-06 21:08:22 by Eclipse SUMO sumo Version 1.20.0
<configuration xmlns:xsi="http://www.w3.org/2001/XMLSchema-instance" xsi:noNamespaceSchemaLocation="http://sumo.dlr.de/xsd/sumoConfiguration.xsd">

    <input>
        <net-file value="osm.net.xml"/>
        <route-files value="xml/route_rl_cluster_11648561428_407729599_4.rou.xml"/>
    </input>

    <output>
        <tripinfo-output value="xml/tripinfo_rl_cluster_11648561428_407729599_4.xml"/>
    </output>

    <traci_server>
        <remote-port value="50641"/>
    </traci_server>

</configuration>
-->

<tripinfos xmlns:xsi="http://www.w3.org/2001/XMLSchema-instance" xsi:noNamespaceSchemaLocation="http://sumo.dlr.de/xsd/tripinfo_file.xsd">
    <tripinfo id="flow_route_107_duration_20250327_2100.0" depart="0.00" departLane="1254519229#0_0" departPos="43.39" departSpeed="0.00" departDelay="0.00" arrival="20.00" arrivalLane="1342963997_0" arrivalPos="88.24" arrivalSpeed="14.94" duration="20.00" routeLength="145.44" waitingTime="0.00" waitingCount="0" stopTime="0.00" timeLoss="10.80" rerouteNo="0" devices="tripinfo_flow_route_107_duration_20250327_2100.0" vType="car" speedFactor="1.08" vaporized=""/>
    <tripinfo id="flow_route_106_duration_20250327_2100.1" depart="7.00" departLane="1254519229#0_0" departPos="53.55" departSpeed="0.00" departDelay="0.33" arrival="26.00" arrivalLane="430416184_1" arrivalPos="1.75" arrivalSpeed="5.02" duration="19.00" routeLength="48.87" waitingTime="2.00" waitingCount="1" stopTime="0.00" timeLoss="14.66" rerouteNo="0" devices="tripinfo_flow_route_106_duration_20250327_2100.1" vType="car" speedFactor="0.83" vaporized=""/>
    <tripinfo id="flow_route_101_duration_20250327_2100.0" depart="0.00" departLane="186409193_0" departPos="43.42" departSpeed="0.00" departDelay="0.00" arrival="34.00" arrivalLane="430416184_0" arrivalPos="206.05" arrivalSpeed="16.57" duration="34.00" routeLength="297.12" waitingTime="0.00" waitingCount="0" stopTime="0.00" timeLoss="14.82" rerouteNo="0" devices="tripinfo_flow_route_101_duration_20250327_2100.0" vType="car" speedFactor="0.94" vaporized=""/>
    <tripinfo id="flow_route_107_duration_20250327_2100.1" depart="15.00" departLane="1254519229#0_0" departPos="54.39" departSpeed="0.00" departDelay="0.00" arrival="38.00" arrivalLane="1342963997_0" arrivalPos="157.22" arrivalSpeed="16.58" duration="23.00" routeLength="203.41" waitingTime="0.00" waitingCount="0" stopTime="0.00" timeLoss="10.59" rerouteNo="0" devices="tripinfo_flow_route_107_duration_20250327_2100.1" vType="car" speedFactor="0.86" vaporized=""/>
    <tripinfo id="flow_route_101_duration_20250327_2100.1" depart="10.00" departLane="186409193_0" departPos="26.41" departSpeed="0.00" departDelay="0.00" arrival="41.00" arrivalLane="430416184_0" arrivalPos="134.81" arrivalSpeed="15.21" duration="31.00" routeLength="242.90" waitingTime="0.00" waitingCount="0" stopTime="0.00" timeLoss="14.97" rerouteNo="0" devices="tripinfo_flow_route_101_duration_20250327_2100.1" vType="car" speedFactor="1.05" vaporized=""/>
    <tripinfo id="flow_route_106_duration_20250327_2100.0" depart="0.00" departLane="1254519229#0_0" departPos="19.69" departSpeed="0.00" departDelay="0.00" arrival="42.00" arrivalLane="430416184_1" arrivalPos="13.15" arrivalSpeed="6.25" duration="42.00" routeLength="94.14" waitingTime="9.00" waitingCount="2" stopTime="0.00" timeLoss="35.65" rerouteNo="0" devices="tripinfo_flow_route_106_duration_20250327_2100.0" vType="car" speedFactor="1.01" vaporized=""/>
    <tripinfo id="flow_route_100_duration_20250327_2100.1" depart="15.00" departLane="186409193_0" departPos="18.81" departSpeed="0.00" departDelay="0.00" arrival="42.00" arrivalLane="1254519229#0_1" arrivalPos="4.79" arrivalSpeed="4.68" duration="27.00" routeLength="217.61" waitingTime="0.00" waitingCount="0" stopTime="0.00" timeLoss="12.33" rerouteNo="0" devices="tripinfo_flow_route_100_duration_20250327_2100.1" vType="car" speedFactor="0.94" vaporized=""/>
    <tripinfo id="flow_route_107_duration_20250327_2100.2" depart="31.00" departLane="1254519229#0_0" departPos="76.12" departSpeed="0.00" departDelay="1.00" arrival="48.00" arrivalLane="1342963997_0" arrivalPos="97.74" arrivalSpeed="13.81" duration="17.00" routeLength="122.20" waitingTime="0.00" waitingCount="0" stopTime="0.00" timeLoss="9.59" rerouteNo="0" devices="tripinfo_flow_route_107_duration_20250327_2100.2" vType="car" speedFactor="0.93" vaporized=""/>
    <tripinfo id="flow_route_106_duration_20250327_2100.5" depart="34.00" departLane="1254519229#0_0" departPos="54.51" departSpeed="0.00" departDelay="0.67" arrival="52.00" arrivalLane="430416184_1" arrivalPos="8.62" arrivalSpeed="8.81" duration="18.00" routeLength="54.79" waitingTime="1.00" waitingCount="1" stopTime="0.00" timeLoss="13.82" rerouteNo="0" devices="tripinfo_flow_route_106_duration_20250327_2100.5" vType="car" speedFactor="0.94" vaporized=""/>
    <tripinfo id="flow_route_100_duration_20250327_2100.0" depart="0.00" departLane="186409193_0" departPos="2.55" departSpeed="0.00" departDelay="0.00" arrival="55.00" arrivalLane="1254519229#0_1" arrivalPos="70.90" arrivalSpeed="2.78" duration="55.00" routeLength="299.97" waitingTime="9.00" waitingCount="3" stopTime="0.00" timeLoss="36.24" rerouteNo="0" devices="tripinfo_flow_route_100_duration_20250327_2100.0" vType="car" speedFactor="1.06" vaporized=""/>
    <tripinfo id="flow_route_106_duration_20250327_2100.3" depart="20.00" departLane="1254519229#0_0" departPos="50.41" departSpeed="0.00" departDelay="0.00" arrival="56.00" arrivalLane="430416184_1" arrivalPos="148.34" arrivalSpeed="15.88" duration="36.00" routeLength="198.62" waitingTime="5.00" waitingCount="1" stopTime="0.00" timeLoss="23.34" rerouteNo="0" devices="tripinfo_flow_route_106_duration_20250327_2100.3" vType="car" speedFactor="1.03" vaporized=""/>
    <tripinfo id="flow_route_106_duration_20250327_2100.2" depart="14.00" departLane="1254519229#0_0" departPos="21.05" departSpeed="0.00" departDelay="0.67" arrival="60.00" arrivalLane="430416184_1" arrivalPos="163.76" arrivalSpeed="16.55" duration="46.00" routeLength="243.39" waitingTime="4.00" waitingCount="1" stopTime="0.00" timeLoss="29.75" rerouteNo="0" devices="tripinfo_flow_route_106_duration_20250327_2100.2" vType="car" speedFactor="0.89" vaporized=""/>
    <tripinfo id="flow_route_107_duration_20250327_2100.3" depart="45.00" departLane="1254519229#0_0" departPos="13.36" departSpeed="0.00" departDelay="0.00" arrival="63.00" arrivalLane="1342963997_0" arrivalPos="47.42" arrivalSpeed="13.98" duration="18.00" routeLength="134.63" waitingTime="0.00" waitingCount="0" stopTime="0.00" timeLoss="9.87" rerouteNo="0" devices="tripinfo_flow_route_107_duration_20250327_2100.3" vType="car" speedFactor="1.01" vaporized=""/>
    <tripinfo id="flow_route_106_duration_20250327_2100.7" depart="47.00" departLane="1254519229#0_0" departPos="64.59" departSpeed="0.00" departDelay="0.34" arrival="63.00" arrivalLane="430416184_1" arrivalPos="69.81" arrivalSpeed="12.46" duration="16.00" routeLength="105.90" waitingTime="0.00" waitingCount="0" stopTime="0.00" timeLoss="8.80" rerouteNo="0" devices="tripinfo_flow_route_106_duration_20250327_2100.7" vType="car" speedFactor="0.97" vaporized=""/>
    <tripinfo id="flow_route_106_duration_20250327_2100.6" depart="40.00" departLane="1254519229#0_0" departPos="32.73" departSpeed="0.00" departDelay="0.00" arrival="68.00" arrivalLane="430416184_1" arrivalPos="37.41" arrivalSpeed="10.49" duration="28.00" routeLength="105.36" waitingTime="1.00" waitingCount="1" stopTime="0.00" timeLoss="21.03" rerouteNo="0" devices="tripinfo_flow_route_106_duration_20250327_2100.6" vType="car" speedFactor="1.16" vaporized=""/>
    <tripinfo id="flow_route_106_duration_20250327_2100.4" depart="27.00" departLane="1254519229#0_0" departPos="65.59" departSpeed="0.00" departDelay="0.34" arrival="69.00" arrivalLane="430416184_1" arrivalPos="271.56" arrivalSpeed="16.10" duration="42.00" routeLength="306.65" waitingTime="10.00" waitingCount="1" stopTime="0.00" timeLoss="22.25" rerouteNo="0" devices="tripinfo_flow_route_106_duration_20250327_2100.4" vType="car" speedFactor="1.05" vaporized=""/>
    <tripinfo id="flow_route_106_duration_20250327_2100.8" depart="54.00" departLane="1254519229#0_0" departPos="24.49" departSpeed="0.00" departDelay="0.67" arrival="88.00" arrivalLane="430416184_1" arrivalPos="270.41" arrivalSpeed="16.32" duration="34.00" routeLength="346.60" waitingTime="0.00" waitingCount="0" stopTime="0.00" timeLoss="10.99" rerouteNo="0" devices="tripinfo_flow_route_106_duration_20250327_2100.8" vType="car" speedFactor="0.83" vaporized=""/>
    <tripinfo id="flow_route_149_duration_20250327_2100.1" depart="30.00" departLane="186410975#0_0" departPos="41.07" departSpeed="0.00" departDelay="0.00" arrival="92.00" arrivalLane="430416184_1" arrivalPos="68.46" arrivalSpeed="11.86" duration="62.00" routeLength="573.06" waitingTime="0.00" waitingCount="0" stopTime="0.00" timeLoss="14.61" rerouteNo="0" devices="tripinfo_flow_route_149_duration_20250327_2100.1" vType="car" speedFactor="0.88" vaporized=""/>
    <tripinfo id="flow_route_149_duration_20250327_2100.0" depart="0.00" departLane="186410975#0_0" departPos="192.32" departSpeed="0.00" departDelay="0.00" arrival="97.00" arrivalLane="430416184_1" arrivalPos="170.61" arrivalSpeed="16.18" duration="97.00" routeLength="523.96" waitingTime="40.00" waitingCount="1" stopTime="0.00" timeLoss="61.31" rerouteNo="0" devices="tripinfo_flow_route_149_duration_20250327_2100.0" vType="car" speedFactor="1.03" vaporized=""/>
    <tripinfo id="flow_route_101_duration_20250327_2100.2" depart="20.00" departLane="186409193_0" departPos="17.94" departSpeed="0.00" departDelay="0.00" arrival="119.00" arrivalLane="430416184_0" arrivalPos="13.36" arrivalSpeed="5.50" duration="99.00" routeLength="129.92" waitingTime="73.00" waitingCount="1" stopTime="0.00" timeLoss="90.43" rerouteNo="0" devices="tripinfo_flow_route_101_duration_20250327_2100.2" vType="car" speedFactor="1.09" vaporized=""/>
    <tripinfo id="flow_route_101_duration_20250327_2100.5" depart="55.00" departLane="186409193_0" departPos="28.78" departSpeed="0.00" departDelay="5.00" arrival="129.00" arrivalLane="430416184_0" arrivalPos="25.74" arrivalSpeed="8.61" duration="74.00" routeLength="131.47" waitingTime="44.00" waitingCount="1" stopTime="0.00" timeLoss="63.64" rerouteNo="0" devices="tripinfo_flow_route_101_duration_20250327_2100.5" vType="car" speedFactor="0.89" vaporized=""/>
    <tripinfo id="flow_route_101_duration_20250327_2100.3" depart="30.00" departLane="186409193_0" departPos="17.63" departSpeed="0.00" departDelay="0.00" arrival="132.00" arrivalLane="430416184_0" arrivalPos="114.69" arrivalSpeed="13.85" duration="102.00" routeLength="231.56" waitingTime="64.00" waitingCount="1" stopTime="0.00" timeLoss="86.18" rerouteNo="0" devices="tripinfo_flow_route_101_duration_20250327_2100.3" vType="car" speedFactor="0.99" vaporized=""/>
    <tripinfo id="flow_route_101_duration_20250327_2100.4" depart="40.00" departLane="186409193_0" departPos="7.32" departSpeed="0.00" departDelay="0.00" arrival="132.00" arrivalLane="430416184_0" arrivalPos="95.81" arrivalSpeed="12.45" duration="92.00" routeLength="222.99" waitingTime="49.00" waitingCount="1" stopTime="0.00" timeLoss="76.99" rerouteNo="0" devices="tripinfo_flow_route_101_duration_20250327_2100.4" vType="car" speedFactor="0.94" vaporized=""/>
    <tripinfo id="flow_route_100_duration_20250327_2100.2" depart="30.00" departLane="186409193_0" departPos="1.89" departSpeed="0.00" departDelay="0.00" arrival="147.00" arrivalLane="1254519229#0_1" arrivalPos="70.63" arrivalSpeed="10.72" duration="117.00" routeLength="300.35" waitingTime="66.00" waitingCount="2" stopTime="0.00" timeLoss="97.74" rerouteNo="0" devices="tripinfo_flow_route_100_duration_20250327_2100.2" vType="car" speedFactor="1.12" vaporized=""/>
    <tripinfo id="flow_route_100_duration_20250327_2100.3" depart="46.00" departLane="186409193_0" departPos="33.39" departSpeed="0.00" departDelay="1.00" arrival="150.00" arrivalLane="1254519229#0_1" arrivalPos="76.75" arrivalSpeed="10.93" duration="104.00" routeLength="274.98" waitingTime="53.00" waitingCount="2" stopTime="0.00" timeLoss="86.67" rerouteNo="0" devices="tripinfo_flow_route_100_duration_20250327_2100.3" vType="car" speedFactor="1.02" vaporized=""/>
</tripinfos>
