<?xml version="1.0" encoding="UTF-8"?>

<!-- generated on 2025-05-06 21:08:44 by Eclipse SUMO sumo Version 1.20.0
<configuration xmlns:xsi="http://www.w3.org/2001/XMLSchema-instance" xsi:noNamespaceSchemaLocation="http://sumo.dlr.de/xsd/sumoConfiguration.xsd">

    <input>
        <net-file value="osm.net.xml"/>
        <route-files value="xml/route_rl_cluster_2271368471_4779869278_6.rou.xml"/>
    </input>

    <output>
        <tripinfo-output value="xml/tripinfo_rl_cluster_2271368471_4779869278_6.xml"/>
    </output>

    <traci_server>
        <remote-port value="57173"/>
    </traci_server>

</configuration>
-->

<tripinfos xmlns:xsi="http://www.w3.org/2001/XMLSchema-instance" xsi:noNamespaceSchemaLocation="http://sumo.dlr.de/xsd/tripinfo_file.xsd">
    <tripinfo id="flow_route_36_duration_20250327_2300.0" depart="0.00" departLane="485211947#0_0" departPos="162.24" departSpeed="0.00" departDelay="0.00" arrival="23.00" arrivalLane="137415945#0_0" arrivalPos="6.94" arrivalSpeed="15.19" duration="23.00" routeLength="189.23" waitingTime="0.00" waitingCount="0" stopTime="0.00" timeLoss="10.24" rerouteNo="0" devices="tripinfo_flow_route_36_duration_20250327_2300.0" vType="car" speedFactor="0.94" vaporized=""/>
    <tripinfo id="flow_route_35_duration_20250327_2300.1" depart="15.00" departLane="485211947#0_0" departPos="141.65" departSpeed="0.00" departDelay="0.00" arrival="29.00" arrivalLane="1369578054_0" arrivalPos="9.71" arrivalSpeed="8.37" duration="14.00" routeLength="65.52" waitingTime="0.00" waitingCount="0" stopTime="0.00" timeLoss="8.85" rerouteNo="0" devices="tripinfo_flow_route_35_duration_20250327_2300.1" vType="car" speedFactor="1.03" vaporized=""/>
    <tripinfo id="flow_route_37_duration_20250327_2300.0" depart="0.00" departLane="485211947#0_0" departPos="59.66" departSpeed="0.00" departDelay="0.00" arrival="33.00" arrivalLane="-430406005#1_1" arrivalPos="133.07" arrivalSpeed="16.05" duration="33.00" routeLength="286.39" waitingTime="0.00" waitingCount="0" stopTime="0.00" timeLoss="12.84" rerouteNo="0" devices="tripinfo_flow_route_37_duration_20250327_2300.0" vType="car" speedFactor="0.86" vaporized=""/>
    <tripinfo id="flow_route_35_duration_20250327_2300.0" depart="0.00" departLane="485211947#0_0" departPos="11.17" departSpeed="0.00" departDelay="0.00" arrival="38.00" arrivalLane="1369578054_0" arrivalPos="74.16" arrivalSpeed="12.87" duration="38.00" routeLength="260.46" waitingTime="0.00" waitingCount="0" stopTime="0.00" timeLoss="19.34" rerouteNo="0" devices="tripinfo_flow_route_35_duration_20250327_2300.0" vType="car" speedFactor="0.89" vaporized=""/>
    <tripinfo id="flow_route_36_duration_20250327_2300.1" depart="15.00" departLane="485211947#0_0" departPos="29.48" departSpeed="0.00" departDelay="0.00" arrival="45.00" arrivalLane="137415945#0_0" arrivalPos="3.84" arrivalSpeed="16.35" duration="30.00" routeLength="318.89" waitingTime="0.00" waitingCount="0" stopTime="0.00" timeLoss="10.76" rerouteNo="0" devices="tripinfo_flow_route_36_duration_20250327_2300.1" vType="car" speedFactor="1.05" vaporized=""/>
    <tripinfo id="flow_route_30_duration_20250327_2300.0" depart="0.00" departLane="1235147073.116_0" departPos="7.14" departSpeed="0.00" departDelay="0.00" arrival="47.00" arrivalLane="133126030#0_0" arrivalPos="8.43" arrivalSpeed="7.43" duration="47.00" routeLength="175.81" waitingTime="17.00" waitingCount="1" stopTime="0.00" timeLoss="36.02" rerouteNo="0" devices="tripinfo_flow_route_30_duration_20250327_2300.0" vType="car" speedFactor="1.01" vaporized=""/>
    <tripinfo id="flow_route_31_duration_20250327_2300.0" depart="2.00" departLane="1235147073.116_0" departPos="0.71" departSpeed="0.00" departDelay="2.00" arrival="55.00" arrivalLane="-430406005#1_0" arrivalPos="87.77" arrivalSpeed="12.43" duration="53.00" routeLength="250.02" waitingTime="16.00" waitingCount="1" stopTime="0.00" timeLoss="37.18" rerouteNo="0" devices="tripinfo_flow_route_31_duration_20250327_2300.0" vType="car" speedFactor="1.08" vaporized=""/>
    <tripinfo id="flow_route_30_duration_20250327_2300.1" depart="30.00" departLane="1235147073.116_0" departPos="3.70" departSpeed="0.00" departDelay="0.00" arrival="56.00" arrivalLane="133126030#0_1" arrivalPos="48.93" arrivalSpeed="15.22" duration="26.00" routeLength="219.75" waitingTime="0.00" waitingCount="0" stopTime="0.00" timeLoss="11.75" rerouteNo="0" devices="tripinfo_flow_route_30_duration_20250327_2300.1" vType="car" speedFactor="0.94" vaporized=""/>
    <tripinfo id="flow_route_31_duration_20250327_2300.1" depart="30.00" departLane="1235147073.116_0" departPos="12.43" departSpeed="0.00" departDelay="0.00" arrival="57.00" arrivalLane="-430406005#1_0" arrivalPos="39.85" arrivalSpeed="11.28" duration="27.00" routeLength="190.38" waitingTime="0.00" waitingCount="0" stopTime="0.00" timeLoss="13.37" rerouteNo="0" devices="tripinfo_flow_route_31_duration_20250327_2300.1" vType="car" speedFactor="0.94" vaporized=""/>
    <tripinfo id="flow_route_32_duration_20250327_2300.0" depart="8.00" departLane="1235147073.116_0" departPos="6.07" departSpeed="0.00" departDelay="8.00" arrival="61.00" arrivalLane="1369578054_1" arrivalPos="176.77" arrivalSpeed="16.56" duration="53.00" routeLength="350.43" waitingTime="8.00" waitingCount="1" stopTime="0.00" timeLoss="30.32" rerouteNo="0" devices="tripinfo_flow_route_32_duration_20250327_2300.0" vType="car" speedFactor="1.03" vaporized=""/>
    <tripinfo id="flow_route_32_duration_20250327_2300.2" depart="24.00" departLane="1235147073.116_0" departPos="14.77" departSpeed="0.00" departDelay="0.00" arrival="61.00" arrivalLane="1369578054_1" arrivalPos="123.26" arrivalSpeed="14.28" duration="37.00" routeLength="288.22" waitingTime="0.00" waitingCount="0" stopTime="0.00" timeLoss="16.23" rerouteNo="0" devices="tripinfo_flow_route_32_duration_20250327_2300.2" vType="car" speedFactor="0.88" vaporized=""/>
    <tripinfo id="flow_route_32_duration_20250327_2300.1" depart="12.00" departLane="1235147073.116_0" departPos="3.62" departSpeed="0.00" departDelay="0.00" arrival="62.00" arrivalLane="1369578054_1" arrivalPos="163.10" arrivalSpeed="16.18" duration="50.00" routeLength="339.20" waitingTime="4.00" waitingCount="1" stopTime="0.00" timeLoss="28.50" rerouteNo="0" devices="tripinfo_flow_route_32_duration_20250327_2300.1" vType="car" speedFactor="1.09" vaporized=""/>
    <tripinfo id="flow_route_32_duration_20250327_2300.4" depart="48.00" departLane="1235147073.116_0" departPos="2.74" departSpeed="0.00" departDelay="0.00" arrival="75.00" arrivalLane="1369578054_1" arrivalPos="20.07" arrivalSpeed="9.84" duration="27.00" routeLength="197.06" waitingTime="0.00" waitingCount="0" stopTime="0.00" timeLoss="13.59" rerouteNo="0" devices="tripinfo_flow_route_32_duration_20250327_2300.4" vType="car" speedFactor="0.95" vaporized=""/>
    <tripinfo id="flow_route_32_duration_20250327_2300.3" depart="38.00" departLane="1235147073.116_0" departPos="4.71" departSpeed="0.00" departDelay="2.00" arrival="77.00" arrivalLane="1369578054_1" arrivalPos="207.23" arrivalSpeed="16.36" duration="39.00" routeLength="382.25" waitingTime="0.00" waitingCount="0" stopTime="0.00" timeLoss="15.02" rerouteNo="0" devices="tripinfo_flow_route_32_duration_20250327_2300.3" vType="car" speedFactor="1.01" vaporized=""/>
    <tripinfo id="flow_route_33_duration_20250327_2300.0" depart="0.00" departLane="133126008#0_0" departPos="101.07" departSpeed="0.00" departDelay="0.00" arrival="84.00" arrivalLane="1369578054_0" arrivalPos="13.07" arrivalSpeed="8.48" duration="84.00" routeLength="125.36" waitingTime="57.00" waitingCount="1" stopTime="0.00" timeLoss="76.01" rerouteNo="0" devices="tripinfo_flow_route_33_duration_20250327_2300.0" vType="car" speedFactor="0.83" vaporized=""/>
    <tripinfo id="flow_route_34_duration_20250327_2300.1" depart="20.00" departLane="133126008#0_0" departPos="23.09" departSpeed="0.00" departDelay="0.00" arrival="84.00" arrivalLane="133126030#0_0" arrivalPos="5.53" arrivalSpeed="6.61" duration="64.00" routeLength="169.95" waitingTime="34.00" waitingCount="1" stopTime="0.00" timeLoss="53.13" rerouteNo="0" devices="tripinfo_flow_route_34_duration_20250327_2300.1" vType="car" speedFactor="0.99" vaporized=""/>
    <tripinfo id="flow_route_29_duration_20250327_2300.0" depart="0.00" departLane="-422986370#2_0" departPos="201.60" departSpeed="0.00" departDelay="0.00" arrival="93.00" arrivalLane="137415945#0_0" arrivalPos="9.07" arrivalSpeed="14.46" duration="93.00" routeLength="253.29" waitingTime="55.00" waitingCount="1" stopTime="0.00" timeLoss="75.84" rerouteNo="0" devices="tripinfo_flow_route_29_duration_20250327_2300.0" vType="car" speedFactor="0.94" vaporized=""/>
    <tripinfo id="flow_route_34_duration_20250327_2300.0" depart="0.00" departLane="133126008#0_0" departPos="47.21" departSpeed="0.00" departDelay="0.00" arrival="94.00" arrivalLane="133126030#0_0" arrivalPos="137.72" arrivalSpeed="14.53" duration="94.00" routeLength="278.03" waitingTime="54.00" waitingCount="1" stopTime="0.00" timeLoss="76.12" rerouteNo="0" devices="tripinfo_flow_route_34_duration_20250327_2300.0" vType="car" speedFactor="1.05" vaporized=""/>
    <tripinfo id="flow_route_28_duration_20250327_2300.0" depart="0.00" departLane="-422986370#2_0" departPos="1.81" departSpeed="0.00" departDelay="0.00" arrival="97.00" arrivalLane="-430406005#1_1" arrivalPos="159.13" arrivalSpeed="16.53" duration="97.00" routeLength="491.75" waitingTime="43.00" waitingCount="1" stopTime="0.00" timeLoss="66.48" rerouteNo="0" devices="tripinfo_flow_route_28_duration_20250327_2300.0" vType="car" speedFactor="1.06" vaporized=""/>
    <tripinfo id="flow_route_33_duration_20250327_2300.2" depart="41.00" departLane="133126008#0_0" departPos="114.52" departSpeed="0.00" departDelay="1.00" arrival="97.00" arrivalLane="1369578054_1" arrivalPos="147.59" arrivalSpeed="16.23" duration="56.00" routeLength="246.43" waitingTime="19.00" waitingCount="1" stopTime="0.00" timeLoss="40.13" rerouteNo="0" devices="tripinfo_flow_route_33_duration_20250327_2300.2" vType="car" speedFactor="0.97" vaporized=""/>
    <tripinfo id="flow_route_34_duration_20250327_2300.2" depart="41.00" departLane="133126008#0_0" departPos="27.10" departSpeed="0.00" departDelay="1.00" arrival="97.00" arrivalLane="133126030#0_0" arrivalPos="107.48" arrivalSpeed="12.89" duration="56.00" routeLength="267.90" waitingTime="14.00" waitingCount="1" stopTime="0.00" timeLoss="37.70" rerouteNo="0" devices="tripinfo_flow_route_34_duration_20250327_2300.2" vType="car" speedFactor="0.89" vaporized=""/>
    <tripinfo id="flow_route_33_duration_20250327_2300.1" depart="20.00" departLane="133126008#0_0" departPos="59.13" departSpeed="0.00" departDelay="0.00" arrival="103.00" arrivalLane="1369578054_0" arrivalPos="286.63" arrivalSpeed="16.33" duration="83.00" routeLength="440.86" waitingTime="35.00" waitingCount="1" stopTime="0.00" timeLoss="56.25" rerouteNo="0" devices="tripinfo_flow_route_33_duration_20250327_2300.1" vType="car" speedFactor="1.12" vaporized=""/>
    <tripinfo id="flow_route_35_duration_20250327_2300.3" depart="45.00" departLane="485211947#0_0" departPos="101.31" departSpeed="0.00" departDelay="0.00" arrival="122.00" arrivalLane="1369578054_0" arrivalPos="8.34" arrivalSpeed="7.48" duration="77.00" routeLength="104.49" waitingTime="52.00" waitingCount="1" stopTime="0.00" timeLoss="68.88" rerouteNo="0" devices="tripinfo_flow_route_35_duration_20250327_2300.3" vType="car" speedFactor="0.87" vaporized=""/>
    <tripinfo id="flow_route_37_duration_20250327_2300.2" depart="40.00" departLane="485211947#0_0" departPos="33.97" departSpeed="0.00" departDelay="0.00" arrival="124.00" arrivalLane="-430406005#1_1" arrivalPos="30.07" arrivalSpeed="10.32" duration="84.00" routeLength="209.08" waitingTime="50.00" waitingCount="1" stopTime="0.00" timeLoss="67.65" rerouteNo="0" devices="tripinfo_flow_route_37_duration_20250327_2300.2" vType="car" speedFactor="0.83" vaporized=""/>
    <tripinfo id="flow_route_35_duration_20250327_2300.2" depart="30.00" departLane="485211947#0_0" departPos="16.50" departSpeed="0.00" departDelay="0.00" arrival="125.00" arrivalLane="1369578054_0" arrivalPos="50.33" arrivalSpeed="10.75" duration="95.00" routeLength="231.29" waitingTime="58.00" waitingCount="1" stopTime="0.00" timeLoss="80.06" rerouteNo="0" devices="tripinfo_flow_route_35_duration_20250327_2300.2" vType="car" speedFactor="1.16" vaporized=""/>
    <tripinfo id="flow_route_37_duration_20250327_2300.1" depart="20.00" departLane="485211947#0_0" departPos="23.23" departSpeed="0.00" departDelay="0.00" arrival="130.00" arrivalLane="-430406005#1_1" arrivalPos="122.35" arrivalSpeed="14.75" duration="110.00" routeLength="312.09" waitingTime="69.00" waitingCount="1" stopTime="0.00" timeLoss="88.81" rerouteNo="0" devices="tripinfo_flow_route_37_duration_20250327_2300.1" vType="car" speedFactor="0.93" vaporized=""/>
    <tripinfo id="flow_route_36_duration_20250327_2300.2" depart="32.00" departLane="485211947#0_0" departPos="110.47" departSpeed="0.00" departDelay="2.00" arrival="131.00" arrivalLane="137415945#0_0" arrivalPos="7.28" arrivalSpeed="16.01" duration="99.00" routeLength="241.33" waitingTime="63.00" waitingCount="1" stopTime="0.00" timeLoss="83.93" rerouteNo="0" devices="tripinfo_flow_route_36_duration_20250327_2300.2" vType="car" speedFactor="1.02" vaporized=""/>
    <tripinfo id="flow_route_36_duration_20250327_2300.3" depart="45.00" departLane="485211947#0_0" departPos="171.97" departSpeed="0.00" departDelay="0.00" arrival="131.00" arrivalLane="137415945#0_1" arrivalPos="3.55" arrivalSpeed="14.97" duration="86.00" routeLength="176.11" waitingTime="59.00" waitingCount="1" stopTime="0.00" timeLoss="74.49" rerouteNo="0" devices="tripinfo_flow_route_36_duration_20250327_2300.3" vType="car" speedFactor="0.92" vaporized=""/>
</tripinfos>
