<?xml version="1.0" encoding="UTF-8"?>

<!-- generated on 2025-05-06 21:08:43 by Eclipse SUMO sumo Version 1.20.0
<configuration xmlns:xsi="http://www.w3.org/2001/XMLSchema-instance" xsi:noNamespaceSchemaLocation="http://sumo.dlr.de/xsd/sumoConfiguration.xsd">

    <input>
        <net-file value="osm.net.xml"/>
        <route-files value="xml/route_rl_cluster_11648561428_407729599_6.rou.xml"/>
    </input>

    <output>
        <tripinfo-output value="xml/tripinfo_rl_cluster_11648561428_407729599_6.xml"/>
    </output>

    <traci_server>
        <remote-port value="60375"/>
    </traci_server>

</configuration>
-->

<tripinfos xmlns:xsi="http://www.w3.org/2001/XMLSchema-instance" xsi:noNamespaceSchemaLocation="http://sumo.dlr.de/xsd/tripinfo_file.xsd">
    <tripinfo id="flow_route_107_duration_20250327_2030.0" depart="0.00" departLane="1254519229#0_0" departPos="43.39" departSpeed="0.00" departDelay="0.00" arrival="20.00" arrivalLane="1342963997_0" arrivalPos="88.24" arrivalSpeed="14.94" duration="20.00" routeLength="145.44" waitingTime="0.00" waitingCount="0" stopTime="0.00" timeLoss="10.80" rerouteNo="0" devices="tripinfo_flow_route_107_duration_20250327_2030.0" vType="car" speedFactor="1.08" vaporized=""/>
    <tripinfo id="flow_route_106_duration_20250327_2030.1" depart="7.00" departLane="1254519229#0_0" departPos="53.55" departSpeed="0.00" departDelay="0.33" arrival="26.00" arrivalLane="430416184_1" arrivalPos="1.75" arrivalSpeed="5.02" duration="19.00" routeLength="48.87" waitingTime="2.00" waitingCount="1" stopTime="0.00" timeLoss="14.66" rerouteNo="0" devices="tripinfo_flow_route_106_duration_20250327_2030.1" vType="car" speedFactor="0.83" vaporized=""/>
    <tripinfo id="flow_route_106_duration_20250327_2030.0" depart="0.00" departLane="1254519229#0_0" departPos="19.69" departSpeed="0.00" departDelay="0.00" arrival="30.00" arrivalLane="430416184_1" arrivalPos="13.15" arrivalSpeed="6.94" duration="30.00" routeLength="94.14" waitingTime="2.00" waitingCount="1" stopTime="0.00" timeLoss="23.76" rerouteNo="0" devices="tripinfo_flow_route_106_duration_20250327_2030.0" vType="car" speedFactor="1.01" vaporized=""/>
    <tripinfo id="flow_route_101_duration_20250327_2030.0" depart="0.00" departLane="186409193_0" departPos="43.42" departSpeed="0.00" departDelay="0.00" arrival="34.00" arrivalLane="430416184_0" arrivalPos="206.05" arrivalSpeed="16.21" duration="34.00" routeLength="297.12" waitingTime="0.00" waitingCount="0" stopTime="0.00" timeLoss="14.79" rerouteNo="0" devices="tripinfo_flow_route_101_duration_20250327_2030.0" vType="car" speedFactor="0.94" vaporized=""/>
    <tripinfo id="flow_route_106_duration_20250327_2030.2" depart="14.00" departLane="1254519229#0_0" departPos="69.67" departSpeed="0.00" departDelay="0.67" arrival="38.00" arrivalLane="430416184_1" arrivalPos="17.43" arrivalSpeed="7.80" duration="24.00" routeLength="48.44" waitingTime="8.00" waitingCount="2" stopTime="0.00" timeLoss="20.07" rerouteNo="0" devices="tripinfo_flow_route_106_duration_20250327_2030.2" vType="car" speedFactor="0.94" vaporized=""/>
    <tripinfo id="flow_route_107_duration_20250327_2030.1" depart="9.00" departLane="1254519229#0_0" departPos="45.06" departSpeed="0.00" departDelay="0.43" arrival="39.00" arrivalLane="1342963997_0" arrivalPos="83.70" arrivalSpeed="13.17" duration="30.00" routeLength="139.23" waitingTime="0.00" waitingCount="0" stopTime="0.00" timeLoss="21.31" rerouteNo="0" devices="tripinfo_flow_route_107_duration_20250327_2030.1" vType="car" speedFactor="1.05" vaporized=""/>
    <tripinfo id="flow_route_100_duration_20250327_2030.0" depart="0.00" departLane="186409193_0" departPos="2.55" departSpeed="0.00" departDelay="0.00" arrival="45.00" arrivalLane="1254519229#0_1" arrivalPos="70.90" arrivalSpeed="3.25" duration="45.00" routeLength="299.97" waitingTime="1.00" waitingCount="1" stopTime="0.00" timeLoss="26.19" rerouteNo="0" devices="tripinfo_flow_route_100_duration_20250327_2030.0" vType="car" speedFactor="1.06" vaporized=""/>
    <tripinfo id="flow_route_101_duration_20250327_2030.1" depart="20.00" departLane="186409193_0" departPos="54.86" departSpeed="0.00" departDelay="0.00" arrival="45.00" arrivalLane="430416184_0" arrivalPos="88.80" arrivalSpeed="12.69" duration="25.00" routeLength="168.44" waitingTime="0.00" waitingCount="0" stopTime="0.00" timeLoss="13.30" rerouteNo="0" devices="tripinfo_flow_route_101_duration_20250327_2030.1" vType="car" speedFactor="1.03" vaporized=""/>
    <tripinfo id="flow_route_107_duration_20250327_2030.2" depart="18.00" departLane="1254519229#0_0" departPos="3.68" departSpeed="0.00" departDelay="0.86" arrival="47.00" arrivalLane="1342963997_0" arrivalPos="57.81" arrivalSpeed="11.94" duration="29.00" routeLength="154.72" waitingTime="0.00" waitingCount="0" stopTime="0.00" timeLoss="19.05" rerouteNo="0" devices="tripinfo_flow_route_107_duration_20250327_2030.2" vType="car" speedFactor="0.86" vaporized=""/>
    <tripinfo id="flow_route_107_duration_20250327_2030.4" depart="35.00" departLane="1254519229#0_0" departPos="26.36" departSpeed="0.00" departDelay="0.72" arrival="49.00" arrivalLane="1342963997_0" arrivalPos="5.35" arrivalSpeed="10.92" duration="14.00" routeLength="79.57" waitingTime="0.00" waitingCount="0" stopTime="0.00" timeLoss="8.99" rerouteNo="0" devices="tripinfo_flow_route_107_duration_20250327_2030.4" vType="car" speedFactor="0.94" vaporized=""/>
    <tripinfo id="flow_route_106_duration_20250327_2030.4" depart="27.00" departLane="1254519229#0_0" departPos="60.83" departSpeed="0.00" departDelay="0.34" arrival="50.00" arrivalLane="430416184_1" arrivalPos="9.37" arrivalSpeed="6.99" duration="23.00" routeLength="49.22" waitingTime="4.00" waitingCount="2" stopTime="0.00" timeLoss="19.07" rerouteNo="0" devices="tripinfo_flow_route_106_duration_20250327_2030.4" vType="car" speedFactor="0.93" vaporized=""/>
    <tripinfo id="flow_route_106_duration_20250327_2030.5" depart="34.00" departLane="1254519229#0_0" departPos="76.12" departSpeed="0.00" departDelay="0.67" arrival="52.00" arrivalLane="430416184_1" arrivalPos="46.01" arrivalSpeed="10.71" duration="18.00" routeLength="70.58" waitingTime="1.00" waitingCount="1" stopTime="0.00" timeLoss="12.42" rerouteNo="0" devices="tripinfo_flow_route_106_duration_20250327_2030.5" vType="car" speedFactor="0.88" vaporized=""/>
    <tripinfo id="flow_route_106_duration_20250327_2030.3" depart="20.00" departLane="1254519229#0_0" departPos="65.59" departSpeed="0.00" departDelay="0.00" arrival="53.00" arrivalLane="430416184_1" arrivalPos="183.20" arrivalSpeed="16.11" duration="33.00" routeLength="218.28" waitingTime="3.00" waitingCount="1" stopTime="0.00" timeLoss="18.94" rerouteNo="0" devices="tripinfo_flow_route_106_duration_20250327_2030.3" vType="car" speedFactor="1.05" vaporized=""/>
    <tripinfo id="flow_route_107_duration_20250327_2030.3" depart="27.00" departLane="1254519229#0_0" departPos="24.01" departSpeed="0.00" departDelay="1.29" arrival="57.00" arrivalLane="1342963997_0" arrivalPos="159.38" arrivalSpeed="16.57" duration="30.00" routeLength="235.95" waitingTime="0.00" waitingCount="0" stopTime="0.00" timeLoss="15.18" rerouteNo="0" devices="tripinfo_flow_route_107_duration_20250327_2030.3" vType="car" speedFactor="1.12" vaporized=""/>
    <tripinfo id="flow_route_107_duration_20250327_2030.5" depart="43.00" departLane="1254519229#0_0" departPos="45.48" departSpeed="0.00" departDelay="0.15" arrival="59.00" arrivalLane="1342963997_0" arrivalPos="40.07" arrivalSpeed="11.95" duration="16.00" routeLength="95.16" waitingTime="0.00" waitingCount="0" stopTime="0.00" timeLoss="10.07" rerouteNo="0" devices="tripinfo_flow_route_107_duration_20250327_2030.5" vType="car" speedFactor="1.01" vaporized=""/>
    <tripinfo id="flow_route_106_duration_20250327_2030.6" depart="40.00" departLane="1254519229#0_0" departPos="21.01" departSpeed="0.00" departDelay="0.00" arrival="65.00" arrivalLane="430416184_1" arrivalPos="118.96" arrivalSpeed="15.82" duration="25.00" routeLength="198.62" waitingTime="0.00" waitingCount="0" stopTime="0.00" timeLoss="12.28" rerouteNo="0" devices="tripinfo_flow_route_106_duration_20250327_2030.6" vType="car" speedFactor="1.02" vaporized=""/>
    <tripinfo id="flow_route_107_duration_20250327_2030.6" depart="53.00" departLane="1254519229#0_0" departPos="39.19" departSpeed="0.00" departDelay="1.57" arrival="75.00" arrivalLane="1342963997_0" arrivalPos="124.19" arrivalSpeed="15.89" duration="22.00" routeLength="185.57" waitingTime="0.00" waitingCount="0" stopTime="0.00" timeLoss="10.81" rerouteNo="0" devices="tripinfo_flow_route_107_duration_20250327_2030.6" vType="car" speedFactor="0.83" vaporized=""/>
    <tripinfo id="flow_route_106_duration_20250327_2030.7" depart="48.00" departLane="1254519229#0_0" departPos="47.44" departSpeed="0.00" departDelay="1.34" arrival="77.00" arrivalLane="430416184_1" arrivalPos="193.22" arrivalSpeed="16.24" duration="29.00" routeLength="246.45" waitingTime="0.00" waitingCount="0" stopTime="0.00" timeLoss="12.69" rerouteNo="0" devices="tripinfo_flow_route_106_duration_20250327_2030.7" vType="car" speedFactor="0.89" vaporized=""/>
    <tripinfo id="flow_route_106_duration_20250327_2030.8" depart="54.00" departLane="1254519229#0_0" departPos="13.40" departSpeed="0.00" departDelay="0.67" arrival="86.00" arrivalLane="430416184_1" arrivalPos="167.75" arrivalSpeed="16.50" duration="32.00" routeLength="255.03" waitingTime="0.00" waitingCount="0" stopTime="0.00" timeLoss="14.61" rerouteNo="0" devices="tripinfo_flow_route_106_duration_20250327_2030.8" vType="car" speedFactor="0.92" vaporized=""/>
    <tripinfo id="flow_route_149_duration_20250327_2030.0" depart="0.00" departLane="186410975#0_0" departPos="192.32" departSpeed="0.00" departDelay="0.00" arrival="99.00" arrivalLane="430416184_1" arrivalPos="170.61" arrivalSpeed="16.44" duration="99.00" routeLength="523.96" waitingTime="41.00" waitingCount="1" stopTime="0.00" timeLoss="62.78" rerouteNo="0" devices="tripinfo_flow_route_149_duration_20250327_2030.0" vType="car" speedFactor="1.03" vaporized=""/>
    <tripinfo id="flow_route_149_duration_20250327_2030.1" depart="9.00" departLane="186410975#0_0" departPos="68.27" departSpeed="0.00" departDelay="0.43" arrival="99.00" arrivalLane="430416184_1" arrivalPos="130.75" arrivalSpeed="15.25" duration="90.00" routeLength="608.14" waitingTime="16.00" waitingCount="1" stopTime="0.00" timeLoss="42.00" rerouteNo="0" devices="tripinfo_flow_route_149_duration_20250327_2030.1" vType="car" speedFactor="0.89" vaporized=""/>
    <tripinfo id="flow_route_149_duration_20250327_2030.3" depart="26.00" departLane="186410975#0_0" departPos="61.10" departSpeed="0.00" departDelay="0.29" arrival="100.00" arrivalLane="430416184_1" arrivalPos="114.69" arrivalSpeed="15.69" duration="74.00" routeLength="599.26" waitingTime="7.00" waitingCount="1" stopTime="0.00" timeLoss="28.83" rerouteNo="0" devices="tripinfo_flow_route_149_duration_20250327_2030.3" vType="car" speedFactor="0.99" vaporized=""/>
    <tripinfo id="flow_route_149_duration_20250327_2030.2" depart="18.00" departLane="186410975#0_0" departPos="132.40" departSpeed="0.00" departDelay="0.86" arrival="102.00" arrivalLane="430416184_1" arrivalPos="197.69" arrivalSpeed="16.13" duration="84.00" routeLength="610.96" waitingTime="19.00" waitingCount="1" stopTime="0.00" timeLoss="42.22" rerouteNo="0" devices="tripinfo_flow_route_149_duration_20250327_2030.2" vType="car" speedFactor="1.09" vaporized=""/>
    <tripinfo id="flow_route_149_duration_20250327_2030.5" depart="45.00" departLane="186410975#0_0" departPos="22.98" departSpeed="0.00" departDelay="2.15" arrival="105.00" arrivalLane="430416184_1" arrivalPos="48.57" arrivalSpeed="16.18" duration="60.00" routeLength="571.26" waitingTime="0.00" waitingCount="0" stopTime="0.00" timeLoss="15.48" rerouteNo="0" devices="tripinfo_flow_route_149_duration_20250327_2030.5" vType="car" speedFactor="0.97" vaporized=""/>
    <tripinfo id="flow_route_149_duration_20250327_2030.4" depart="35.00" departLane="186410975#0_0" departPos="33.39" departSpeed="0.00" departDelay="0.72" arrival="107.00" arrivalLane="430416184_1" arrivalPos="198.12" arrivalSpeed="16.30" duration="72.00" routeLength="710.39" waitingTime="0.00" waitingCount="0" stopTime="0.00" timeLoss="17.58" rerouteNo="0" devices="tripinfo_flow_route_149_duration_20250327_2030.4" vType="car" speedFactor="0.94" vaporized=""/>
    <tripinfo id="flow_route_149_duration_20250327_2030.6" depart="52.00" departLane="186410975#0_0" departPos="79.44" departSpeed="0.00" departDelay="0.57" arrival="117.00" arrivalLane="430416184_1" arrivalPos="270.41" arrivalSpeed="16.28" duration="65.00" routeLength="736.64" waitingTime="0.00" waitingCount="0" stopTime="0.00" timeLoss="9.17" rerouteNo="0" devices="tripinfo_flow_route_149_duration_20250327_2030.6" vType="car" speedFactor="0.87" vaporized=""/>
    <tripinfo id="flow_route_101_duration_20250327_2030.2" depart="40.00" departLane="186409193_0" departPos="56.35" departSpeed="0.00" departDelay="0.00" arrival="124.00" arrivalLane="430416184_0" arrivalPos="36.26" arrivalSpeed="7.94" duration="84.00" routeLength="114.41" waitingTime="58.00" waitingCount="1" stopTime="0.00" timeLoss="76.06" rerouteNo="0" devices="tripinfo_flow_route_101_duration_20250327_2030.2" vType="car" speedFactor="1.16" vaporized=""/>
</tripinfos>
