<?xml version="1.0" encoding="UTF-8"?>

<!-- generated on 2025-05-06 21:09:16 by Eclipse SUMO sumo Version 1.20.0
<configuration xmlns:xsi="http://www.w3.org/2001/XMLSchema-instance" xsi:noNamespaceSchemaLocation="http://sumo.dlr.de/xsd/sumoConfiguration.xsd">

    <input>
        <net-file value="osm.net.xml"/>
        <route-files value="xml/route_static_cluster_11657899598_353811979_6712514804_9.rou.xml"/>
    </input>

    <output>
        <tripinfo-output value="xml/tripinfo_static_cluster_11657899598_353811979_6712514804_9.xml"/>
    </output>

    <traci_server>
        <remote-port value="45669"/>
    </traci_server>

</configuration>
-->

<tripinfos xmlns:xsi="http://www.w3.org/2001/XMLSchema-instance" xsi:noNamespaceSchemaLocation="http://sumo.dlr.de/xsd/tripinfo_file.xsd">
    <tripinfo id="flow_route_136_duration_20250327_2040.0" depart="0.00" departLane="688883939#0_0" departPos="70.95" departSpeed="0.00" departDelay="0.00" arrival="22.00" arrivalLane="186410975#0_1" arrivalPos="11.74" arrivalSpeed="11.21" duration="22.00" routeLength="133.80" waitingTime="1.00" waitingCount="1" stopTime="0.00" timeLoss="11.77" rerouteNo="0" devices="tripinfo_flow_route_136_duration_20250327_2040.0" vType="car" speedFactor="1.01" vaporized=""/>
    <tripinfo id="flow_route_137_duration_20250327_2040.0" depart="0.00" departLane="1310781056_0" departPos="52.86" departSpeed="0.00" departDelay="0.00" arrival="22.00" arrivalLane="714011134#0_0" arrivalPos="51.79" arrivalSpeed="16.36" duration="22.00" routeLength="192.73" waitingTime="0.00" waitingCount="0" stopTime="0.00" timeLoss="9.84" rerouteNo="0" devices="tripinfo_flow_route_137_duration_20250327_2040.0" vType="car" speedFactor="1.08" vaporized=""/>
    <tripinfo id="flow_route_134_duration_20250327_2040.0" depart="0.00" departLane="688883939#0_0" departPos="78.56" departSpeed="0.00" departDelay="0.00" arrival="28.00" arrivalLane="809719540#0_0" arrivalPos="239.32" arrivalSpeed="16.14" duration="28.00" routeLength="300.42" waitingTime="0.00" waitingCount="0" stopTime="0.00" timeLoss="9.69" rerouteNo="0" devices="tripinfo_flow_route_134_duration_20250327_2040.0" vType="car" speedFactor="1.06" vaporized=""/>
    <tripinfo id="flow_route_139_duration_20250327_2040.0" depart="1.00" departLane="1310781056_0" departPos="36.51" departSpeed="0.00" departDelay="1.00" arrival="28.00" arrivalLane="1254157399#1_1" arrivalPos="26.95" arrivalSpeed="9.83" duration="27.00" routeLength="180.27" waitingTime="0.00" waitingCount="0" stopTime="0.00" timeLoss="13.81" rerouteNo="0" devices="tripinfo_flow_route_139_duration_20250327_2040.0" vType="car" speedFactor="0.83" vaporized=""/>
    <tripinfo id="flow_route_138_duration_20250327_2040.0" depart="1.00" departLane="1310781056_0" departPos="99.29" departSpeed="0.00" departDelay="1.00" arrival="35.00" arrivalLane="186410975#0_0" arrivalPos="152.27" arrivalSpeed="11.40" duration="34.00" routeLength="305.80" waitingTime="0.00" waitingCount="0" stopTime="0.00" timeLoss="11.06" rerouteNo="0" devices="tripinfo_flow_route_138_duration_20250327_2040.0" vType="car" speedFactor="1.03" vaporized=""/>
    <tripinfo id="flow_route_136_duration_20250327_2040.1" depart="12.00" departLane="688883939#0_0" departPos="31.81" departSpeed="0.00" departDelay="0.00" arrival="40.00" arrivalLane="186410975#0_1" arrivalPos="61.10" arrivalSpeed="12.17" duration="28.00" routeLength="222.30" waitingTime="0.00" waitingCount="0" stopTime="0.00" timeLoss="11.80" rerouteNo="0" devices="tripinfo_flow_route_136_duration_20250327_2040.1" vType="car" speedFactor="1.12" vaporized=""/>
    <tripinfo id="flow_route_135_duration_20250327_2040.0" depart="0.00" departLane="688883939#0_0" departPos="0.64" departSpeed="0.00" departDelay="0.00" arrival="45.00" arrivalLane="1254157399#1_0" arrivalPos="440.36" arrivalSpeed="16.22" duration="45.00" routeLength="573.44" waitingTime="0.00" waitingCount="0" stopTime="0.00" timeLoss="9.46" rerouteNo="0" devices="tripinfo_flow_route_135_duration_20250327_2040.0" vType="car" speedFactor="0.94" vaporized=""/>
    <tripinfo id="flow_route_152_duration_20250327_2040.0" depart="0.00" departLane="31861355#0_0" departPos="164.48" departSpeed="0.00" departDelay="0.00" arrival="54.00" arrivalLane="714011134#0_1" arrivalPos="26.08" arrivalSpeed="10.69" duration="54.00" routeLength="522.49" waitingTime="0.00" waitingCount="0" stopTime="0.00" timeLoss="18.24" rerouteNo="0" devices="tripinfo_flow_route_152_duration_20250327_2040.0" vType="car" speedFactor="0.89" vaporized=""/>
    <tripinfo id="flow_route_151_duration_20250327_2040.3" depart="12.00" departLane="31861355#0_0" departPos="475.38" departSpeed="0.00" departDelay="0.75" arrival="54.00" arrivalLane="186410975#0_1" arrivalPos="8.37" arrivalSpeed="10.70" duration="42.00" routeLength="260.20" waitingTime="0.00" waitingCount="0" stopTime="0.00" timeLoss="25.86" rerouteNo="0" devices="tripinfo_flow_route_151_duration_20250327_2040.3" vType="car" speedFactor="0.99" vaporized=""/>
    <tripinfo id="flow_route_152_duration_20250327_2040.3" depart="26.00" departLane="31861355#0_0" departPos="581.43" departSpeed="0.00" departDelay="0.29" arrival="55.00" arrivalLane="714011134#0_1" arrivalPos="62.84" arrivalSpeed="13.20" duration="29.00" routeLength="142.29" waitingTime="0.00" waitingCount="0" stopTime="0.00" timeLoss="18.05" rerouteNo="0" devices="tripinfo_flow_route_152_duration_20250327_2040.3" vType="car" speedFactor="0.83" vaporized=""/>
    <tripinfo id="flow_route_152_duration_20250327_2040.2" depart="18.00" departLane="31861355#0_0" departPos="255.78" departSpeed="0.00" departDelay="0.86" arrival="56.00" arrivalLane="714011134#0_1" arrivalPos="13.63" arrivalSpeed="11.66" duration="38.00" routeLength="418.74" waitingTime="0.00" waitingCount="0" stopTime="0.00" timeLoss="11.13" rerouteNo="0" devices="tripinfo_flow_route_152_duration_20250327_2040.2" vType="car" speedFactor="0.94" vaporized=""/>
    <tripinfo id="flow_route_139_duration_20250327_2040.1" depart="10.00" departLane="1310781056_0" departPos="61.73" departSpeed="0.00" departDelay="1.43" arrival="57.00" arrivalLane="1254157399#1_0" arrivalPos="391.52" arrivalSpeed="16.40" duration="47.00" routeLength="519.63" waitingTime="0.00" waitingCount="0" stopTime="0.00" timeLoss="13.89" rerouteNo="0" devices="tripinfo_flow_route_139_duration_20250327_2040.1" vType="car" speedFactor="1.03" vaporized=""/>
    <tripinfo id="flow_route_151_duration_20250327_2040.6" depart="23.00" departLane="31861355#0_0" departPos="504.72" departSpeed="0.00" departDelay="0.50" arrival="59.00" arrivalLane="186410975#0_0" arrivalPos="62.30" arrivalSpeed="11.15" duration="36.00" routeLength="284.79" waitingTime="0.00" waitingCount="0" stopTime="0.00" timeLoss="16.09" rerouteNo="0" devices="tripinfo_flow_route_151_duration_20250327_2040.6" vType="car" speedFactor="1.01" vaporized=""/>
    <tripinfo id="flow_route_152_duration_20250327_2040.1" depart="9.00" departLane="31861355#0_0" departPos="246.60" departSpeed="0.00" departDelay="0.43" arrival="61.00" arrivalLane="714011134#0_1" arrivalPos="98.97" arrivalSpeed="15.00" duration="52.00" routeLength="513.25" waitingTime="0.00" waitingCount="0" stopTime="0.00" timeLoss="20.78" rerouteNo="0" devices="tripinfo_flow_route_152_duration_20250327_2040.1" vType="car" speedFactor="1.05" vaporized=""/>
    <tripinfo id="flow_route_151_duration_20250327_2040.2" depart="9.00" departLane="31861355#0_0" departPos="512.56" departSpeed="0.00" departDelay="1.50" arrival="62.00" arrivalLane="186410975#0_0" arrivalPos="132.40" arrivalSpeed="11.73" duration="53.00" routeLength="347.05" waitingTime="7.00" waitingCount="1" stopTime="0.00" timeLoss="28.88" rerouteNo="0" devices="tripinfo_flow_route_151_duration_20250327_2040.2" vType="car" speedFactor="1.09" vaporized=""/>
    <tripinfo id="flow_route_151_duration_20250327_2040.0" depart="0.00" departLane="31861355#0_0" departPos="352.12" departSpeed="0.00" departDelay="0.00" arrival="67.00" arrivalLane="186410975#0_0" arrivalPos="191.84" arrivalSpeed="11.60" duration="67.00" routeLength="566.94" waitingTime="5.00" waitingCount="1" stopTime="0.00" timeLoss="27.43" rerouteNo="0" devices="tripinfo_flow_route_151_duration_20250327_2040.0" vType="car" speedFactor="1.05" vaporized=""/>
    <tripinfo id="flow_route_151_duration_20250327_2040.8" depart="31.00" departLane="31861355#0_0" departPos="398.98" departSpeed="0.00" departDelay="1.00" arrival="67.00" arrivalLane="186410975#0_0" arrivalPos="43.47" arrivalSpeed="9.96" duration="36.00" routeLength="371.70" waitingTime="0.00" waitingCount="0" stopTime="0.00" timeLoss="10.28" rerouteNo="0" devices="tripinfo_flow_route_151_duration_20250327_2040.8" vType="car" speedFactor="0.92" vaporized=""/>
    <tripinfo id="flow_route_153_duration_20250327_2040.1" depart="15.00" departLane="31861355#0_0" departPos="425.98" departSpeed="0.00" departDelay="0.00" arrival="68.00" arrivalLane="809719540#0_0" arrivalPos="256.94" arrivalSpeed="14.54" duration="53.00" routeLength="462.07" waitingTime="0.00" waitingCount="0" stopTime="0.00" timeLoss="19.56" rerouteNo="0" devices="tripinfo_flow_route_153_duration_20250327_2040.1" vType="car" speedFactor="0.88" vaporized=""/>
    <tripinfo id="flow_route_153_duration_20250327_2040.0" depart="0.00" departLane="31861355#0_0" departPos="37.47" departSpeed="0.00" departDelay="0.00" arrival="76.00" arrivalLane="809719540#0_0" arrivalPos="146.46" arrivalSpeed="15.52" duration="76.00" routeLength="740.10" waitingTime="0.00" waitingCount="0" stopTime="0.00" timeLoss="27.71" rerouteNo="0" devices="tripinfo_flow_route_153_duration_20250327_2040.0" vType="car" speedFactor="0.94" vaporized=""/>
    <tripinfo id="flow_route_136_duration_20250327_2040.2" depart="24.00" departLane="688883939#0_0" departPos="70.44" departSpeed="0.00" departDelay="0.00" arrival="80.00" arrivalLane="186410975#0_1" arrivalPos="22.98" arrivalSpeed="10.40" duration="56.00" routeLength="145.56" waitingTime="29.00" waitingCount="1" stopTime="0.00" timeLoss="44.86" rerouteNo="0" devices="tripinfo_flow_route_136_duration_20250327_2040.2" vType="car" speedFactor="0.97" vaporized=""/>
    <tripinfo id="flow_route_151_duration_20250327_2040.1" depart="4.00" departLane="31861355#0_0" departPos="28.73" departSpeed="0.00" departDelay="0.25" arrival="83.00" arrivalLane="186410975#0_1" arrivalPos="176.45" arrivalSpeed="9.38" duration="79.00" routeLength="874.93" waitingTime="0.00" waitingCount="0" stopTime="0.00" timeLoss="11.69" rerouteNo="0" devices="tripinfo_flow_route_151_duration_20250327_2040.1" vType="car" speedFactor="0.86" vaporized=""/>
    <tripinfo id="flow_route_138_duration_20250327_2040.2" depart="40.00" departLane="1310781056_0" departPos="81.86" departSpeed="0.00" departDelay="0.00" arrival="83.00" arrivalLane="186410975#0_0" arrivalPos="20.65" arrivalSpeed="11.88" duration="43.00" routeLength="191.61" waitingTime="8.00" waitingCount="1" stopTime="0.00" timeLoss="30.42" rerouteNo="0" devices="tripinfo_flow_route_138_duration_20250327_2040.2" vType="car" speedFactor="1.17" vaporized=""/>
    <tripinfo id="flow_route_138_duration_20250327_2040.1" depart="21.00" departLane="1310781056_0" departPos="64.82" departSpeed="0.00" departDelay="1.00" arrival="84.00" arrivalLane="186410975#0_0" arrivalPos="57.59" arrivalSpeed="11.08" duration="63.00" routeLength="245.59" waitingTime="25.00" waitingCount="1" stopTime="0.00" timeLoss="46.15" rerouteNo="0" devices="tripinfo_flow_route_138_duration_20250327_2040.1" vType="car" speedFactor="1.02" vaporized=""/>
    <tripinfo id="flow_route_139_duration_20250327_2040.2" depart="18.00" departLane="1310781056_0" departPos="14.22" departSpeed="0.00" departDelay="0.86" arrival="89.00" arrivalLane="1254157399#1_0" arrivalPos="204.76" arrivalSpeed="16.24" duration="71.00" routeLength="380.38" waitingTime="24.00" waitingCount="1" stopTime="0.00" timeLoss="46.26" rerouteNo="0" devices="tripinfo_flow_route_139_duration_20250327_2040.2" vType="car" speedFactor="0.94" vaporized=""/>
    <tripinfo id="flow_route_151_duration_20250327_2040.5" depart="19.00" departLane="31861355#0_0" departPos="164.20" departSpeed="0.00" departDelay="0.25" arrival="90.00" arrivalLane="186410975#0_1" arrivalPos="248.96" arrivalSpeed="12.58" duration="71.00" routeLength="811.97" waitingTime="0.00" waitingCount="0" stopTime="0.00" timeLoss="17.64" rerouteNo="0" devices="tripinfo_flow_route_151_duration_20250327_2040.5" vType="car" speedFactor="1.16" vaporized=""/>
    <tripinfo id="flow_route_151_duration_20250327_2040.7" depart="28.00" departLane="31861355#0_0" departPos="360.69" departSpeed="0.00" departDelay="1.75" arrival="92.00" arrivalLane="186410975#0_0" arrivalPos="247.77" arrivalSpeed="9.34" duration="64.00" routeLength="614.29" waitingTime="0.00" waitingCount="0" stopTime="0.00" timeLoss="13.00" rerouteNo="0" devices="tripinfo_flow_route_151_duration_20250327_2040.7" vType="car" speedFactor="0.87" vaporized=""/>
    <tripinfo id="flow_route_136_duration_20250327_2040.3" depart="36.00" departLane="688883939#0_0" departPos="9.07" departSpeed="0.00" departDelay="0.00" arrival="93.00" arrivalLane="186410975#0_1" arrivalPos="81.01" arrivalSpeed="9.56" duration="57.00" routeLength="264.96" waitingTime="14.00" waitingCount="2" stopTime="0.00" timeLoss="38.42" rerouteNo="0" devices="tripinfo_flow_route_136_duration_20250327_2040.3" vType="car" speedFactor="1.15" vaporized=""/>
    <tripinfo id="flow_route_136_duration_20250327_2040.4" depart="48.00" departLane="688883939#0_0" departPos="102.99" departSpeed="0.00" departDelay="0.00" arrival="93.00" arrivalLane="186410975#0_1" arrivalPos="94.26" arrivalSpeed="9.96" duration="45.00" routeLength="184.29" waitingTime="17.00" waitingCount="1" stopTime="0.00" timeLoss="27.49" rerouteNo="0" devices="tripinfo_flow_route_136_duration_20250327_2040.4" vType="car" speedFactor="0.90" vaporized=""/>
    <tripinfo id="flow_route_139_duration_20250327_2040.5" depart="43.00" departLane="1310781056_0" departPos="47.99" departSpeed="0.00" departDelay="0.15" arrival="94.00" arrivalLane="1254157399#1_1" arrivalPos="131.25" arrivalSpeed="15.83" duration="51.00" routeLength="273.09" waitingTime="3.00" waitingCount="1" stopTime="0.00" timeLoss="32.83" rerouteNo="0" devices="tripinfo_flow_route_139_duration_20250327_2040.5" vType="car" speedFactor="1.02" vaporized=""/>
    <tripinfo id="flow_route_139_duration_20250327_2040.4" depart="35.00" departLane="1310781056_0" departPos="20.30" departSpeed="0.00" departDelay="0.72" arrival="101.00" arrivalLane="1254157399#1_0" arrivalPos="337.93" arrivalSpeed="16.49" duration="66.00" routeLength="507.46" waitingTime="9.00" waitingCount="1" stopTime="0.00" timeLoss="33.21" rerouteNo="0" devices="tripinfo_flow_route_139_duration_20250327_2040.4" vType="car" speedFactor="0.93" vaporized=""/>
    <tripinfo id="flow_route_139_duration_20250327_2040.3" depart="27.00" departLane="1310781056_0" departPos="34.90" departSpeed="0.00" departDelay="1.29" arrival="105.00" arrivalLane="1254157399#1_0" arrivalPos="442.25" arrivalSpeed="16.45" duration="78.00" routeLength="597.18" waitingTime="17.00" waitingCount="1" stopTime="0.00" timeLoss="39.53" rerouteNo="0" devices="tripinfo_flow_route_139_duration_20250327_2040.3" vType="car" speedFactor="0.89" vaporized=""/>
    <tripinfo id="flow_route_139_duration_20250327_2040.6" depart="52.00" departLane="1310781056_0" departPos="104.88" departSpeed="0.00" departDelay="0.57" arrival="117.00" arrivalLane="1254157399#1_0" arrivalPos="541.13" arrivalSpeed="16.13" duration="65.00" routeLength="626.07" waitingTime="5.00" waitingCount="1" stopTime="0.00" timeLoss="25.64" rerouteNo="0" devices="tripinfo_flow_route_139_duration_20250327_2040.6" vType="car" speedFactor="0.96" vaporized=""/>
    <tripinfo id="flow_route_152_duration_20250327_2040.4" depart="37.00" departLane="31861355#0_0" departPos="352.66" departSpeed="0.00" departDelay="2.72" arrival="118.00" arrivalLane="714011134#0_1" arrivalPos="97.81" arrivalSpeed="14.78" duration="81.00" routeLength="406.04" waitingTime="33.00" waitingCount="1" stopTime="0.00" timeLoss="55.66" rerouteNo="0" devices="tripinfo_flow_route_152_duration_20250327_2040.4" vType="car" speedFactor="1.18" vaporized=""/>
    <tripinfo id="flow_route_151_duration_20250327_2040.4" depart="15.00" departLane="31861355#0_0" departPos="18.54" departSpeed="0.00" departDelay="0.00" arrival="119.00" arrivalLane="186410975#0_0" arrivalPos="41.07" arrivalSpeed="10.29" duration="104.00" routeLength="749.73" waitingTime="29.00" waitingCount="1" stopTime="0.00" timeLoss="54.03" rerouteNo="0" devices="tripinfo_flow_route_151_duration_20250327_2040.4" vType="car" speedFactor="0.93" vaporized=""/>
    <tripinfo id="flow_route_152_duration_20250327_2040.5" depart="44.00" departLane="31861355#0_0" departPos="242.35" departSpeed="0.00" departDelay="1.15" arrival="120.00" arrivalLane="714011134#0_1" arrivalPos="71.53" arrivalSpeed="13.52" duration="76.00" routeLength="490.06" waitingTime="21.00" waitingCount="1" stopTime="0.00" timeLoss="45.17" rerouteNo="0" devices="tripinfo_flow_route_152_duration_20250327_2040.5" vType="car" speedFactor="0.97" vaporized=""/>
    <tripinfo id="flow_route_152_duration_20250327_2040.6" depart="52.00" departLane="31861355#0_0" departPos="306.35" departSpeed="0.00" departDelay="0.57" arrival="123.00" arrivalLane="714011134#0_1" arrivalPos="65.89" arrivalSpeed="13.97" duration="71.00" routeLength="420.42" waitingTime="19.00" waitingCount="1" stopTime="0.00" timeLoss="45.05" rerouteNo="0" devices="tripinfo_flow_route_152_duration_20250327_2040.6" vType="car" speedFactor="1.09" vaporized=""/>
    <tripinfo id="flow_route_151_duration_20250327_2040.9" depart="35.00" departLane="31861355#0_0" departPos="41.64" departSpeed="0.00" departDelay="1.25" arrival="125.00" arrivalLane="186410975#0_1" arrivalPos="7.19" arrivalSpeed="12.34" duration="90.00" routeLength="692.75" waitingTime="18.00" waitingCount="1" stopTime="0.00" timeLoss="47.85" rerouteNo="0" devices="tripinfo_flow_route_151_duration_20250327_2040.9" vType="car" speedFactor="1.13" vaporized=""/>
    <tripinfo id="flow_route_151_duration_20250327_2040.12" depart="45.00" departLane="31861355#0_0" departPos="363.77" departSpeed="0.00" departDelay="0.00" arrival="128.00" arrivalLane="186410975#0_1" arrivalPos="132.36" arrivalSpeed="12.76" duration="83.00" routeLength="495.81" waitingTime="26.00" waitingCount="1" stopTime="0.00" timeLoss="50.05" rerouteNo="0" devices="tripinfo_flow_route_151_duration_20250327_2040.12" vType="car" speedFactor="1.18" vaporized=""/>
    <tripinfo id="flow_route_151_duration_20250327_2040.13" depart="50.00" departLane="31861355#0_0" departPos="65.11" departSpeed="0.00" departDelay="1.25" arrival="128.00" arrivalLane="186410975#0_1" arrivalPos="6.15" arrivalSpeed="10.99" duration="78.00" routeLength="668.25" waitingTime="10.00" waitingCount="1" stopTime="0.00" timeLoss="36.83" rerouteNo="0" devices="tripinfo_flow_route_151_duration_20250327_2040.13" vType="car" speedFactor="1.03" vaporized=""/>
    <tripinfo id="flow_route_151_duration_20250327_2040.15" depart="57.00" departLane="31861355#0_0" departPos="543.36" departSpeed="0.00" departDelay="0.75" arrival="128.00" arrivalLane="186410975#0_0" arrivalPos="117.64" arrivalSpeed="11.15" duration="71.00" routeLength="301.49" waitingTime="27.00" waitingCount="1" stopTime="0.00" timeLoss="49.47" rerouteNo="0" devices="tripinfo_flow_route_151_duration_20250327_2040.15" vType="car" speedFactor="1.04" vaporized=""/>
    <tripinfo id="flow_route_151_duration_20250327_2040.14" depart="53.00" departLane="31861355#0_0" departPos="441.95" departSpeed="0.00" departDelay="0.50" arrival="129.00" arrivalLane="186410975#0_0" arrivalPos="109.72" arrivalSpeed="11.48" duration="76.00" routeLength="394.98" waitingTime="24.00" waitingCount="1" stopTime="0.00" timeLoss="49.13" rerouteNo="0" devices="tripinfo_flow_route_151_duration_20250327_2040.14" vType="car" speedFactor="1.04" vaporized=""/>
    <tripinfo id="flow_route_151_duration_20250327_2040.11" depart="42.00" departLane="31861355#0_0" departPos="180.35" departSpeed="0.00" departDelay="0.75" arrival="130.00" arrivalLane="186410975#0_1" arrivalPos="90.81" arrivalSpeed="10.85" duration="88.00" routeLength="637.68" waitingTime="20.00" waitingCount="1" stopTime="0.00" timeLoss="45.80" rerouteNo="0" devices="tripinfo_flow_route_151_duration_20250327_2040.11" vType="car" speedFactor="0.99" vaporized=""/>
    <tripinfo id="flow_route_153_duration_20250327_2040.3" depart="45.00" departLane="31861355#0_0" departPos="259.40" departSpeed="0.00" departDelay="0.00" arrival="130.00" arrivalLane="809719540#0_0" arrivalPos="221.74" arrivalSpeed="16.26" duration="85.00" routeLength="593.44" waitingTime="17.00" waitingCount="1" stopTime="0.00" timeLoss="47.21" rerouteNo="0" devices="tripinfo_flow_route_153_duration_20250327_2040.3" vType="car" speedFactor="1.10" vaporized=""/>
    <tripinfo id="flow_route_151_duration_20250327_2040.10" depart="39.00" departLane="31861355#0_0" departPos="29.13" departSpeed="0.00" departDelay="1.50" arrival="131.00" arrivalLane="186410975#0_0" arrivalPos="53.47" arrivalSpeed="10.95" duration="92.00" routeLength="751.55" waitingTime="13.00" waitingCount="2" stopTime="0.00" timeLoss="44.42" rerouteNo="0" devices="tripinfo_flow_route_151_duration_20250327_2040.10" vType="car" speedFactor="1.01" vaporized=""/>
    <tripinfo id="flow_route_153_duration_20250327_2040.2" depart="31.00" departLane="31861355#0_0" departPos="94.41" departSpeed="0.00" departDelay="1.00" arrival="135.00" arrivalLane="809719540#0_0" arrivalPos="256.49" arrivalSpeed="15.56" duration="104.00" routeLength="793.19" waitingTime="15.00" waitingCount="1" stopTime="0.00" timeLoss="53.04" rerouteNo="0" devices="tripinfo_flow_route_153_duration_20250327_2040.2" vType="car" speedFactor="0.95" vaporized=""/>
</tripinfos>
