<?xml version="1.0" encoding="UTF-8"?>

<!-- generated on 2025-05-06 21:07:41 by Eclipse SUMO sumo Version 1.20.0
<configuration xmlns:xsi="http://www.w3.org/2001/XMLSchema-instance" xsi:noNamespaceSchemaLocation="http://sumo.dlr.de/xsd/sumoConfiguration.xsd">

    <input>
        <net-file value="osm.net.xml"/>
        <route-files value="xml/route_rl_J7_0.rou.xml"/>
    </input>

    <output>
        <tripinfo-output value="xml/tripinfo_rl_J7_0.xml"/>
    </output>

    <traci_server>
        <remote-port value="34965"/>
    </traci_server>

</configuration>
-->

<tripinfos xmlns:xsi="http://www.w3.org/2001/XMLSchema-instance" xsi:noNamespaceSchemaLocation="http://sumo.dlr.de/xsd/tripinfo_file.xsd">
    <tripinfo id="flow_route_131_duration_20250327_2130.0" depart="0.00" departLane="714011134#0_0" departPos="6.35" departSpeed="0.00" departDelay="0.00" arrival="27.00" arrivalLane="134194079#0_1" arrivalPos="73.02" arrivalSpeed="14.32" duration="27.00" routeLength="232.63" waitingTime="0.00" waitingCount="0" stopTime="0.00" timeLoss="10.36" rerouteNo="0" devices="tripinfo_flow_route_131_duration_20250327_2130.0" vType="car" speedFactor="0.89" vaporized=""/>
    <tripinfo id="flow_route_127_duration_20250327_2130.0" depart="0.00" departLane="-138000461_0" departPos="55.90" departSpeed="0.00" departDelay="0.00" arrival="31.00" arrivalLane="189240000#0-AddedOnRampEdge_0" arrivalPos="70.17" arrivalSpeed="14.55" duration="31.00" routeLength="273.38" waitingTime="0.00" waitingCount="0" stopTime="0.00" timeLoss="13.71" rerouteNo="0" devices="tripinfo_flow_route_127_duration_20250327_2130.0" vType="car" speedFactor="1.05" vaporized=""/>
    <tripinfo id="flow_route_132_duration_20250327_2130.0" depart="0.00" departLane="714011134#0_0" departPos="92.28" departSpeed="0.00" departDelay="0.00" arrival="34.00" arrivalLane="189240000#0-AddedOnRampEdge_1" arrivalPos="51.48" arrivalSpeed="15.25" duration="34.00" routeLength="375.34" waitingTime="0.00" waitingCount="0" stopTime="0.00" timeLoss="9.96" rerouteNo="0" devices="tripinfo_flow_route_132_duration_20250327_2130.0" vType="car" speedFactor="0.94" vaporized=""/>
    <tripinfo id="flow_route_121_duration_20250327_2130.0" depart="1.00" departLane="799091563#0_0" departPos="259.58" departSpeed="0.00" departDelay="1.00" arrival="35.00" arrivalLane="134194079#0_0" arrivalPos="144.99" arrivalSpeed="15.01" duration="34.00" routeLength="274.57" waitingTime="0.00" waitingCount="0" stopTime="0.00" timeLoss="16.19" rerouteNo="0" devices="tripinfo_flow_route_121_duration_20250327_2130.0" vType="car" speedFactor="1.08" vaporized=""/>
    <tripinfo id="flow_route_116_duration_20250327_2130.0" depart="0.00" departLane="177211987#1_0" departPos="0.88" departSpeed="0.00" departDelay="0.00" arrival="38.00" arrivalLane="688883939#0_1" arrivalPos="93.94" arrivalSpeed="16.27" duration="38.00" routeLength="448.08" waitingTime="0.00" waitingCount="0" stopTime="0.00" timeLoss="10.39" rerouteNo="0" devices="tripinfo_flow_route_116_duration_20250327_2130.0" vType="car" speedFactor="1.06" vaporized=""/>
    <tripinfo id="flow_route_131_duration_20250327_2130.1" depart="21.00" departLane="714011134#0_0" departPos="72.89" departSpeed="0.00" departDelay="1.00" arrival="38.00" arrivalLane="134194079#0_1" arrivalPos="26.26" arrivalSpeed="13.35" duration="17.00" routeLength="119.33" waitingTime="0.00" waitingCount="0" stopTime="0.00" timeLoss="9.60" rerouteNo="0" devices="tripinfo_flow_route_131_duration_20250327_2130.1" vType="car" speedFactor="0.97" vaporized=""/>
    <tripinfo id="flow_route_127_duration_20250327_2130.1" depart="9.00" departLane="-138000461_0" departPos="50.03" departSpeed="0.00" departDelay="0.43" arrival="40.00" arrivalLane="189240000#0-AddedOnRampEdge_0" arrivalPos="83.80" arrivalSpeed="14.83" duration="31.00" routeLength="292.89" waitingTime="0.00" waitingCount="0" stopTime="0.00" timeLoss="12.79" rerouteNo="0" devices="tripinfo_flow_route_127_duration_20250327_2130.1" vType="car" speedFactor="1.12" vaporized=""/>
    <tripinfo id="flow_route_132_duration_20250327_2130.1" depart="7.00" departLane="714011134#0_0" departPos="66.76" departSpeed="0.00" departDelay="1.00" arrival="42.00" arrivalLane="189240000#0-AddedOnRampEdge_1" arrivalPos="48.43" arrivalSpeed="16.26" duration="35.00" routeLength="397.81" waitingTime="0.00" waitingCount="0" stopTime="0.00" timeLoss="10.52" rerouteNo="0" devices="tripinfo_flow_route_132_duration_20250327_2130.1" vType="car" speedFactor="1.09" vaporized=""/>
    <tripinfo id="flow_route_127_duration_20250327_2130.2" depart="18.00" departLane="-138000461_0" departPos="55.81" departSpeed="0.00" departDelay="0.86" arrival="44.00" arrivalLane="189240000#0-AddedOnRampEdge_0" arrivalPos="12.21" arrivalSpeed="9.61" duration="26.00" routeLength="215.52" waitingTime="0.00" waitingCount="0" stopTime="0.00" timeLoss="12.34" rerouteNo="0" devices="tripinfo_flow_route_127_duration_20250327_2130.2" vType="car" speedFactor="0.94" vaporized=""/>
    <tripinfo id="flow_route_121_duration_20250327_2130.3" depart="26.00" departLane="799091563#0_0" departPos="362.60" departSpeed="0.00" departDelay="0.29" arrival="49.00" arrivalLane="134194079#0_0" arrivalPos="145.32" arrivalSpeed="14.47" duration="23.00" routeLength="171.88" waitingTime="0.00" waitingCount="0" stopTime="0.00" timeLoss="9.27" rerouteNo="0" devices="tripinfo_flow_route_121_duration_20250327_2130.3" vType="car" speedFactor="0.87" vaporized=""/>
    <tripinfo id="flow_route_126_duration_20250327_2130.0" depart="0.00" departLane="-138000461_0" departPos="119.67" departSpeed="0.00" departDelay="0.00" arrival="52.00" arrivalLane="138000492#0_1" arrivalPos="18.35" arrivalSpeed="13.72" duration="52.00" routeLength="582.25" waitingTime="0.00" waitingCount="0" stopTime="0.00" timeLoss="9.19" rerouteNo="0" devices="tripinfo_flow_route_126_duration_20250327_2130.0" vType="car" speedFactor="0.83" vaporized=""/>
    <tripinfo id="flow_route_132_duration_20250327_2130.3" depart="19.00" departLane="714011134#0_0" departPos="60.24" departSpeed="0.00" departDelay="1.00" arrival="57.00" arrivalLane="189240000#0-AddedOnRampEdge_2" arrivalPos="11.84" arrivalSpeed="16.26" duration="38.00" routeLength="367.74" waitingTime="0.00" waitingCount="0" stopTime="0.00" timeLoss="15.84" rerouteNo="0" devices="tripinfo_flow_route_132_duration_20250327_2130.3" vType="car" speedFactor="1.16" vaporized=""/>
    <tripinfo id="flow_route_127_duration_20250327_2130.3" depart="26.00" departLane="-138000461_0" departPos="38.75" departSpeed="0.00" departDelay="0.29" arrival="58.00" arrivalLane="189240000#0-AddedOnRampEdge_0" arrivalPos="54.76" arrivalSpeed="12.84" duration="32.00" routeLength="275.13" waitingTime="0.00" waitingCount="0" stopTime="0.00" timeLoss="12.76" rerouteNo="0" devices="tripinfo_flow_route_127_duration_20250327_2130.3" vType="car" speedFactor="0.92" vaporized=""/>
    <tripinfo id="flow_route_133_duration_20250327_2130.0" depart="0.00" departLane="714011134#0_0" departPos="33.93" departSpeed="0.00" departDelay="0.00" arrival="59.00" arrivalLane="138000492#0_0" arrivalPos="313.58" arrivalSpeed="14.27" duration="59.00" routeLength="604.48" waitingTime="0.00" waitingCount="0" stopTime="0.00" timeLoss="15.55" rerouteNo="0" devices="tripinfo_flow_route_133_duration_20250327_2130.0" vType="car" speedFactor="0.86" vaporized=""/>
    <tripinfo id="flow_route_117_duration_20250327_2130.0" depart="0.00" departLane="177211987#1_0" departPos="98.51" departSpeed="0.00" departDelay="0.00" arrival="62.00" arrivalLane="138000492#0_0" arrivalPos="299.85" arrivalSpeed="15.44" duration="62.00" routeLength="701.60" waitingTime="0.00" waitingCount="0" stopTime="0.00" timeLoss="15.94" rerouteNo="0" devices="tripinfo_flow_route_117_duration_20250327_2130.0" vType="car" speedFactor="0.94" vaporized=""/>
    <tripinfo id="flow_route_121_duration_20250327_2130.1" depart="10.00" departLane="799091563#0_0" departPos="114.59" departSpeed="0.00" departDelay="1.43" arrival="62.00" arrivalLane="134194079#0_0" arrivalPos="243.19" arrivalSpeed="16.51" duration="52.00" routeLength="517.76" waitingTime="0.00" waitingCount="0" stopTime="0.00" timeLoss="19.54" rerouteNo="0" devices="tripinfo_flow_route_121_duration_20250327_2130.1" vType="car" speedFactor="1.05" vaporized=""/>
    <tripinfo id="flow_route_132_duration_20250327_2130.4" depart="24.00" departLane="714011134#0_0" departPos="101.17" departSpeed="0.00" departDelay="0.00" arrival="62.00" arrivalLane="189240000#0-AddedOnRampEdge_1" arrivalPos="88.28" arrivalSpeed="14.72" duration="38.00" routeLength="403.25" waitingTime="0.00" waitingCount="0" stopTime="0.00" timeLoss="10.26" rerouteNo="0" devices="tripinfo_flow_route_132_duration_20250327_2130.4" vType="car" speedFactor="0.89" vaporized=""/>
    <tripinfo id="flow_route_121_duration_20250327_2130.4" depart="35.00" departLane="799091563#0_0" departPos="376.78" departSpeed="0.00" departDelay="0.72" arrival="62.00" arrivalLane="134194079#0_0" arrivalPos="273.81" arrivalSpeed="16.17" duration="27.00" routeLength="286.19" waitingTime="0.00" waitingCount="0" stopTime="0.00" timeLoss="8.77" rerouteNo="0" devices="tripinfo_flow_route_121_duration_20250327_2130.4" vType="car" speedFactor="1.18" vaporized=""/>
    <tripinfo id="flow_route_131_duration_20250327_2130.2" depart="41.00" departLane="714011134#0_0" departPos="37.08" departSpeed="0.00" departDelay="1.00" arrival="63.00" arrivalLane="134194079#0_0" arrivalPos="53.30" arrivalSpeed="16.04" duration="22.00" routeLength="182.18" waitingTime="0.00" waitingCount="0" stopTime="0.00" timeLoss="10.65" rerouteNo="0" devices="tripinfo_flow_route_131_duration_20250327_2130.2" vType="car" speedFactor="1.02" vaporized=""/>
    <tripinfo id="flow_route_132_duration_20250327_2130.2" depart="12.00" departLane="714011134#0_0" departPos="3.14" departSpeed="0.00" departDelay="0.00" arrival="65.00" arrivalLane="189240000#0-AddedOnRampEdge_1" arrivalPos="90.31" arrivalSpeed="15.03" duration="53.00" routeLength="503.31" waitingTime="0.00" waitingCount="0" stopTime="0.00" timeLoss="19.70" rerouteNo="0" devices="tripinfo_flow_route_132_duration_20250327_2130.2" vType="car" speedFactor="0.93" vaporized=""/>
    <tripinfo id="flow_route_132_duration_20250327_2130.5" depart="30.00" departLane="714011134#0_0" departPos="29.39" departSpeed="0.00" departDelay="0.00" arrival="65.00" arrivalLane="189240000#0-AddedOnRampEdge_1" arrivalPos="14.33" arrivalSpeed="16.48" duration="35.00" routeLength="401.09" waitingTime="0.00" waitingCount="0" stopTime="0.00" timeLoss="9.96" rerouteNo="0" devices="tripinfo_flow_route_132_duration_20250327_2130.5" vType="car" speedFactor="1.13" vaporized=""/>
    <tripinfo id="flow_route_127_duration_20250327_2130.4" depart="35.00" departLane="-138000461_0" departPos="66.33" departSpeed="0.00" departDelay="0.72" arrival="66.00" arrivalLane="189240000#0-AddedOnRampEdge_0" arrivalPos="6.32" arrivalSpeed="9.17" duration="31.00" routeLength="199.10" waitingTime="0.00" waitingCount="0" stopTime="0.00" timeLoss="18.76" rerouteNo="0" devices="tripinfo_flow_route_127_duration_20250327_2130.4" vType="car" speedFactor="1.15" vaporized=""/>
    <tripinfo id="flow_route_127_duration_20250327_2130.5" depart="43.00" departLane="-138000461_0" departPos="123.63" departSpeed="0.00" departDelay="0.15" arrival="70.00" arrivalLane="189240000#0-AddedOnRampEdge_0" arrivalPos="58.07" arrivalSpeed="12.97" duration="27.00" routeLength="193.55" waitingTime="0.00" waitingCount="0" stopTime="0.00" timeLoss="13.13" rerouteNo="0" devices="tripinfo_flow_route_127_duration_20250327_2130.5" vType="car" speedFactor="0.90" vaporized=""/>
    <tripinfo id="flow_route_132_duration_20250327_2130.7" depart="45.00" departLane="714011134#0_0" departPos="102.95" departSpeed="0.00" departDelay="3.00" arrival="77.00" arrivalLane="189240000#0-AddedOnRampEdge_1" arrivalPos="27.38" arrivalSpeed="16.22" duration="32.00" routeLength="340.58" waitingTime="0.00" waitingCount="0" stopTime="0.00" timeLoss="10.69" rerouteNo="0" devices="tripinfo_flow_route_132_duration_20250327_2130.7" vType="car" speedFactor="0.97" vaporized=""/>
    <tripinfo id="flow_route_127_duration_20250327_2130.6" depart="52.00" departLane="-138000461_0" departPos="96.32" departSpeed="0.00" departDelay="0.57" arrival="78.00" arrivalLane="189240000#0-AddedOnRampEdge_0" arrivalPos="46.51" arrivalSpeed="12.85" duration="26.00" routeLength="209.30" waitingTime="0.00" waitingCount="0" stopTime="0.00" timeLoss="12.63" rerouteNo="0" devices="tripinfo_flow_route_127_duration_20250327_2130.6" vType="car" speedFactor="1.04" vaporized=""/>
    <tripinfo id="flow_route_132_duration_20250327_2130.6" depart="36.00" departLane="714011134#0_0" departPos="9.07" departSpeed="0.00" departDelay="0.00" arrival="79.00" arrivalLane="189240000#0-AddedOnRampEdge_1" arrivalPos="32.01" arrivalSpeed="16.47" duration="43.00" routeLength="439.08" waitingTime="0.00" waitingCount="0" stopTime="0.00" timeLoss="16.33" rerouteNo="0" devices="tripinfo_flow_route_132_duration_20250327_2130.6" vType="car" speedFactor="1.01" vaporized=""/>
    <tripinfo id="flow_route_117_duration_20250327_2130.1" depart="9.00" departLane="177211987#1_0" departPos="58.05" departSpeed="0.00" departDelay="0.43" arrival="86.00" arrivalLane="138000492#0_0" arrivalPos="395.19" arrivalSpeed="16.18" duration="77.00" routeLength="837.40" waitingTime="2.00" waitingCount="1" stopTime="0.00" timeLoss="25.68" rerouteNo="0" devices="tripinfo_flow_route_117_duration_20250327_2130.1" vType="car" speedFactor="1.03" vaporized=""/>
    <tripinfo id="flow_route_132_duration_20250327_2130.8" depart="48.00" departLane="714011134#0_0" departPos="31.91" departSpeed="0.00" departDelay="0.00" arrival="88.00" arrivalLane="189240000#0-AddedOnRampEdge_1" arrivalPos="2.25" arrivalSpeed="16.03" duration="40.00" routeLength="386.49" waitingTime="0.00" waitingCount="0" stopTime="0.00" timeLoss="16.07" rerouteNo="0" devices="tripinfo_flow_route_132_duration_20250327_2130.8" vType="car" speedFactor="1.03" vaporized=""/>
    <tripinfo id="flow_route_132_duration_20250327_2130.9" depart="54.00" departLane="714011134#0_0" departPos="60.46" departSpeed="0.00" departDelay="0.00" arrival="91.00" arrivalLane="189240000#0-AddedOnRampEdge_1" arrivalPos="82.50" arrivalSpeed="16.59" duration="37.00" routeLength="438.18" waitingTime="0.00" waitingCount="0" stopTime="0.00" timeLoss="10.29" rerouteNo="0" devices="tripinfo_flow_route_132_duration_20250327_2130.9" vType="car" speedFactor="1.09" vaporized=""/>
    <tripinfo id="flow_route_122_duration_20250327_2130.2" depart="40.00" departLane="799091563#0_0" departPos="30.38" departSpeed="0.00" departDelay="0.00" arrival="92.00" arrivalLane="688883939#0_2" arrivalPos="21.84" arrivalSpeed="12.35" duration="52.00" routeLength="430.10" waitingTime="4.00" waitingCount="1" stopTime="0.00" timeLoss="25.89" rerouteNo="0" devices="tripinfo_flow_route_122_duration_20250327_2130.2" vType="car" speedFactor="0.99" vaporized=""/>
    <tripinfo id="flow_route_122_duration_20250327_2130.0" depart="1.00" departLane="799091563#0_0" departPos="17.54" departSpeed="0.00" departDelay="1.00" arrival="93.00" arrivalLane="688883939#0_2" arrivalPos="62.20" arrivalSpeed="13.95" duration="92.00" routeLength="483.30" waitingTime="36.00" waitingCount="1" stopTime="0.00" timeLoss="62.87" rerouteNo="0" devices="tripinfo_flow_route_122_duration_20250327_2130.0" vType="car" speedFactor="1.03" vaporized=""/>
    <tripinfo id="flow_route_121_duration_20250327_2130.2" depart="19.00" departLane="799091563#0_0" departPos="63.77" departSpeed="0.00" departDelay="1.86" arrival="93.00" arrivalLane="134194079#0_0" arrivalPos="97.74" arrivalSpeed="13.62" duration="74.00" routeLength="423.13" waitingTime="24.00" waitingCount="1" stopTime="0.00" timeLoss="45.35" rerouteNo="0" devices="tripinfo_flow_route_121_duration_20250327_2130.2" vType="car" speedFactor="0.94" vaporized=""/>
    <tripinfo id="flow_route_122_duration_20250327_2130.1" depart="20.00" departLane="799091563#0_0" departPos="271.71" departSpeed="0.00" departDelay="0.00" arrival="93.00" arrivalLane="688883939#0_2" arrivalPos="85.58" arrivalSpeed="14.67" duration="73.00" routeLength="252.51" waitingTime="36.00" waitingCount="1" stopTime="0.00" timeLoss="57.53" rerouteNo="0" devices="tripinfo_flow_route_122_duration_20250327_2130.1" vType="car" speedFactor="1.01" vaporized=""/>
    <tripinfo id="flow_route_121_duration_20250327_2130.5" depart="44.00" departLane="799091563#0_0" departPos="138.66" departSpeed="0.00" departDelay="1.15" arrival="100.00" arrivalLane="134194079#0_0" arrivalPos="124.86" arrivalSpeed="14.94" duration="56.00" routeLength="375.35" waitingTime="5.00" waitingCount="1" stopTime="0.00" timeLoss="31.94" rerouteNo="0" devices="tripinfo_flow_route_121_duration_20250327_2130.5" vType="car" speedFactor="1.10" vaporized=""/>
    <tripinfo id="flow_route_120_duration_20250327_2130.0" depart="0.00" departLane="799091563#0_0" departPos="177.01" departSpeed="0.00" departDelay="0.00" arrival="107.00" arrivalLane="138000492#0_2" arrivalPos="19.14" arrivalSpeed="11.94" duration="107.00" routeLength="440.29" waitingTime="51.00" waitingCount="2" stopTime="0.00" timeLoss="80.13" rerouteNo="0" devices="tripinfo_flow_route_120_duration_20250327_2130.0" vType="car" speedFactor="1.01" vaporized=""/>
    <tripinfo id="flow_route_121_duration_20250327_2130.6" depart="52.00" departLane="799091563#0_0" departPos="269.89" departSpeed="0.00" departDelay="0.57" arrival="107.00" arrivalLane="134194079#0_0" arrivalPos="272.87" arrivalSpeed="16.18" duration="55.00" routeLength="392.14" waitingTime="6.00" waitingCount="1" stopTime="0.00" timeLoss="29.53" rerouteNo="0" devices="tripinfo_flow_route_121_duration_20250327_2130.6" vType="car" speedFactor="1.04" vaporized=""/>
    <tripinfo id="flow_route_120_duration_20250327_2130.1" depart="11.00" departLane="799091563#0_0" departPos="60.42" departSpeed="0.00" departDelay="1.00" arrival="113.00" arrivalLane="138000492#0_1" arrivalPos="13.64" arrivalSpeed="10.03" duration="102.00" routeLength="551.39" waitingTime="26.00" waitingCount="1" stopTime="0.00" timeLoss="68.56" rerouteNo="0" devices="tripinfo_flow_route_120_duration_20250327_2130.1" vType="car" speedFactor="0.99" vaporized=""/>
    <tripinfo id="flow_route_120_duration_20250327_2130.2" depart="20.00" departLane="799091563#0_0" departPos="253.70" departSpeed="0.00" departDelay="0.00" arrival="113.00" arrivalLane="138000492#0_0" arrivalPos="101.59" arrivalSpeed="13.76" duration="93.00" routeLength="446.05" waitingTime="31.00" waitingCount="2" stopTime="0.00" timeLoss="65.42" rerouteNo="0" devices="tripinfo_flow_route_120_duration_20250327_2130.2" vType="car" speedFactor="1.02" vaporized=""/>
    <tripinfo id="flow_route_120_duration_20250327_2130.5" depart="50.00" departLane="799091563#0_0" departPos="332.46" departSpeed="0.00" departDelay="0.00" arrival="119.00" arrivalLane="138000492#0_2" arrivalPos="44.07" arrivalSpeed="11.97" duration="69.00" routeLength="309.77" waitingTime="16.00" waitingCount="1" stopTime="0.00" timeLoss="49.00" rerouteNo="0" devices="tripinfo_flow_route_120_duration_20250327_2130.5" vType="car" speedFactor="0.96" vaporized=""/>
    <tripinfo id="flow_route_120_duration_20250327_2130.4" depart="40.00" departLane="799091563#0_0" departPos="17.79" departSpeed="0.00" departDelay="0.00" arrival="130.00" arrivalLane="138000492#0_1" arrivalPos="238.68" arrivalSpeed="16.58" duration="90.00" routeLength="819.05" waitingTime="4.00" waitingCount="1" stopTime="0.00" timeLoss="40.51" rerouteNo="0" devices="tripinfo_flow_route_120_duration_20250327_2130.4" vType="car" speedFactor="1.17" vaporized=""/>
    <tripinfo id="flow_route_120_duration_20250327_2130.3" depart="30.00" departLane="799091563#0_0" departPos="10.57" departSpeed="0.00" departDelay="0.00" arrival="140.00" arrivalLane="138000492#0_0" arrivalPos="270.03" arrivalSpeed="15.80" duration="110.00" routeLength="857.62" waitingTime="13.00" waitingCount="1" stopTime="0.00" timeLoss="55.06" rerouteNo="0" devices="tripinfo_flow_route_120_duration_20250327_2130.3" vType="car" speedFactor="0.95" vaporized=""/>
    <tripinfo id="flow_route_117_duration_20250327_2130.3" depart="26.00" departLane="177211987#1_0" departPos="24.65" departSpeed="0.00" departDelay="0.29" arrival="186.00" arrivalLane="138000492#0_2" arrivalPos="129.53" arrivalSpeed="13.51" duration="160.00" routeLength="605.14" waitingTime="93.00" waitingCount="1" stopTime="0.00" timeLoss="115.35" rerouteNo="0" devices="tripinfo_flow_route_117_duration_20250327_2130.3" vType="car" speedFactor="0.83" vaporized=""/>
    <tripinfo id="flow_route_117_duration_20250327_2130.2" depart="18.00" departLane="177211987#1_0" departPos="60.21" departSpeed="0.00" departDelay="0.86" arrival="198.00" arrivalLane="138000492#0_0" arrivalPos="288.31" arrivalSpeed="14.52" duration="180.00" routeLength="728.36" waitingTime="103.00" waitingCount="1" stopTime="0.00" timeLoss="129.15" rerouteNo="0" devices="tripinfo_flow_route_117_duration_20250327_2130.2" vType="car" speedFactor="0.88" vaporized=""/>
    <tripinfo id="flow_route_117_duration_20250327_2130.4" depart="35.00" departLane="177211987#1_0" departPos="26.20" departSpeed="0.00" departDelay="0.72" arrival="198.00" arrivalLane="138000492#0_2" arrivalPos="230.10" arrivalSpeed="15.49" duration="163.00" routeLength="704.17" waitingTime="80.00" waitingCount="1" stopTime="0.00" timeLoss="117.40" rerouteNo="0" devices="tripinfo_flow_route_117_duration_20250327_2130.4" vType="car" speedFactor="0.93" vaporized=""/>
    <tripinfo id="flow_route_117_duration_20250327_2130.5" depart="43.00" departLane="177211987#1_0" departPos="75.06" departSpeed="0.00" departDelay="0.15" arrival="201.00" arrivalLane="138000492#0_1" arrivalPos="285.61" arrivalSpeed="16.38" duration="158.00" routeLength="710.81" waitingTime="82.00" waitingCount="1" stopTime="0.00" timeLoss="114.47" rerouteNo="0" devices="tripinfo_flow_route_117_duration_20250327_2130.5" vType="car" speedFactor="1.18" vaporized=""/>
    <tripinfo id="flow_route_117_duration_20250327_2130.6" depart="52.00" departLane="177211987#1_0" departPos="62.22" departSpeed="0.00" departDelay="0.57" arrival="203.00" arrivalLane="138000492#0_1" arrivalPos="263.12" arrivalSpeed="16.38" duration="151.00" routeLength="701.16" waitingTime="75.00" waitingCount="1" stopTime="0.00" timeLoss="108.07" rerouteNo="0" devices="tripinfo_flow_route_117_duration_20250327_2130.6" vType="car" speedFactor="1.09" vaporized=""/>
</tripinfos>
