<?xml version="1.0" encoding="UTF-8"?>

<!-- generated on 2025-05-06 21:08:02 by Eclipse SUMO sumo Version 1.20.0
<configuration xmlns:xsi="http://www.w3.org/2001/XMLSchema-instance" xsi:noNamespaceSchemaLocation="http://sumo.dlr.de/xsd/sumoConfiguration.xsd">

    <input>
        <net-file value="osm.net.xml"/>
        <route-files value="xml/route_rl_cluster7571105647_7571105653_cluster_1141265322_11869698130_256036890_4227138136_#4more_2.rou.xml"/>
    </input>

    <output>
        <tripinfo-output value="xml/tripinfo_rl_cluster7571105647_7571105653_cluster_1141265322_11869698130_256036890_4227138136_#4more_2.xml"/>
    </output>

    <traci_server>
        <remote-port value="52851"/>
    </traci_server>

</configuration>
-->

<tripinfos xmlns:xsi="http://www.w3.org/2001/XMLSchema-instance" xsi:noNamespaceSchemaLocation="http://sumo.dlr.de/xsd/tripinfo_file.xsd">
    <tripinfo id="flow_route_143_duration_20250327_2030.0" depart="0.00" departLane="1253222187#0_0" departPos="157.10" departSpeed="0.00" departDelay="0.00" arrival="28.00" arrivalLane="1310781056_0" arrivalPos="55.73" arrivalSpeed="16.37" duration="28.00" routeLength="267.13" waitingTime="0.00" waitingCount="0" stopTime="0.00" timeLoss="11.65" rerouteNo="0" devices="tripinfo_flow_route_143_duration_20250327_2030.0" vType="car" speedFactor="1.08" vaporized=""/>
    <tripinfo id="flow_route_143_duration_20250327_2030.1" depart="6.00" departLane="1253222187#0_0" departPos="108.15" departSpeed="0.00" departDelay="0.55" arrival="40.00" arrivalLane="1310781056_0" arrivalPos="77.52" arrivalSpeed="16.48" duration="34.00" routeLength="337.87" waitingTime="0.00" waitingCount="0" stopTime="0.00" timeLoss="12.47" rerouteNo="0" devices="tripinfo_flow_route_143_duration_20250327_2030.1" vType="car" speedFactor="0.94" vaporized=""/>
    <tripinfo id="flow_route_143_duration_20250327_2030.2" depart="11.00" departLane="1253222187#0_0" departPos="33.55" departSpeed="0.00" departDelay="0.09" arrival="50.00" arrivalLane="1310781056_0" arrivalPos="86.69" arrivalSpeed="16.13" duration="39.00" routeLength="421.65" waitingTime="0.00" waitingCount="0" stopTime="0.00" timeLoss="13.35" rerouteNo="0" devices="tripinfo_flow_route_143_duration_20250327_2030.2" vType="car" speedFactor="1.12" vaporized=""/>
    <tripinfo id="flow_route_142_duration_20250327_2030.1" depart="4.00" departLane="1253222187#0_0" departPos="184.61" departSpeed="0.00" departDelay="0.67" arrival="53.00" arrivalLane="683079388#0_0" arrivalPos="6.83" arrivalSpeed="16.14" duration="49.00" routeLength="620.53" waitingTime="0.00" waitingCount="0" stopTime="0.00" timeLoss="10.69" rerouteNo="0" devices="tripinfo_flow_route_142_duration_20250327_2030.1" vType="car" speedFactor="1.05" vaporized=""/>
    <tripinfo id="flow_route_142_duration_20250327_2030.0" depart="0.00" departLane="1253222187#0_0" departPos="114.97" departSpeed="0.00" departDelay="0.00" arrival="54.00" arrivalLane="683079388#0_0" arrivalPos="1.17" arrivalSpeed="16.33" duration="54.00" routeLength="684.52" waitingTime="0.00" waitingCount="0" stopTime="0.00" timeLoss="12.04" rerouteNo="0" devices="tripinfo_flow_route_142_duration_20250327_2030.0" vType="car" speedFactor="1.01" vaporized=""/>
    <tripinfo id="flow_route_140_duration_20250327_2030.3" depart="20.00" departLane="809719540#0_0" departPos="192.20" departSpeed="0.00" departDelay="2.00" arrival="54.00" arrivalLane="-809772643#1_0" arrivalPos="46.13" arrivalSpeed="11.80" duration="34.00" routeLength="161.39" waitingTime="4.00" waitingCount="1" stopTime="0.00" timeLoss="23.22" rerouteNo="0" devices="tripinfo_flow_route_140_duration_20250327_2030.3" vType="car" speedFactor="0.94" vaporized=""/>
    <tripinfo id="flow_route_140_duration_20250327_2030.1" depart="6.00" departLane="809719540#0_0" departPos="12.41" departSpeed="0.00" departDelay="0.00" arrival="57.00" arrivalLane="-809772643#1_1" arrivalPos="66.57" arrivalSpeed="13.28" duration="51.00" routeLength="364.44" waitingTime="1.00" waitingCount="1" stopTime="0.00" timeLoss="25.78" rerouteNo="0" devices="tripinfo_flow_route_140_duration_20250327_2030.1" vType="car" speedFactor="0.89" vaporized=""/>
    <tripinfo id="flow_route_140_duration_20250327_2030.7" depart="42.00" departLane="809719540#0_0" departPos="235.17" departSpeed="0.00" departDelay="0.00" arrival="58.00" arrivalLane="-809772643#1_0" arrivalPos="21.65" arrivalSpeed="11.55" duration="16.00" routeLength="93.93" waitingTime="0.00" waitingCount="0" stopTime="0.00" timeLoss="9.42" rerouteNo="0" devices="tripinfo_flow_route_140_duration_20250327_2030.7" vType="car" speedFactor="0.90" vaporized=""/>
    <tripinfo id="flow_route_140_duration_20250327_2030.6" depart="36.00" departLane="809719540#0_0" departPos="221.74" departSpeed="0.00" departDelay="0.00" arrival="59.00" arrivalLane="-809772643#1_1" arrivalPos="80.58" arrivalSpeed="13.93" duration="23.00" routeLength="169.13" waitingTime="0.00" waitingCount="0" stopTime="0.00" timeLoss="12.82" rerouteNo="0" devices="tripinfo_flow_route_140_duration_20250327_2030.6" vType="car" speedFactor="1.02" vaporized=""/>
    <tripinfo id="flow_route_140_duration_20250327_2030.0" depart="0.00" departLane="809719540#0_0" departPos="199.64" departSpeed="0.00" departDelay="0.00" arrival="61.00" arrivalLane="-809772643#1_0" arrivalPos="184.22" arrivalSpeed="16.45" duration="61.00" routeLength="292.04" waitingTime="24.00" waitingCount="1" stopTime="0.00" timeLoss="43.21" rerouteNo="0" devices="tripinfo_flow_route_140_duration_20250327_2030.0" vType="car" speedFactor="1.06" vaporized=""/>
    <tripinfo id="flow_route_140_duration_20250327_2030.2" depart="12.00" departLane="809719540#0_0" departPos="8.01" departSpeed="0.00" departDelay="0.00" arrival="66.00" arrivalLane="-809772643#1_0" arrivalPos="197.78" arrivalSpeed="16.45" duration="54.00" routeLength="497.22" waitingTime="0.00" waitingCount="0" stopTime="0.00" timeLoss="23.17" rerouteNo="0" devices="tripinfo_flow_route_140_duration_20250327_2030.2" vType="car" speedFactor="0.99" vaporized=""/>
    <tripinfo id="flow_route_142_duration_20250327_2030.5" depart="17.00" departLane="1253222187#0_0" departPos="203.36" departSpeed="0.00" departDelay="0.34" arrival="68.00" arrivalLane="683079388#0_0" arrivalPos="3.24" arrivalSpeed="14.54" duration="51.00" routeLength="598.18" waitingTime="0.00" waitingCount="0" stopTime="0.00" timeLoss="9.55" rerouteNo="0" devices="tripinfo_flow_route_142_duration_20250327_2030.5" vType="car" speedFactor="0.88" vaporized=""/>
    <tripinfo id="flow_route_140_duration_20250327_2030.4" depart="24.00" departLane="809719540#0_0" departPos="45.23" departSpeed="0.00" departDelay="0.00" arrival="68.00" arrivalLane="-809772643#1_1" arrivalPos="101.84" arrivalSpeed="14.40" duration="44.00" routeLength="366.89" waitingTime="0.00" waitingCount="0" stopTime="0.00" timeLoss="18.99" rerouteNo="0" devices="tripinfo_flow_route_140_duration_20250327_2030.4" vType="car" speedFactor="0.89" vaporized=""/>
    <tripinfo id="flow_route_140_duration_20250327_2030.5" depart="31.00" departLane="809719540#0_0" departPos="48.53" departSpeed="0.00" departDelay="1.00" arrival="68.00" arrivalLane="-809772643#1_1" arrivalPos="70.09" arrivalSpeed="14.63" duration="37.00" routeLength="331.85" waitingTime="0.00" waitingCount="0" stopTime="0.00" timeLoss="14.79" rerouteNo="0" devices="tripinfo_flow_route_140_duration_20250327_2030.5" vType="car" speedFactor="0.93" vaporized=""/>
    <tripinfo id="flow_route_142_duration_20250327_2030.2" depart="9.00" departLane="1253222187#0_0" departPos="83.61" departSpeed="0.00" departDelay="2.33" arrival="70.00" arrivalLane="683079388#0_2" arrivalPos="7.93" arrivalSpeed="14.13" duration="61.00" routeLength="722.62" waitingTime="0.00" waitingCount="0" stopTime="0.00" timeLoss="10.28" rerouteNo="0" devices="tripinfo_flow_route_142_duration_20250327_2030.2" vType="car" speedFactor="0.86" vaporized=""/>
    <tripinfo id="flow_route_142_duration_20250327_2030.6" depart="21.00" departLane="1253222187#0_0" departPos="197.15" departSpeed="0.00" departDelay="1.00" arrival="70.00" arrivalLane="683079388#0_0" arrivalPos="17.25" arrivalSpeed="16.39" duration="49.00" routeLength="618.41" waitingTime="0.00" waitingCount="0" stopTime="0.00" timeLoss="11.60" rerouteNo="0" devices="tripinfo_flow_route_142_duration_20250327_2030.6" vType="car" speedFactor="1.01" vaporized=""/>
    <tripinfo id="flow_route_142_duration_20250327_2030.3" depart="10.00" departLane="1253222187#0_0" departPos="63.62" departSpeed="0.00" departDelay="0.00" arrival="71.00" arrivalLane="683079388#0_2" arrivalPos="0.84" arrivalSpeed="14.79" duration="61.00" routeLength="735.52" waitingTime="0.00" waitingCount="0" stopTime="0.00" timeLoss="16.61" rerouteNo="0" devices="tripinfo_flow_route_142_duration_20250327_2030.3" vType="car" speedFactor="1.05" vaporized=""/>
    <tripinfo id="flow_route_140_duration_20250327_2030.9" depart="55.00" departLane="809719540#0_0" departPos="227.10" departSpeed="0.00" departDelay="1.00" arrival="77.00" arrivalLane="-809772643#1_0" arrivalPos="99.25" arrivalSpeed="13.99" duration="22.00" routeLength="179.60" waitingTime="0.00" waitingCount="0" stopTime="0.00" timeLoss="9.03" rerouteNo="0" devices="tripinfo_flow_route_140_duration_20250327_2030.9" vType="car" speedFactor="0.85" vaporized=""/>
    <tripinfo id="flow_route_142_duration_20250327_2030.8" depart="29.00" departLane="1253222187#0_0" departPos="209.21" departSpeed="0.00" departDelay="2.34" arrival="79.00" arrivalLane="683079388#0_0" arrivalPos="14.12" arrivalSpeed="15.45" duration="50.00" routeLength="603.22" waitingTime="0.00" waitingCount="0" stopTime="0.00" timeLoss="11.33" rerouteNo="0" devices="tripinfo_flow_route_142_duration_20250327_2030.8" vType="car" speedFactor="0.95" vaporized=""/>
    <tripinfo id="flow_route_140_duration_20250327_2030.8" depart="48.00" departLane="809719540#0_0" departPos="27.27" departSpeed="0.00" departDelay="0.00" arrival="84.00" arrivalLane="-809772643#1_0" arrivalPos="144.62" arrivalSpeed="16.58" duration="36.00" routeLength="424.81" waitingTime="0.00" waitingCount="0" stopTime="0.00" timeLoss="9.91" rerouteNo="0" devices="tripinfo_flow_route_140_duration_20250327_2030.8" vType="car" speedFactor="1.09" vaporized=""/>
    <tripinfo id="flow_route_141_duration_20250327_2030.0" depart="0.00" departLane="809719540#0_0" departPos="66.48" departSpeed="0.00" departDelay="0.00" arrival="92.00" arrivalLane="683079387#1_1" arrivalPos="7.27" arrivalSpeed="6.50" duration="92.00" routeLength="836.36" waitingTime="13.00" waitingCount="1" stopTime="0.00" timeLoss="35.48" rerouteNo="0" devices="tripinfo_flow_route_141_duration_20250327_2030.0" vType="car" speedFactor="0.94" vaporized=""/>
    <tripinfo id="flow_route_146_duration_20250327_2030.3" depart="26.00" departLane="683079387#1_0" departPos="2.85" departSpeed="0.00" departDelay="0.29" arrival="93.00" arrivalLane="-809772643#1_0" arrivalPos="31.39" arrivalSpeed="12.92" duration="67.00" routeLength="641.52" waitingTime="3.00" waitingCount="1" stopTime="0.00" timeLoss="24.32" rerouteNo="0" devices="tripinfo_flow_route_146_duration_20250327_2030.3" vType="car" speedFactor="0.92" vaporized=""/>
    <tripinfo id="flow_route_147_duration_20250327_2030.0" depart="4.00" departLane="683079387#1_0" departPos="0.62" departSpeed="0.00" departDelay="4.00" arrival="94.00" arrivalLane="1310781056_0" arrivalPos="4.95" arrivalSpeed="14.31" duration="90.00" routeLength="684.16" waitingTime="20.00" waitingCount="1" stopTime="0.00" timeLoss="40.09" rerouteNo="0" devices="tripinfo_flow_route_147_duration_20250327_2030.0" vType="car" speedFactor="0.83" vaporized=""/>
    <tripinfo id="flow_route_141_duration_20250327_2030.1" depart="9.00" departLane="809719540#0_0" departPos="146.20" departSpeed="0.00" departDelay="0.43" arrival="94.00" arrivalLane="683079387#1_1" arrivalPos="8.42" arrivalSpeed="6.71" duration="85.00" routeLength="764.79" waitingTime="9.00" waitingCount="1" stopTime="0.00" timeLoss="36.95" rerouteNo="0" devices="tripinfo_flow_route_141_duration_20250327_2030.1" vType="car" speedFactor="1.09" vaporized=""/>
    <tripinfo id="flow_route_146_duration_20250327_2030.0" depart="0.00" departLane="683079387#1_0" departPos="0.06" departSpeed="0.00" departDelay="0.00" arrival="96.00" arrivalLane="-809772643#1_0" arrivalPos="121.98" arrivalSpeed="16.44" duration="96.00" routeLength="734.89" waitingTime="29.00" waitingCount="1" stopTime="0.00" timeLoss="50.91" rerouteNo="0" devices="tripinfo_flow_route_146_duration_20250327_2030.0" vType="car" speedFactor="1.03" vaporized=""/>
    <tripinfo id="flow_route_141_duration_20250327_2030.2" depart="20.00" departLane="809719540#0_0" departPos="160.15" departSpeed="0.00" departDelay="2.86" arrival="96.00" arrivalLane="683079387#1_1" arrivalPos="1.71" arrivalSpeed="7.34" duration="76.00" routeLength="737.13" waitingTime="1.00" waitingCount="1" stopTime="0.00" timeLoss="29.49" rerouteNo="0" devices="tripinfo_flow_route_141_duration_20250327_2030.2" vType="car" speedFactor="1.16" vaporized=""/>
    <tripinfo id="flow_route_146_duration_20250327_2030.2" depart="18.00" departLane="683079387#1_0" departPos="8.29" departSpeed="0.00" departDelay="0.86" arrival="98.00" arrivalLane="-809772643#1_1" arrivalPos="118.19" arrivalSpeed="16.35" duration="80.00" routeLength="722.87" waitingTime="12.00" waitingCount="1" stopTime="0.00" timeLoss="35.60" rerouteNo="0" devices="tripinfo_flow_route_146_duration_20250327_2030.2" vType="car" speedFactor="1.02" vaporized=""/>
    <tripinfo id="flow_route_141_duration_20250327_2030.4" depart="36.00" departLane="809719540#0_0" departPos="137.74" departSpeed="0.00" departDelay="1.72" arrival="99.00" arrivalLane="683079387#1_1" arrivalPos="2.17" arrivalSpeed="6.10" duration="63.00" routeLength="767.00" waitingTime="0.00" waitingCount="0" stopTime="0.00" timeLoss="14.83" rerouteNo="0" devices="tripinfo_flow_route_141_duration_20250327_2030.4" vType="car" speedFactor="1.17" vaporized=""/>
    <tripinfo id="flow_route_146_duration_20250327_2030.1" depart="9.00" departLane="683079387#1_0" departPos="2.42" departSpeed="0.00" departDelay="0.43" arrival="100.00" arrivalLane="-809772643#1_0" arrivalPos="183.53" arrivalSpeed="16.52" duration="91.00" routeLength="794.08" waitingTime="17.00" waitingCount="1" stopTime="0.00" timeLoss="42.22" rerouteNo="0" devices="tripinfo_flow_route_146_duration_20250327_2030.1" vType="car" speedFactor="1.03" vaporized=""/>
    <tripinfo id="flow_route_146_duration_20250327_2030.4" depart="35.00" departLane="683079387#1_0" departPos="6.28" departSpeed="0.00" departDelay="0.72" arrival="101.00" arrivalLane="-809772643#1_1" arrivalPos="140.32" arrivalSpeed="16.32" duration="66.00" routeLength="747.01" waitingTime="0.00" waitingCount="0" stopTime="0.00" timeLoss="20.44" rerouteNo="0" devices="tripinfo_flow_route_146_duration_20250327_2030.4" vType="car" speedFactor="0.99" vaporized=""/>
    <tripinfo id="flow_route_141_duration_20250327_2030.3" depart="26.00" departLane="809719540#0_0" departPos="7.48" departSpeed="0.00" departDelay="0.29" arrival="104.00" arrivalLane="683079387#1_1" arrivalPos="6.55" arrivalSpeed="6.09" duration="78.00" routeLength="894.63" waitingTime="0.00" waitingCount="0" stopTime="0.00" timeLoss="13.49" rerouteNo="0" devices="tripinfo_flow_route_141_duration_20250327_2030.3" vType="car" speedFactor="0.87" vaporized=""/>
    <tripinfo id="flow_route_146_duration_20250327_2030.5" depart="43.00" departLane="683079387#1_0" departPos="4.34" departSpeed="0.00" departDelay="0.15" arrival="105.00" arrivalLane="-809772643#1_0" arrivalPos="191.23" arrivalSpeed="15.78" duration="62.00" routeLength="799.86" waitingTime="0.00" waitingCount="0" stopTime="0.00" timeLoss="11.16" rerouteNo="0" devices="tripinfo_flow_route_146_duration_20250327_2030.5" vType="car" speedFactor="0.96" vaporized=""/>
    <tripinfo id="flow_route_141_duration_20250327_2030.5" depart="43.00" departLane="809719540#0_0" departPos="132.33" departSpeed="0.00" departDelay="0.15" arrival="107.00" arrivalLane="683079387#1_1" arrivalPos="6.38" arrivalSpeed="6.76" duration="64.00" routeLength="769.61" waitingTime="0.00" waitingCount="0" stopTime="0.00" timeLoss="14.55" rerouteNo="0" devices="tripinfo_flow_route_141_duration_20250327_2030.5" vType="car" speedFactor="1.03" vaporized=""/>
    <tripinfo id="flow_route_146_duration_20250327_2030.6" depart="52.00" departLane="683079387#1_0" departPos="9.01" departSpeed="0.00" departDelay="0.57" arrival="115.00" arrivalLane="-809772643#1_0" arrivalPos="147.48" arrivalSpeed="14.00" duration="63.00" routeLength="751.44" waitingTime="0.00" waitingCount="0" stopTime="0.00" timeLoss="9.30" rerouteNo="0" devices="tripinfo_flow_route_146_duration_20250327_2030.6" vType="car" speedFactor="0.85" vaporized=""/>
    <tripinfo id="flow_route_142_duration_20250327_2030.13" depart="46.00" departLane="1253222187#0_0" departPos="204.83" departSpeed="0.00" departDelay="2.67" arrival="122.00" arrivalLane="683079388#0_0" arrivalPos="18.35" arrivalSpeed="16.43" duration="76.00" routeLength="611.83" waitingTime="23.00" waitingCount="1" stopTime="0.00" timeLoss="38.63" rerouteNo="0" devices="tripinfo_flow_route_142_duration_20250327_2030.13" vType="car" speedFactor="1.09" vaporized=""/>
    <tripinfo id="flow_route_142_duration_20250327_2030.4" depart="15.00" departLane="1253222187#0_0" departPos="27.28" departSpeed="0.00" departDelay="1.67" arrival="126.00" arrivalLane="683079388#0_0" arrivalPos="17.69" arrivalSpeed="15.37" duration="111.00" routeLength="788.72" waitingTime="23.00" waitingCount="2" stopTime="0.00" timeLoss="59.55" rerouteNo="0" devices="tripinfo_flow_route_142_duration_20250327_2030.4" vType="car" speedFactor="0.93" vaporized=""/>
    <tripinfo id="flow_route_143_duration_20250327_2030.3" depart="17.00" departLane="1253222187#0_0" departPos="55.68" departSpeed="0.00" departDelay="0.64" arrival="126.00" arrivalLane="1310781056_0" arrivalPos="46.65" arrivalSpeed="16.04" duration="109.00" routeLength="359.47" waitingTime="60.00" waitingCount="2" stopTime="0.00" timeLoss="86.79" rerouteNo="0" devices="tripinfo_flow_route_143_duration_20250327_2030.3" vType="car" speedFactor="0.94" vaporized=""/>
    <tripinfo id="flow_route_142_duration_20250327_2030.11" depart="37.00" departLane="1253222187#0_0" departPos="87.96" departSpeed="0.00" departDelay="0.34" arrival="127.00" arrivalLane="683079388#0_2" arrivalPos="15.11" arrivalSpeed="16.09" duration="90.00" routeLength="725.46" waitingTime="21.00" waitingCount="1" stopTime="0.00" timeLoss="44.96" rerouteNo="0" devices="tripinfo_flow_route_142_duration_20250327_2030.11" vType="car" speedFactor="0.97" vaporized=""/>
    <tripinfo id="flow_route_143_duration_20250327_2030.7" depart="39.00" departLane="1253222187#0_0" departPos="205.95" departSpeed="0.00" departDelay="0.82" arrival="128.00" arrivalLane="1310781056_0" arrivalPos="41.41" arrivalSpeed="16.32" duration="89.00" routeLength="203.96" waitingTime="62.00" waitingCount="2" stopTime="0.00" timeLoss="75.94" rerouteNo="0" devices="tripinfo_flow_route_143_duration_20250327_2030.7" vType="car" speedFactor="1.18" vaporized=""/>
    <tripinfo id="flow_route_142_duration_20250327_2030.12" depart="40.00" departLane="1253222187#0_0" departPos="63.83" departSpeed="0.00" departDelay="0.00" arrival="128.00" arrivalLane="683079388#0_0" arrivalPos="0.62" arrivalSpeed="16.58" duration="88.00" routeLength="735.10" waitingTime="15.00" waitingCount="1" stopTime="0.00" timeLoss="42.86" rerouteNo="0" devices="tripinfo_flow_route_142_duration_20250327_2030.12" vType="car" speedFactor="1.10" vaporized=""/>
    <tripinfo id="flow_route_142_duration_20250327_2030.14" depart="47.00" departLane="1253222187#0_0" departPos="72.29" departSpeed="0.00" departDelay="0.34" arrival="129.00" arrivalLane="683079388#0_2" arrivalPos="10.61" arrivalSpeed="16.15" duration="82.00" routeLength="736.63" waitingTime="12.00" waitingCount="1" stopTime="0.00" timeLoss="37.27" rerouteNo="0" devices="tripinfo_flow_route_142_duration_20250327_2030.14" vType="car" speedFactor="1.04" vaporized=""/>
    <tripinfo id="flow_route_142_duration_20250327_2030.17" depart="58.00" departLane="1253222187#0_0" departPos="58.46" departSpeed="0.00" departDelay="1.34" arrival="131.00" arrivalLane="683079388#0_0" arrivalPos="17.13" arrivalSpeed="16.26" duration="73.00" routeLength="756.97" waitingTime="3.00" waitingCount="1" stopTime="0.00" timeLoss="27.19" rerouteNo="0" devices="tripinfo_flow_route_142_duration_20250327_2030.17" vType="car" speedFactor="1.10" vaporized=""/>
    <tripinfo id="flow_route_142_duration_20250327_2030.9" depart="31.00" departLane="1253222187#0_0" departPos="9.88" departSpeed="0.00" departDelay="1.00" arrival="142.00" arrivalLane="683079388#0_0" arrivalPos="2.22" arrivalSpeed="16.41" duration="111.00" routeLength="790.65" waitingTime="32.00" waitingCount="2" stopTime="0.00" timeLoss="62.59" rerouteNo="0" devices="tripinfo_flow_route_142_duration_20250327_2030.9" vType="car" speedFactor="1.18" vaporized=""/>
    <tripinfo id="flow_route_142_duration_20250327_2030.7" depart="25.00" departLane="1253222187#0_0" departPos="38.66" departSpeed="0.00" departDelay="1.67" arrival="147.00" arrivalLane="683079388#0_0" arrivalPos="14.98" arrivalSpeed="13.30" duration="122.00" routeLength="774.63" waitingTime="42.00" waitingCount="2" stopTime="0.00" timeLoss="65.03" rerouteNo="0" devices="tripinfo_flow_route_142_duration_20250327_2030.7" vType="car" speedFactor="0.83" vaporized=""/>
    <tripinfo id="flow_route_142_duration_20250327_2030.10" depart="34.00" departLane="1253222187#0_0" departPos="61.15" departSpeed="0.00" departDelay="0.67" arrival="149.00" arrivalLane="683079388#0_0" arrivalPos="9.08" arrivalSpeed="16.15" duration="115.00" routeLength="746.24" waitingTime="39.00" waitingCount="3" stopTime="0.00" timeLoss="69.85" rerouteNo="0" devices="tripinfo_flow_route_142_duration_20250327_2030.10" vType="car" speedFactor="1.01" vaporized=""/>
    <tripinfo id="flow_route_142_duration_20250327_2030.15" depart="51.00" departLane="1253222187#0_0" departPos="59.29" departSpeed="0.00" departDelay="1.01" arrival="151.00" arrivalLane="683079388#0_2" arrivalPos="12.04" arrivalSpeed="16.28" duration="100.00" routeLength="751.06" waitingTime="20.00" waitingCount="3" stopTime="0.00" timeLoss="54.03" rerouteNo="0" devices="tripinfo_flow_route_142_duration_20250327_2030.15" vType="car" speedFactor="1.00" vaporized=""/>
    <tripinfo id="flow_route_142_duration_20250327_2030.16" depart="55.00" departLane="1253222187#0_0" departPos="32.38" departSpeed="0.00" departDelay="1.67" arrival="151.00" arrivalLane="683079388#0_0" arrivalPos="1.10" arrivalSpeed="16.44" duration="96.00" routeLength="767.03" waitingTime="13.00" waitingCount="3" stopTime="0.00" timeLoss="48.93" rerouteNo="0" devices="tripinfo_flow_route_142_duration_20250327_2030.16" vType="car" speedFactor="1.17" vaporized=""/>
    <tripinfo id="flow_route_141_duration_20250327_2030.6" depart="53.00" departLane="809719540#0_0" departPos="99.81" departSpeed="0.00" departDelay="1.57" arrival="168.00" arrivalLane="683079387#1_1" arrivalPos="1.27" arrivalSpeed="4.97" duration="115.00" routeLength="804.03" waitingTime="36.00" waitingCount="1" stopTime="0.00" timeLoss="57.15" rerouteNo="0" devices="tripinfo_flow_route_141_duration_20250327_2030.6" vType="car" speedFactor="0.88" vaporized=""/>
    <tripinfo id="flow_route_143_duration_20250327_2030.6" depart="33.00" departLane="1253222187#0_0" departPos="152.20" departSpeed="0.00" departDelay="0.28" arrival="171.00" arrivalLane="1310781056_0" arrivalPos="9.07" arrivalSpeed="15.96" duration="138.00" routeLength="225.37" waitingTime="89.00" waitingCount="2" stopTime="0.00" timeLoss="123.53" rerouteNo="0" devices="tripinfo_flow_route_143_duration_20250327_2030.6" vType="car" speedFactor="1.15" vaporized=""/>
    <tripinfo id="flow_route_143_duration_20250327_2030.5" depart="29.00" departLane="1253222187#0_0" departPos="66.17" departSpeed="0.00" departDelay="1.73" arrival="174.00" arrivalLane="1310781056_0" arrivalPos="7.59" arrivalSpeed="16.26" duration="145.00" routeLength="309.92" waitingTime="88.00" waitingCount="2" stopTime="0.00" timeLoss="125.58" rerouteNo="0" devices="tripinfo_flow_route_143_duration_20250327_2030.5" vType="car" speedFactor="1.13" vaporized=""/>
    <tripinfo id="flow_route_143_duration_20250327_2030.4" depart="22.00" departLane="1253222187#0_0" departPos="64.89" departSpeed="0.00" departDelay="0.18" arrival="178.00" arrivalLane="1310781056_0" arrivalPos="108.86" arrivalSpeed="16.49" duration="156.00" routeLength="412.46" waitingTime="88.00" waitingCount="2" stopTime="0.00" timeLoss="130.85" rerouteNo="0" devices="tripinfo_flow_route_143_duration_20250327_2030.4" vType="car" speedFactor="0.97" vaporized=""/>
    <tripinfo id="flow_route_143_duration_20250327_2030.9" depart="51.00" departLane="1253222187#0_0" departPos="150.16" departSpeed="0.00" departDelay="1.91" arrival="179.00" arrivalLane="1310781056_0" arrivalPos="75.05" arrivalSpeed="16.55" duration="128.00" routeLength="293.39" waitingTime="81.00" waitingCount="2" stopTime="0.00" timeLoss="109.95" rerouteNo="0" devices="tripinfo_flow_route_143_duration_20250327_2030.9" vType="car" speedFactor="0.90" vaporized=""/>
    <tripinfo id="flow_route_143_duration_20250327_2030.8" depart="46.00" departLane="1253222187#0_0" departPos="62.48" departSpeed="0.00" departDelay="2.37" arrival="181.00" arrivalLane="1310781056_0" arrivalPos="51.69" arrivalSpeed="16.28" duration="135.00" routeLength="357.71" waitingTime="76.00" waitingCount="2" stopTime="0.00" timeLoss="113.00" rerouteNo="0" devices="tripinfo_flow_route_143_duration_20250327_2030.8" vType="car" speedFactor="1.04" vaporized=""/>
    <tripinfo id="flow_route_143_duration_20250327_2030.10" depart="57.00" departLane="1253222187#0_0" departPos="90.84" departSpeed="0.00" departDelay="2.46" arrival="186.00" arrivalLane="1310781056_0" arrivalPos="110.93" arrivalSpeed="16.49" duration="129.00" routeLength="388.59" waitingTime="73.00" waitingCount="2" stopTime="0.00" timeLoss="105.48" rerouteNo="0" devices="tripinfo_flow_route_143_duration_20250327_2030.10" vType="car" speedFactor="1.02" vaporized=""/>
</tripinfos>
