<?xml version="1.0" encoding="UTF-8"?>

<!-- generated on 2025-05-06 21:08:27 by Eclipse SUMO sumo Version 1.20.0
<configuration xmlns:xsi="http://www.w3.org/2001/XMLSchema-instance" xsi:noNamespaceSchemaLocation="http://sumo.dlr.de/xsd/sumoConfiguration.xsd">

    <input>
        <net-file value="osm.net.xml"/>
        <route-files value="xml/route_static_GS_cluster_1342409365_3839031467_4.rou.xml"/>
    </input>

    <output>
        <tripinfo-output value="xml/tripinfo_static_GS_cluster_1342409365_3839031467_4.xml"/>
    </output>

    <traci_server>
        <remote-port value="48049"/>
    </traci_server>

</configuration>
-->

<tripinfos xmlns:xsi="http://www.w3.org/2001/XMLSchema-instance" xsi:noNamespaceSchemaLocation="http://sumo.dlr.de/xsd/tripinfo_file.xsd">
    <tripinfo id="flow_route_128_duration_20250327_2200.0" depart="0.00" departLane="134133272_0" departPos="226.49" departSpeed="0.00" departDelay="0.00" arrival="31.00" arrivalLane="380585338#0_0" arrivalPos="7.57" arrivalSpeed="5.61" duration="31.00" routeLength="279.28" waitingTime="0.00" waitingCount="0" stopTime="0.00" timeLoss="10.65" rerouteNo="0" devices="tripinfo_flow_route_128_duration_20250327_2200.0" vType="car" speedFactor="0.83" vaporized=""/>
    <tripinfo id="flow_route_92_duration_20250327_2200.1" depart="5.00" departLane="133000063_0" departPos="109.11" departSpeed="0.00" departDelay="0.39" arrival="38.00" arrivalLane="186409193_0" arrivalPos="29.97" arrivalSpeed="15.26" duration="33.00" routeLength="312.72" waitingTime="0.00" waitingCount="0" stopTime="0.00" timeLoss="13.48" rerouteNo="0" devices="tripinfo_flow_route_92_duration_20250327_2200.1" vType="car" speedFactor="1.09" vaporized=""/>
    <tripinfo id="flow_route_91_duration_20250327_2200.0" depart="0.00" departLane="133000063_0" departPos="128.34" departSpeed="0.00" departDelay="0.00" arrival="47.00" arrivalLane="683079387#1_0" arrivalPos="9.10" arrivalSpeed="16.38" duration="47.00" routeLength="599.49" waitingTime="0.00" waitingCount="0" stopTime="0.00" timeLoss="10.84" rerouteNo="0" devices="tripinfo_flow_route_91_duration_20250327_2200.0" vType="car" speedFactor="1.06" vaporized=""/>
    <tripinfo id="flow_route_128_duration_20250327_2200.1" depart="20.00" departLane="134133272_0" departPos="381.93" departSpeed="0.00" departDelay="0.00" arrival="56.00" arrivalLane="380585338#0_0" arrivalPos="166.69" arrivalSpeed="16.14" duration="36.00" routeLength="282.96" waitingTime="0.00" waitingCount="0" stopTime="0.00" timeLoss="16.70" rerouteNo="0" devices="tripinfo_flow_route_128_duration_20250327_2200.1" vType="car" speedFactor="0.97" vaporized=""/>
    <tripinfo id="flow_route_103_duration_20250327_2200.0" depart="1.00" departLane="1342963997_0" departPos="57.81" departSpeed="0.00" departDelay="1.00" arrival="61.00" arrivalLane="683079387#1_0" arrivalPos="6.02" arrivalSpeed="16.51" duration="60.00" routeLength="524.42" waitingTime="4.00" waitingCount="1" stopTime="0.00" timeLoss="27.69" rerouteNo="0" devices="tripinfo_flow_route_103_duration_20250327_2200.0" vType="car" speedFactor="1.03" vaporized=""/>
    <tripinfo id="flow_route_93_duration_20250327_2200.0" depart="0.00" departLane="133000063_0" departPos="115.92" departSpeed="0.00" departDelay="0.00" arrival="66.00" arrivalLane="380585336_1" arrivalPos="19.16" arrivalSpeed="16.38" duration="66.00" routeLength="758.54" waitingTime="0.00" waitingCount="0" stopTime="0.00" timeLoss="19.72" rerouteNo="0" devices="tripinfo_flow_route_93_duration_20250327_2200.0" vType="car" speedFactor="1.01" vaporized=""/>
    <tripinfo id="flow_route_144_duration_20250327_2200.1" depart="10.00" departLane="683079388#0_0" departPos="19.74" departSpeed="0.00" departDelay="0.00" arrival="67.00" arrivalLane="380585338#0_1" arrivalPos="5.63" arrivalSpeed="7.11" duration="57.00" routeLength="565.63" waitingTime="1.00" waitingCount="1" stopTime="0.00" timeLoss="22.36" rerouteNo="0" devices="tripinfo_flow_route_144_duration_20250327_2200.1" vType="car" speedFactor="0.99" vaporized=""/>
    <tripinfo id="flow_route_145_duration_20250327_2200.0" depart="0.00" departLane="683079388#0_0" departPos="22.61" departSpeed="0.00" departDelay="0.00" arrival="68.00" arrivalLane="380585336_0" arrivalPos="229.76" arrivalSpeed="15.56" duration="68.00" routeLength="831.39" waitingTime="0.00" waitingCount="0" stopTime="0.00" timeLoss="15.36" rerouteNo="0" devices="tripinfo_flow_route_145_duration_20250327_2200.0" vType="car" speedFactor="0.94" vaporized=""/>
    <tripinfo id="flow_route_102_duration_20250327_2200.0" depart="0.00" departLane="1342963997_0" departPos="83.70" departSpeed="0.00" departDelay="0.00" arrival="69.00" arrivalLane="380585336_1" arrivalPos="207.08" arrivalSpeed="16.40" duration="69.00" routeLength="834.32" waitingTime="0.00" waitingCount="0" stopTime="0.00" timeLoss="17.99" rerouteNo="0" devices="tripinfo_flow_route_102_duration_20250327_2200.0" vType="car" speedFactor="1.08" vaporized=""/>
    <tripinfo id="flow_route_144_duration_20250327_2200.0" depart="0.00" departLane="683079388#0_0" departPos="1.56" departSpeed="0.00" departDelay="0.00" arrival="71.00" arrivalLane="380585338#0_0" arrivalPos="42.98" arrivalSpeed="9.78" duration="71.00" routeLength="621.16" waitingTime="8.00" waitingCount="1" stopTime="0.00" timeLoss="28.71" rerouteNo="0" devices="tripinfo_flow_route_144_duration_20250327_2200.0" vType="car" speedFactor="0.89" vaporized=""/>
    <tripinfo id="flow_route_103_duration_20250327_2200.1" depart="31.00" departLane="1342963997_0" departPos="121.86" departSpeed="0.00" departDelay="1.00" arrival="71.00" arrivalLane="683079387#1_0" arrivalPos="0.48" arrivalSpeed="16.33" duration="40.00" routeLength="454.82" waitingTime="0.00" waitingCount="0" stopTime="0.00" timeLoss="11.64" rerouteNo="0" devices="tripinfo_flow_route_103_duration_20250327_2200.1" vType="car" speedFactor="1.18" vaporized=""/>
    <tripinfo id="flow_route_129_duration_20250327_2200.0" depart="0.00" departLane="134133272_0" departPos="105.80" departSpeed="0.00" departDelay="0.00" arrival="73.00" arrivalLane="683079387#1_0" arrivalPos="7.59" arrivalSpeed="16.10" duration="73.00" routeLength="945.90" waitingTime="0.00" waitingCount="0" stopTime="0.00" timeLoss="15.32" rerouteNo="0" devices="tripinfo_flow_route_129_duration_20250327_2200.0" vType="car" speedFactor="1.05" vaporized=""/>
    <tripinfo id="flow_route_144_duration_20250327_2200.2" depart="20.00" departLane="683079388#0_0" departPos="4.73" departSpeed="0.00" departDelay="0.00" arrival="74.00" arrivalLane="380585338#0_0" arrivalPos="53.45" arrivalSpeed="13.63" duration="54.00" routeLength="628.45" waitingTime="0.00" waitingCount="0" stopTime="0.00" timeLoss="11.04" rerouteNo="0" devices="tripinfo_flow_route_144_duration_20250327_2200.2" vType="car" speedFactor="0.89" vaporized=""/>
    <tripinfo id="flow_route_144_duration_20250327_2200.3" depart="30.00" departLane="683079388#0_0" departPos="7.49" departSpeed="0.00" departDelay="0.00" arrival="76.00" arrivalLane="380585338#0_0" arrivalPos="13.89" arrivalSpeed="16.41" duration="46.00" routeLength="586.14" waitingTime="0.00" waitingCount="0" stopTime="0.00" timeLoss="10.52" rerouteNo="0" devices="tripinfo_flow_route_144_duration_20250327_2200.3" vType="car" speedFactor="1.15" vaporized=""/>
    <tripinfo id="flow_route_92_duration_20250327_2200.2" depart="12.00" departLane="133000063_0" departPos="118.00" departSpeed="0.00" departDelay="2.77" arrival="87.00" arrivalLane="186409193_0" arrivalPos="13.83" arrivalSpeed="15.00" duration="75.00" routeLength="287.69" waitingTime="34.00" waitingCount="1" stopTime="0.00" timeLoss="56.93" rerouteNo="0" devices="tripinfo_flow_route_92_duration_20250327_2200.2" vType="car" speedFactor="1.12" vaporized=""/>
    <tripinfo id="flow_route_92_duration_20250327_2200.0" depart="0.00" departLane="133000063_0" departPos="1.04" departSpeed="0.00" departDelay="0.00" arrival="94.00" arrivalLane="186409193_0" arrivalPos="41.62" arrivalSpeed="15.49" duration="94.00" routeLength="432.44" waitingTime="33.00" waitingCount="1" stopTime="0.00" timeLoss="65.17" rerouteNo="0" devices="tripinfo_flow_route_92_duration_20250327_2200.0" vType="car" speedFactor="0.94" vaporized=""/>
    <tripinfo id="flow_route_102_duration_20250327_2200.1" depart="9.00" departLane="1342963997_0" departPos="97.74" departSpeed="0.00" departDelay="0.43" arrival="97.00" arrivalLane="380585336_0" arrivalPos="374.01" arrivalSpeed="16.31" duration="88.00" routeLength="987.22" waitingTime="2.00" waitingCount="1" stopTime="0.00" timeLoss="27.30" rerouteNo="0" devices="tripinfo_flow_route_102_duration_20250327_2200.1" vType="car" speedFactor="1.05" vaporized=""/>
    <tripinfo id="flow_route_92_duration_20250327_2200.3" depart="15.00" departLane="133000063_0" departPos="45.48" departSpeed="0.00" departDelay="1.16" arrival="98.00" arrivalLane="186409193_0" arrivalPos="7.32" arrivalSpeed="13.09" duration="83.00" routeLength="353.70" waitingTime="15.00" waitingCount="2" stopTime="0.00" timeLoss="57.35" rerouteNo="0" devices="tripinfo_flow_route_92_duration_20250327_2200.3" vType="car" speedFactor="0.88" vaporized=""/>
    <tripinfo id="flow_route_102_duration_20250327_2200.2" depart="18.00" departLane="1342963997_0" departPos="119.97" departSpeed="0.00" departDelay="0.86" arrival="99.00" arrivalLane="380585336_0" arrivalPos="342.02" arrivalSpeed="16.31" duration="81.00" routeLength="933.00" waitingTime="0.00" waitingCount="0" stopTime="0.00" timeLoss="23.82" rerouteNo="0" devices="tripinfo_flow_route_102_duration_20250327_2200.2" vType="car" speedFactor="1.16" vaporized=""/>
    <tripinfo id="flow_route_128_duration_20250327_2200.2" depart="40.00" departLane="134133272_0" departPos="137.14" departSpeed="0.00" departDelay="0.00" arrival="100.00" arrivalLane="380585338#0_0" arrivalPos="168.70" arrivalSpeed="14.89" duration="60.00" routeLength="529.76" waitingTime="4.00" waitingCount="1" stopTime="0.00" timeLoss="23.75" rerouteNo="0" devices="tripinfo_flow_route_128_duration_20250327_2200.2" vType="car" speedFactor="0.90" vaporized=""/>
    <tripinfo id="flow_route_102_duration_20250327_2200.3" depart="26.00" departLane="1342963997_0" departPos="56.36" departSpeed="0.00" departDelay="0.29" arrival="101.00" arrivalLane="380585336_1" arrivalPos="75.41" arrivalSpeed="15.58" duration="75.00" routeLength="730.01" waitingTime="1.00" waitingCount="1" stopTime="0.00" timeLoss="28.47" rerouteNo="0" devices="tripinfo_flow_route_102_duration_20250327_2200.3" vType="car" speedFactor="0.95" vaporized=""/>
    <tripinfo id="flow_route_91_duration_20250327_2200.1" depart="20.00" departLane="133000063_0" departPos="29.01" departSpeed="0.00" departDelay="0.00" arrival="103.00" arrivalLane="683079387#1_0" arrivalPos="9.55" arrivalSpeed="16.56" duration="83.00" routeLength="699.27" waitingTime="15.00" waitingCount="1" stopTime="0.00" timeLoss="39.97" rerouteNo="0" devices="tripinfo_flow_route_91_duration_20250327_2200.1" vType="car" speedFactor="1.01" vaporized=""/>
    <tripinfo id="flow_route_92_duration_20250327_2200.4" depart="20.00" departLane="133000063_0" departPos="99.91" departSpeed="0.00" departDelay="1.54" arrival="105.00" arrivalLane="186409193_0" arrivalPos="41.80" arrivalSpeed="15.28" duration="85.00" routeLength="333.75" waitingTime="23.00" waitingCount="3" stopTime="0.00" timeLoss="64.23" rerouteNo="0" devices="tripinfo_flow_route_92_duration_20250327_2200.4" vType="car" speedFactor="1.02" vaporized=""/>
    <tripinfo id="flow_route_102_duration_20250327_2200.4" depart="35.00" departLane="1342963997_0" departPos="65.57" departSpeed="0.00" departDelay="0.72" arrival="112.00" arrivalLane="380585336_2" arrivalPos="246.50" arrivalSpeed="16.12" duration="77.00" routeLength="891.88" waitingTime="0.00" waitingCount="0" stopTime="0.00" timeLoss="22.39" rerouteNo="0" devices="tripinfo_flow_route_102_duration_20250327_2200.4" vType="car" speedFactor="0.99" vaporized=""/>
    <tripinfo id="flow_route_92_duration_20250327_2200.6" depart="36.00" departLane="133000063_0" departPos="18.04" departSpeed="0.00" departDelay="8.31" arrival="113.00" arrivalLane="186409193_0" arrivalPos="5.03" arrivalSpeed="14.67" duration="77.00" routeLength="378.85" waitingTime="2.00" waitingCount="2" stopTime="0.00" timeLoss="53.43" rerouteNo="0" devices="tripinfo_flow_route_92_duration_20250327_2200.6" vType="car" speedFactor="1.13" vaporized=""/>
    <tripinfo id="flow_route_91_duration_20250327_2200.2" depart="51.00" departLane="133000063_0" departPos="65.36" departSpeed="0.00" departDelay="11.00" arrival="113.00" arrivalLane="683079387#1_1" arrivalPos="5.86" arrivalSpeed="16.60" duration="62.00" routeLength="659.23" waitingTime="1.00" waitingCount="1" stopTime="0.00" timeLoss="22.06" rerouteNo="0" devices="tripinfo_flow_route_91_duration_20250327_2200.2" vType="car" speedFactor="1.10" vaporized=""/>
    <tripinfo id="flow_route_102_duration_20250327_2200.5" depart="43.00" departLane="1342963997_0" departPos="22.32" departSpeed="0.00" departDelay="0.15" arrival="114.00" arrivalLane="380585336_1" arrivalPos="118.49" arrivalSpeed="16.13" duration="71.00" routeLength="807.12" waitingTime="0.00" waitingCount="0" stopTime="0.00" timeLoss="21.51" rerouteNo="0" devices="tripinfo_flow_route_102_duration_20250327_2200.5" vType="car" speedFactor="1.04" vaporized=""/>
    <tripinfo id="flow_route_144_duration_20250327_2200.4" depart="40.00" departLane="683079388#0_0" departPos="18.06" departSpeed="0.00" departDelay="0.00" arrival="131.00" arrivalLane="380585338#0_0" arrivalPos="51.46" arrivalSpeed="10.65" duration="91.00" routeLength="613.14" waitingTime="31.00" waitingCount="1" stopTime="0.00" timeLoss="53.46" rerouteNo="0" devices="tripinfo_flow_route_144_duration_20250327_2200.4" vType="car" speedFactor="1.03" vaporized=""/>
    <tripinfo id="flow_route_144_duration_20250327_2200.5" depart="50.00" departLane="683079388#0_0" departPos="15.21" departSpeed="0.00" departDelay="0.00" arrival="132.00" arrivalLane="380585338#0_1" arrivalPos="59.83" arrivalSpeed="11.02" duration="82.00" routeLength="624.36" waitingTime="19.00" waitingCount="1" stopTime="0.00" timeLoss="40.05" rerouteNo="0" devices="tripinfo_flow_route_144_duration_20250327_2200.5" vType="car" speedFactor="0.90" vaporized=""/>
    <tripinfo id="flow_route_93_duration_20250327_2200.5" depart="20.00" departLane="133000063_0" departPos="84.84" departSpeed="0.00" departDelay="2.36" arrival="135.00" arrivalLane="380585336_1" arrivalPos="101.71" arrivalSpeed="15.52" duration="115.00" routeLength="872.16" waitingTime="14.00" waitingCount="2" stopTime="0.00" timeLoss="58.85" rerouteNo="0" devices="tripinfo_flow_route_93_duration_20250327_2200.5" vType="car" speedFactor="0.94" vaporized=""/>
    <tripinfo id="flow_route_102_duration_20250327_2200.6" depart="52.00" departLane="1342963997_0" departPos="18.47" departSpeed="0.00" departDelay="0.57" arrival="137.00" arrivalLane="380585336_0" arrivalPos="249.73" arrivalSpeed="13.84" duration="85.00" routeLength="942.21" waitingTime="0.00" waitingCount="0" stopTime="0.00" timeLoss="20.38" rerouteNo="0" devices="tripinfo_flow_route_102_duration_20250327_2200.6" vType="car" speedFactor="0.85" vaporized=""/>
    <tripinfo id="flow_route_93_duration_20250327_2200.3" depart="13.00" departLane="133000063_0" departPos="22.28" departSpeed="0.00" departDelay="2.41" arrival="138.00" arrivalLane="380585336_1" arrivalPos="67.04" arrivalSpeed="15.42" duration="125.00" routeLength="900.05" waitingTime="8.00" waitingCount="1" stopTime="0.00" timeLoss="66.31" rerouteNo="0" devices="tripinfo_flow_route_93_duration_20250327_2200.3" vType="car" speedFactor="0.93" vaporized=""/>
    <tripinfo id="flow_route_93_duration_20250327_2200.11" depart="50.00" departLane="133000063_0" departPos="114.25" departSpeed="0.00" departDelay="11.18" arrival="141.00" arrivalLane="380585336_2" arrivalPos="192.05" arrivalSpeed="16.35" duration="91.00" routeLength="933.09" waitingTime="1.00" waitingCount="1" stopTime="0.00" timeLoss="34.58" rerouteNo="0" devices="tripinfo_flow_route_93_duration_20250327_2200.11" vType="car" speedFactor="1.18" vaporized=""/>
    <tripinfo id="flow_route_93_duration_20250327_2200.2" depart="12.00" departLane="133000063_0" departPos="5.14" departSpeed="0.00" departDelay="4.94" arrival="146.00" arrivalLane="380585336_1" arrivalPos="395.67" arrivalSpeed="16.56" duration="134.00" routeLength="1245.83" waitingTime="23.00" waitingCount="1" stopTime="0.00" timeLoss="58.90" rerouteNo="0" devices="tripinfo_flow_route_93_duration_20250327_2200.2" vType="car" speedFactor="1.03" vaporized=""/>
    <tripinfo id="flow_route_93_duration_20250327_2200.4" depart="19.00" departLane="133000063_0" departPos="102.69" departSpeed="0.00" departDelay="4.88" arrival="146.00" arrivalLane="380585336_2" arrivalPos="406.42" arrivalSpeed="15.65" duration="127.00" routeLength="1159.02" waitingTime="24.00" waitingCount="1" stopTime="0.00" timeLoss="53.44" rerouteNo="0" devices="tripinfo_flow_route_93_duration_20250327_2200.4" vType="car" speedFactor="0.94" vaporized=""/>
    <tripinfo id="flow_route_93_duration_20250327_2200.1" depart="5.00" departLane="133000063_0" departPos="52.89" departSpeed="0.00" departDelay="1.47" arrival="147.00" arrivalLane="380585336_0" arrivalPos="288.04" arrivalSpeed="13.93" duration="142.00" routeLength="1090.45" waitingTime="33.00" waitingCount="1" stopTime="0.00" timeLoss="65.65" rerouteNo="0" devices="tripinfo_flow_route_93_duration_20250327_2200.1" vType="car" speedFactor="0.86" vaporized=""/>
    <tripinfo id="flow_route_92_duration_20250327_2200.5" depart="36.00" departLane="133000063_0" departPos="4.11" departSpeed="0.00" departDelay="12.93" arrival="148.00" arrivalLane="186409193_0" arrivalPos="16.29" arrivalSpeed="13.69" duration="112.00" routeLength="404.04" waitingTime="38.00" waitingCount="2" stopTime="0.00" timeLoss="82.96" rerouteNo="0" devices="tripinfo_flow_route_92_duration_20250327_2200.5" vType="car" speedFactor="0.87" vaporized=""/>
    <tripinfo id="flow_route_93_duration_20250327_2200.8" depart="38.00" departLane="133000063_0" departPos="84.86" departSpeed="0.00" departDelay="9.77" arrival="151.00" arrivalLane="380585336_1" arrivalPos="87.29" arrivalSpeed="15.39" duration="113.00" routeLength="857.72" waitingTime="8.00" waitingCount="1" stopTime="0.00" timeLoss="57.55" rerouteNo="0" devices="tripinfo_flow_route_93_duration_20250327_2200.8" vType="car" speedFactor="0.93" vaporized=""/>
    <tripinfo id="flow_route_92_duration_20250327_2200.7" depart="45.00" departLane="133000063_0" departPos="24.31" departSpeed="0.00" departDelay="12.70" arrival="151.00" arrivalLane="186409193_0" arrivalPos="22.77" arrivalSpeed="15.03" duration="106.00" routeLength="390.32" waitingTime="37.00" waitingCount="1" stopTime="0.00" timeLoss="81.83" rerouteNo="0" devices="tripinfo_flow_route_92_duration_20250327_2200.7" vType="car" speedFactor="1.17" vaporized=""/>
    <tripinfo id="flow_route_92_duration_20250327_2200.8" depart="46.00" departLane="133000063_0" departPos="7.34" departSpeed="0.00" departDelay="9.08" arrival="155.00" arrivalLane="186409193_0" arrivalPos="36.53" arrivalSpeed="15.24" duration="109.00" routeLength="421.05" waitingTime="36.00" waitingCount="1" stopTime="0.00" timeLoss="81.69" rerouteNo="0" devices="tripinfo_flow_route_92_duration_20250327_2200.8" vType="car" speedFactor="0.97" vaporized=""/>
    <tripinfo id="flow_route_92_duration_20250327_2200.11" depart="77.00" departLane="133000063_0" departPos="57.33" departSpeed="0.00" departDelay="26.24" arrival="156.00" arrivalLane="186409193_0" arrivalPos="16.20" arrivalSpeed="13.69" duration="79.00" routeLength="350.73" waitingTime="8.00" waitingCount="2" stopTime="0.00" timeLoss="54.23" rerouteNo="0" devices="tripinfo_flow_route_92_duration_20250327_2200.11" vType="car" speedFactor="0.88" vaporized=""/>
    <tripinfo id="flow_route_93_duration_20250327_2200.6" depart="23.00" departLane="133000063_0" departPos="4.79" departSpeed="0.00" departDelay="1.83" arrival="158.00" arrivalLane="380585336_0" arrivalPos="270.36" arrivalSpeed="13.32" duration="135.00" routeLength="1120.86" waitingTime="13.00" waitingCount="1" stopTime="0.00" timeLoss="54.07" rerouteNo="0" devices="tripinfo_flow_route_93_duration_20250327_2200.6" vType="car" speedFactor="0.83" vaporized=""/>
    <tripinfo id="flow_route_93_duration_20250327_2200.9" depart="38.00" departLane="133000063_0" departPos="73.22" departSpeed="0.00" departDelay="6.24" arrival="158.00" arrivalLane="380585336_1" arrivalPos="178.33" arrivalSpeed="16.48" duration="120.00" routeLength="960.40" waitingTime="12.00" waitingCount="1" stopTime="0.00" timeLoss="61.65" rerouteNo="0" devices="tripinfo_flow_route_93_duration_20250327_2200.9" vType="car" speedFactor="1.01" vaporized=""/>
    <tripinfo id="flow_route_93_duration_20250327_2200.13" depart="62.00" departLane="133000063_0" departPos="58.36" departSpeed="0.00" departDelay="16.12" arrival="158.00" arrivalLane="380585336_1" arrivalPos="156.58" arrivalSpeed="16.49" duration="96.00" routeLength="953.51" waitingTime="0.00" waitingCount="0" stopTime="0.00" timeLoss="38.29" rerouteNo="0" devices="tripinfo_flow_route_93_duration_20250327_2200.13" vType="car" speedFactor="1.04" vaporized=""/>
    <tripinfo id="flow_route_93_duration_20250327_2200.10" depart="46.00" departLane="133000063_0" departPos="82.68" departSpeed="0.00" departDelay="10.71" arrival="163.00" arrivalLane="380585336_1" arrivalPos="411.59" arrivalSpeed="16.30" duration="117.00" routeLength="1184.21" waitingTime="3.00" waitingCount="1" stopTime="0.00" timeLoss="45.07" rerouteNo="0" devices="tripinfo_flow_route_93_duration_20250327_2200.10" vType="car" speedFactor="1.02" vaporized=""/>
    <tripinfo id="flow_route_92_duration_20250327_2200.9" depart="56.00" departLane="133000063_0" departPos="2.52" departSpeed="0.00" departDelay="14.47" arrival="163.00" arrivalLane="186409193_0" arrivalPos="27.24" arrivalSpeed="14.26" duration="107.00" routeLength="416.58" waitingTime="14.00" waitingCount="2" stopTime="0.00" timeLoss="79.43" rerouteNo="0" devices="tripinfo_flow_route_92_duration_20250327_2200.9" vType="car" speedFactor="0.96" vaporized=""/>
    <tripinfo id="flow_route_92_duration_20250327_2200.10" depart="62.00" departLane="133000063_0" departPos="0.15" departSpeed="0.00" departDelay="15.85" arrival="165.00" arrivalLane="186409193_0" arrivalPos="39.45" arrivalSpeed="15.04" duration="103.00" routeLength="431.17" waitingTime="17.00" waitingCount="3" stopTime="0.00" timeLoss="76.06" rerouteNo="0" devices="tripinfo_flow_route_92_duration_20250327_2200.10" vType="car" speedFactor="1.09" vaporized=""/>
    <tripinfo id="flow_route_92_duration_20250327_2200.12" depart="77.00" departLane="133000063_0" departPos="26.41" departSpeed="0.00" departDelay="21.62" arrival="166.00" arrivalLane="186409193_0" arrivalPos="32.09" arrivalSpeed="14.85" duration="89.00" routeLength="397.53" waitingTime="4.00" waitingCount="2" stopTime="0.00" timeLoss="64.58" rerouteNo="0" devices="tripinfo_flow_route_92_duration_20250327_2200.12" vType="car" speedFactor="1.17" vaporized=""/>
    <tripinfo id="flow_route_93_duration_20250327_2200.7" depart="36.00" departLane="133000063_0" departPos="52.14" departSpeed="0.00" departDelay="11.30" arrival="168.00" arrivalLane="380585336_0" arrivalPos="391.07" arrivalSpeed="14.86" duration="132.00" routeLength="1194.21" waitingTime="7.00" waitingCount="1" stopTime="0.00" timeLoss="53.98" rerouteNo="0" devices="tripinfo_flow_route_93_duration_20250327_2200.7" vType="car" speedFactor="0.92" vaporized=""/>
    <tripinfo id="flow_route_93_duration_20250327_2200.12" depart="59.00" departLane="133000063_0" departPos="28.85" departSpeed="0.00" departDelay="16.65" arrival="203.00" arrivalLane="380585336_1" arrivalPos="329.08" arrivalSpeed="16.23" duration="144.00" routeLength="1155.52" waitingTime="16.00" waitingCount="3" stopTime="0.00" timeLoss="73.60" rerouteNo="0" devices="tripinfo_flow_route_93_duration_20250327_2200.12" vType="car" speedFactor="1.09" vaporized=""/>
    <tripinfo id="flow_route_93_duration_20250327_2200.14" depart="65.00" departLane="133000063_0" departPos="83.78" departSpeed="0.00" departDelay="15.59" arrival="204.00" arrivalLane="380585336_1" arrivalPos="381.09" arrivalSpeed="16.24" duration="139.00" routeLength="1152.60" waitingTime="24.00" waitingCount="2" stopTime="0.00" timeLoss="69.31" rerouteNo="0" devices="tripinfo_flow_route_93_duration_20250327_2200.14" vType="car" speedFactor="1.00" vaporized=""/>
    <tripinfo id="flow_route_93_duration_20250327_2200.15" depart="77.00" departLane="133000063_0" departPos="35.74" departSpeed="0.00" departDelay="24.07" arrival="204.00" arrivalLane="380585336_0" arrivalPos="360.92" arrivalSpeed="14.00" duration="127.00" routeLength="1180.47" waitingTime="9.00" waitingCount="2" stopTime="0.00" timeLoss="44.87" rerouteNo="0" devices="tripinfo_flow_route_93_duration_20250327_2200.15" vType="car" speedFactor="0.85" vaporized=""/>
    <tripinfo id="flow_route_93_duration_20250327_2200.16" depart="80.00" departLane="133000063_0" departPos="76.58" departSpeed="0.00" departDelay="23.54" arrival="213.00" arrivalLane="380585336_0" arrivalPos="373.83" arrivalSpeed="16.39" duration="133.00" routeLength="1152.55" waitingTime="14.00" waitingCount="4" stopTime="0.00" timeLoss="62.99" rerouteNo="0" devices="tripinfo_flow_route_93_duration_20250327_2200.16" vType="car" speedFactor="1.02" vaporized=""/>
</tripinfos>
