<?xml version="1.0" encoding="UTF-8"?>

<!-- generated on 2025-05-06 21:09:06 by Eclipse SUMO sumo Version 1.20.0
<configuration xmlns:xsi="http://www.w3.org/2001/XMLSchema-instance" xsi:noNamespaceSchemaLocation="http://sumo.dlr.de/xsd/sumoConfiguration.xsd">

    <input>
        <net-file value="osm.net.xml"/>
        <route-files value="xml/route_static_11644940310_8.rou.xml"/>
    </input>

    <output>
        <tripinfo-output value="xml/tripinfo_static_11644940310_8.xml"/>
    </output>

    <traci_server>
        <remote-port value="43883"/>
    </traci_server>

</configuration>
-->

<tripinfos xmlns:xsi="http://www.w3.org/2001/XMLSchema-instance" xsi:noNamespaceSchemaLocation="http://sumo.dlr.de/xsd/tripinfo_file.xsd">
    <tripinfo id="flow_route_27_duration_20250327_2040.0" depart="0.00" departLane="1254771874#0_0" departPos="190.47" departSpeed="0.00" departDelay="0.00" arrival="16.00" arrivalLane="138002006#0_1" arrivalPos="4.04" arrivalSpeed="9.09" duration="16.00" routeLength="85.46" waitingTime="0.00" waitingCount="0" stopTime="0.00" timeLoss="10.01" rerouteNo="0" devices="tripinfo_flow_route_27_duration_20250327_2040.0" vType="car" speedFactor="1.01" vaporized=""/>
    <tripinfo id="flow_route_27_duration_20250327_2040.1" depart="6.00" departLane="1254771874#0_0" departPos="223.82" departSpeed="0.00" departDelay="0.00" arrival="22.00" arrivalLane="138002006#0_1" arrivalPos="5.35" arrivalSpeed="8.07" duration="16.00" routeLength="53.42" waitingTime="0.00" waitingCount="0" stopTime="0.00" timeLoss="11.05" rerouteNo="0" devices="tripinfo_flow_route_27_duration_20250327_2040.1" vType="car" speedFactor="0.89" vaporized=""/>
    <tripinfo id="flow_route_25_duration_20250327_2040.1" depart="12.00" departLane="1254771874#0_0" departPos="240.04" departSpeed="0.00" departDelay="0.00" arrival="23.00" arrivalLane="1341093415#0_0" arrivalPos="8.23" arrivalSpeed="8.02" duration="11.00" routeLength="45.98" waitingTime="0.00" waitingCount="0" stopTime="0.00" timeLoss="8.08" rerouteNo="0" devices="tripinfo_flow_route_25_duration_20250327_2040.1" vType="car" speedFactor="0.86" vaporized=""/>
    <tripinfo id="flow_route_25_duration_20250327_2040.0" depart="0.00" departLane="1254771874#0_0" departPos="63.27" departSpeed="0.00" departDelay="0.00" arrival="34.00" arrivalLane="1341093415#0_1" arrivalPos="158.81" arrivalSpeed="16.46" duration="34.00" routeLength="373.33" waitingTime="0.00" waitingCount="0" stopTime="0.00" timeLoss="10.85" rerouteNo="0" devices="tripinfo_flow_route_25_duration_20250327_2040.0" vType="car" speedFactor="1.06" vaporized=""/>
    <tripinfo id="flow_route_50_duration_20250327_2040.0" depart="0.00" departLane="-138002006#3_0" departPos="41.39" departSpeed="0.00" departDelay="0.00" arrival="35.00" arrivalLane="-422986370#2_0" arrivalPos="13.06" arrivalSpeed="6.90" duration="35.00" routeLength="82.72" waitingTime="13.00" waitingCount="1" stopTime="0.00" timeLoss="28.92" rerouteNo="0" devices="tripinfo_flow_route_50_duration_20250327_2040.0" vType="car" speedFactor="0.83" vaporized=""/>
    <tripinfo id="flow_route_41_duration_20250327_2040.1" depart="15.00" departLane="1369578054_0" departPos="229.08" departSpeed="0.00" departDelay="3.00" arrival="35.00" arrivalLane="138002006#0_1" arrivalPos="56.23" arrivalSpeed="14.54" duration="20.00" routeLength="149.09" waitingTime="0.00" waitingCount="0" stopTime="0.00" timeLoss="10.68" rerouteNo="0" devices="tripinfo_flow_route_41_duration_20250327_2040.1" vType="car" speedFactor="1.05" vaporized=""/>
    <tripinfo id="flow_route_41_duration_20250327_2040.0" depart="0.00" departLane="1369578054_0" departPos="201.66" departSpeed="0.00" departDelay="0.00" arrival="39.00" arrivalLane="138002006#0_0" arrivalPos="52.37" arrivalSpeed="11.45" duration="39.00" routeLength="172.64" waitingTime="8.00" waitingCount="1" stopTime="0.00" timeLoss="28.02" rerouteNo="0" devices="tripinfo_flow_route_41_duration_20250327_2040.0" vType="car" speedFactor="1.03" vaporized=""/>
    <tripinfo id="flow_route_40_duration_20250327_2040.1" depart="10.00" departLane="1369578054_0" departPos="204.84" departSpeed="0.00" departDelay="0.00" arrival="40.00" arrivalLane="1341093415#0_0" arrivalPos="57.39" arrivalSpeed="11.31" duration="30.00" routeLength="163.47" waitingTime="0.00" waitingCount="0" stopTime="0.00" timeLoss="18.40" rerouteNo="0" devices="tripinfo_flow_route_40_duration_20250327_2040.1" vType="car" speedFactor="0.94" vaporized=""/>
    <tripinfo id="flow_route_26_duration_20250327_2040.0" depart="0.00" departLane="1254771874#0_0" departPos="139.38" departSpeed="0.00" departDelay="0.00" arrival="41.00" arrivalLane="-422986370#2_0" arrivalPos="213.43" arrivalSpeed="15.35" duration="41.00" routeLength="338.64" waitingTime="0.00" waitingCount="0" stopTime="0.00" timeLoss="18.06" rerouteNo="0" devices="tripinfo_flow_route_26_duration_20250327_2040.0" vType="car" speedFactor="0.94" vaporized=""/>
    <tripinfo id="flow_route_40_duration_20250327_2040.0" depart="0.00" departLane="1369578054_0" departPos="1.81" departSpeed="0.00" departDelay="0.00" arrival="44.00" arrivalLane="1341093415#0_0" arrivalPos="87.60" arrivalSpeed="13.05" duration="44.00" routeLength="396.71" waitingTime="0.00" waitingCount="0" stopTime="0.00" timeLoss="18.92" rerouteNo="0" devices="tripinfo_flow_route_40_duration_20250327_2040.0" vType="car" speedFactor="1.08" vaporized=""/>
    <tripinfo id="flow_route_41_duration_20250327_2040.2" depart="24.00" departLane="1369578054_0" departPos="171.28" departSpeed="0.00" departDelay="0.00" arrival="50.00" arrivalLane="138002006#0_1" arrivalPos="85.62" arrivalSpeed="15.32" duration="26.00" routeLength="236.28" waitingTime="0.00" waitingCount="0" stopTime="0.00" timeLoss="9.91" rerouteNo="0" devices="tripinfo_flow_route_41_duration_20250327_2040.2" vType="car" speedFactor="0.94" vaporized=""/>
    <tripinfo id="flow_route_51_duration_20250327_2040.0" depart="2.00" departLane="-138002006#3_0" departPos="23.48" departSpeed="0.00" departDelay="2.00" arrival="52.00" arrivalLane="1341093415#0_3" arrivalPos="132.48" arrivalSpeed="14.96" duration="50.00" routeLength="212.67" waitingTime="14.00" waitingCount="2" stopTime="0.00" timeLoss="36.17" rerouteNo="0" devices="tripinfo_flow_route_51_duration_20250327_2040.0" vType="car" speedFactor="1.05" vaporized=""/>
    <tripinfo id="flow_route_40_duration_20250327_2040.3" depart="30.00" departLane="1369578054_0" departPos="200.20" departSpeed="0.00" departDelay="0.00" arrival="60.00" arrivalLane="1341093415#0_0" arrivalPos="144.68" arrivalSpeed="16.38" duration="30.00" routeLength="255.40" waitingTime="0.00" waitingCount="0" stopTime="0.00" timeLoss="13.81" rerouteNo="0" devices="tripinfo_flow_route_40_duration_20250327_2040.3" vType="car" speedFactor="1.02" vaporized=""/>
    <tripinfo id="flow_route_27_duration_20250327_2040.2" depart="14.00" departLane="1254771874#0_0" departPos="8.29" departSpeed="0.00" departDelay="2.00" arrival="73.00" arrivalLane="138002006#0_1" arrivalPos="27.26" arrivalSpeed="8.59" duration="59.00" routeLength="290.86" waitingTime="19.00" waitingCount="1" stopTime="0.00" timeLoss="40.53" rerouteNo="0" devices="tripinfo_flow_route_27_duration_20250327_2040.2" vType="car" speedFactor="1.03" vaporized=""/>
    <tripinfo id="flow_route_27_duration_20250327_2040.3" depart="19.00" departLane="1254771874#0_0" departPos="7.62" departSpeed="0.00" departDelay="1.00" arrival="74.00" arrivalLane="138002006#0_1" arrivalPos="14.12" arrivalSpeed="7.68" duration="55.00" routeLength="278.39" waitingTime="16.00" waitingCount="1" stopTime="0.00" timeLoss="37.39" rerouteNo="0" devices="tripinfo_flow_route_27_duration_20250327_2040.3" vType="car" speedFactor="1.12" vaporized=""/>
    <tripinfo id="flow_route_25_duration_20250327_2040.2" depart="24.00" departLane="1254771874#0_0" departPos="67.50" departSpeed="0.00" departDelay="0.00" arrival="76.00" arrivalLane="1341093415#0_0" arrivalPos="23.06" arrivalSpeed="8.52" duration="52.00" routeLength="233.34" waitingTime="15.00" waitingCount="1" stopTime="0.00" timeLoss="37.73" rerouteNo="0" devices="tripinfo_flow_route_25_duration_20250327_2040.2" vType="car" speedFactor="0.93" vaporized=""/>
    <tripinfo id="flow_route_25_duration_20250327_2040.4" depart="48.00" departLane="1254771874#0_0" departPos="17.12" departSpeed="0.00" departDelay="0.00" arrival="77.00" arrivalLane="1341093415#0_2" arrivalPos="4.96" arrivalSpeed="16.37" duration="29.00" routeLength="265.62" waitingTime="0.00" waitingCount="0" stopTime="0.00" timeLoss="12.65" rerouteNo="0" devices="tripinfo_flow_route_25_duration_20250327_2040.4" vType="car" speedFactor="0.95" vaporized=""/>
    <tripinfo id="flow_route_26_duration_20250327_2040.2" depart="24.00" departLane="1254771874#0_0" departPos="57.04" departSpeed="0.00" departDelay="0.00" arrival="78.00" arrivalLane="-422986370#2_0" arrivalPos="37.56" arrivalSpeed="8.80" duration="54.00" routeLength="245.12" waitingTime="15.00" waitingCount="1" stopTime="0.00" timeLoss="37.68" rerouteNo="0" devices="tripinfo_flow_route_26_duration_20250327_2040.2" vType="car" speedFactor="0.88" vaporized=""/>
    <tripinfo id="flow_route_27_duration_20250327_2040.4" depart="24.00" departLane="1254771874#0_0" departPos="42.93" departSpeed="0.00" departDelay="0.00" arrival="79.00" arrivalLane="138002006#0_1" arrivalPos="36.52" arrivalSpeed="10.07" duration="55.00" routeLength="265.47" waitingTime="14.00" waitingCount="1" stopTime="0.00" timeLoss="37.44" rerouteNo="0" devices="tripinfo_flow_route_27_duration_20250327_2040.4" vType="car" speedFactor="0.94" vaporized=""/>
    <tripinfo id="flow_route_27_duration_20250327_2040.5" depart="30.00" departLane="1254771874#0_0" departPos="22.76" departSpeed="0.00" departDelay="0.00" arrival="79.00" arrivalLane="138002006#0_1" arrivalPos="21.43" arrivalSpeed="9.37" duration="49.00" routeLength="270.56" waitingTime="10.00" waitingCount="1" stopTime="0.00" timeLoss="31.98" rerouteNo="0" devices="tripinfo_flow_route_27_duration_20250327_2040.5" vType="car" speedFactor="1.16" vaporized=""/>
    <tripinfo id="flow_route_25_duration_20250327_2040.3" depart="36.00" departLane="1254771874#0_0" departPos="245.38" departSpeed="0.00" departDelay="0.00" arrival="82.00" arrivalLane="1341093415#0_0" arrivalPos="127.54" arrivalSpeed="15.24" duration="46.00" routeLength="159.94" waitingTime="20.00" waitingCount="1" stopTime="0.00" timeLoss="35.81" rerouteNo="0" devices="tripinfo_flow_route_25_duration_20250327_2040.3" vType="car" speedFactor="1.01" vaporized=""/>
    <tripinfo id="flow_route_26_duration_20250327_2040.1" depart="13.00" departLane="1254771874#0_0" departPos="101.37" departSpeed="0.00" departDelay="1.00" arrival="83.00" arrivalLane="-422986370#2_0" arrivalPos="153.66" arrivalSpeed="15.68" duration="70.00" routeLength="316.89" waitingTime="28.00" waitingCount="1" stopTime="0.00" timeLoss="49.49" rerouteNo="0" devices="tripinfo_flow_route_26_duration_20250327_2040.1" vType="car" speedFactor="1.09" vaporized=""/>
    <tripinfo id="flow_route_27_duration_20250327_2040.6" depart="37.00" departLane="1254771874#0_0" departPos="43.05" departSpeed="0.00" departDelay="1.00" arrival="85.00" arrivalLane="138002006#0_1" arrivalPos="61.39" arrivalSpeed="12.60" duration="48.00" routeLength="290.24" waitingTime="6.00" waitingCount="1" stopTime="0.00" timeLoss="28.20" rerouteNo="0" devices="tripinfo_flow_route_27_duration_20250327_2040.6" vType="car" speedFactor="0.89" vaporized=""/>
    <tripinfo id="flow_route_27_duration_20250327_2040.7" depart="42.00" departLane="1254771874#0_0" departPos="38.81" departSpeed="0.00" departDelay="0.00" arrival="87.00" arrivalLane="138002006#0_1" arrivalPos="56.96" arrivalSpeed="12.62" duration="45.00" routeLength="290.04" waitingTime="3.00" waitingCount="1" stopTime="0.00" timeLoss="25.48" rerouteNo="0" devices="tripinfo_flow_route_27_duration_20250327_2040.7" vType="car" speedFactor="0.92" vaporized=""/>
    <tripinfo id="flow_route_26_duration_20250327_2040.4" depart="48.00" departLane="1254771874#0_0" departPos="45.75" departSpeed="0.00" departDelay="0.00" arrival="87.00" arrivalLane="-422986370#2_0" arrivalPos="83.53" arrivalSpeed="12.15" duration="39.00" routeLength="302.38" waitingTime="0.00" waitingCount="0" stopTime="0.00" timeLoss="19.55" rerouteNo="0" devices="tripinfo_flow_route_26_duration_20250327_2040.4" vType="car" speedFactor="1.13" vaporized=""/>
    <tripinfo id="flow_route_27_duration_20250327_2040.9" depart="54.00" departLane="1254771874#0_0" departPos="46.18" departSpeed="0.00" departDelay="0.00" arrival="87.00" arrivalLane="138002006#0_1" arrivalPos="18.39" arrivalSpeed="9.88" duration="33.00" routeLength="244.10" waitingTime="0.00" waitingCount="0" stopTime="0.00" timeLoss="17.20" rerouteNo="0" devices="tripinfo_flow_route_27_duration_20250327_2040.9" vType="car" speedFactor="1.01" vaporized=""/>
    <tripinfo id="flow_route_27_duration_20250327_2040.8" depart="49.00" departLane="1254771874#0_0" departPos="86.66" departSpeed="0.00" departDelay="1.00" arrival="88.00" arrivalLane="138002006#0_1" arrivalPos="48.54" arrivalSpeed="11.81" duration="39.00" routeLength="233.77" waitingTime="0.00" waitingCount="0" stopTime="0.00" timeLoss="23.33" rerouteNo="0" devices="tripinfo_flow_route_27_duration_20250327_2040.8" vType="car" speedFactor="0.93" vaporized=""/>
    <tripinfo id="flow_route_26_duration_20250327_2040.3" depart="36.00" departLane="1254771874#0_0" departPos="78.68" departSpeed="0.00" departDelay="0.00" arrival="92.00" arrivalLane="-422986370#2_0" arrivalPos="178.60" arrivalSpeed="16.25" duration="56.00" routeLength="364.52" waitingTime="6.00" waitingCount="1" stopTime="0.00" timeLoss="31.87" rerouteNo="0" devices="tripinfo_flow_route_26_duration_20250327_2040.3" vType="car" speedFactor="0.97" vaporized=""/>
    <tripinfo id="flow_route_40_duration_20250327_2040.5" depart="50.00" departLane="1369578054_0" departPos="169.94" departSpeed="0.00" departDelay="0.00" arrival="99.00" arrivalLane="1341093415#0_0" arrivalPos="15.33" arrivalSpeed="7.30" duration="49.00" routeLength="156.31" waitingTime="20.00" waitingCount="1" stopTime="0.00" timeLoss="38.71" rerouteNo="0" devices="tripinfo_flow_route_40_duration_20250327_2040.5" vType="car" speedFactor="1.15" vaporized=""/>
    <tripinfo id="flow_route_41_duration_20250327_2040.3" depart="36.00" departLane="1369578054_0" departPos="173.81" departSpeed="0.00" departDelay="0.00" arrival="105.00" arrivalLane="138002006#0_0" arrivalPos="83.00" arrivalSpeed="11.95" duration="69.00" routeLength="231.12" waitingTime="32.00" waitingCount="1" stopTime="0.00" timeLoss="52.18" rerouteNo="0" devices="tripinfo_flow_route_41_duration_20250327_2040.3" vType="car" speedFactor="0.83" vaporized=""/>
    <tripinfo id="flow_route_40_duration_20250327_2040.2" depart="20.00" departLane="1369578054_0" departPos="99.27" departSpeed="0.00" departDelay="0.00" arrival="106.00" arrivalLane="1341093415#0_0" arrivalPos="122.11" arrivalSpeed="14.38" duration="86.00" routeLength="333.75" waitingTime="39.00" waitingCount="1" stopTime="0.00" timeLoss="64.76" rerouteNo="0" devices="tripinfo_flow_route_40_duration_20250327_2040.2" vType="car" speedFactor="0.99" vaporized=""/>
    <tripinfo id="flow_route_41_duration_20250327_2040.4" depart="48.00" departLane="1369578054_0" departPos="94.05" departSpeed="0.00" departDelay="0.00" arrival="106.00" arrivalLane="138002006#0_1" arrivalPos="82.39" arrivalSpeed="13.47" duration="58.00" routeLength="310.27" waitingTime="15.00" waitingCount="1" stopTime="0.00" timeLoss="39.20" rerouteNo="0" devices="tripinfo_flow_route_41_duration_20250327_2040.4" vType="car" speedFactor="1.18" vaporized=""/>
    <tripinfo id="flow_route_40_duration_20250327_2040.4" depart="40.00" departLane="1369578054_0" departPos="54.94" departSpeed="0.00" departDelay="0.00" arrival="114.00" arrivalLane="1341093415#0_0" arrivalPos="170.20" arrivalSpeed="16.18" duration="74.00" routeLength="426.18" waitingTime="16.00" waitingCount="1" stopTime="0.00" timeLoss="44.61" rerouteNo="0" devices="tripinfo_flow_route_40_duration_20250327_2040.4" vType="car" speedFactor="0.87" vaporized=""/>
</tripinfos>
