<?xml version="1.0" encoding="UTF-8"?>

<!-- generated on 2025-05-06 21:08:53 by Eclipse SUMO sumo Version 1.20.0
<configuration xmlns:xsi="http://www.w3.org/2001/XMLSchema-instance" xsi:noNamespaceSchemaLocation="http://sumo.dlr.de/xsd/sumoConfiguration.xsd">

    <input>
        <net-file value="osm.net.xml"/>
        <route-files value="xml/route_rl_cluster_11657899598_353811979_6712514804_7.rou.xml"/>
    </input>

    <output>
        <tripinfo-output value="xml/tripinfo_rl_cluster_11657899598_353811979_6712514804_7.xml"/>
    </output>

    <traci_server>
        <remote-port value="48309"/>
    </traci_server>

</configuration>
-->

<tripinfos xmlns:xsi="http://www.w3.org/2001/XMLSchema-instance" xsi:noNamespaceSchemaLocation="http://sumo.dlr.de/xsd/tripinfo_file.xsd">
    <tripinfo id="flow_route_136_duration_20250327_2230.0" depart="0.00" departLane="688883939#0_0" departPos="70.95" departSpeed="0.00" departDelay="0.00" arrival="22.00" arrivalLane="186410975#0_1" arrivalPos="11.74" arrivalSpeed="11.21" duration="22.00" routeLength="133.80" waitingTime="1.00" waitingCount="1" stopTime="0.00" timeLoss="11.77" rerouteNo="0" devices="tripinfo_flow_route_136_duration_20250327_2230.0" vType="car" speedFactor="1.01" vaporized=""/>
    <tripinfo id="flow_route_137_duration_20250327_2230.0" depart="0.00" departLane="1310781056_0" departPos="52.86" departSpeed="0.00" departDelay="0.00" arrival="22.00" arrivalLane="714011134#0_0" arrivalPos="51.79" arrivalSpeed="16.36" duration="22.00" routeLength="192.73" waitingTime="0.00" waitingCount="0" stopTime="0.00" timeLoss="9.83" rerouteNo="0" devices="tripinfo_flow_route_137_duration_20250327_2230.0" vType="car" speedFactor="1.08" vaporized=""/>
    <tripinfo id="flow_route_134_duration_20250327_2230.0" depart="0.00" departLane="688883939#0_0" departPos="78.56" departSpeed="0.00" departDelay="0.00" arrival="28.00" arrivalLane="809719540#0_0" arrivalPos="239.32" arrivalSpeed="16.14" duration="28.00" routeLength="300.42" waitingTime="0.00" waitingCount="0" stopTime="0.00" timeLoss="9.69" rerouteNo="0" devices="tripinfo_flow_route_134_duration_20250327_2230.0" vType="car" speedFactor="1.06" vaporized=""/>
    <tripinfo id="flow_route_139_duration_20250327_2230.0" depart="1.00" departLane="1310781056_0" departPos="36.51" departSpeed="0.00" departDelay="1.00" arrival="28.00" arrivalLane="1254157399#1_1" arrivalPos="26.95" arrivalSpeed="10.01" duration="27.00" routeLength="180.27" waitingTime="0.00" waitingCount="0" stopTime="0.00" timeLoss="13.65" rerouteNo="0" devices="tripinfo_flow_route_139_duration_20250327_2230.0" vType="car" speedFactor="0.83" vaporized=""/>
    <tripinfo id="flow_route_138_duration_20250327_2230.0" depart="1.00" departLane="1310781056_0" departPos="99.29" departSpeed="0.00" departDelay="1.00" arrival="35.00" arrivalLane="186410975#0_0" arrivalPos="152.27" arrivalSpeed="11.22" duration="34.00" routeLength="305.80" waitingTime="0.00" waitingCount="0" stopTime="0.00" timeLoss="10.69" rerouteNo="0" devices="tripinfo_flow_route_138_duration_20250327_2230.0" vType="car" speedFactor="1.03" vaporized=""/>
    <tripinfo id="flow_route_135_duration_20250327_2230.0" depart="0.00" departLane="688883939#0_0" departPos="0.64" departSpeed="0.00" departDelay="0.00" arrival="45.00" arrivalLane="1254157399#1_0" arrivalPos="440.36" arrivalSpeed="16.28" duration="45.00" routeLength="573.44" waitingTime="0.00" waitingCount="0" stopTime="0.00" timeLoss="9.40" rerouteNo="0" devices="tripinfo_flow_route_135_duration_20250327_2230.0" vType="car" speedFactor="0.94" vaporized=""/>
    <tripinfo id="flow_route_152_duration_20250327_2230.0" depart="0.00" departLane="31861355#0_0" departPos="164.48" departSpeed="0.00" departDelay="0.00" arrival="45.00" arrivalLane="714011134#0_1" arrivalPos="26.08" arrivalSpeed="14.40" duration="45.00" routeLength="522.49" waitingTime="0.00" waitingCount="0" stopTime="0.00" timeLoss="9.21" rerouteNo="0" devices="tripinfo_flow_route_152_duration_20250327_2230.0" vType="car" speedFactor="0.89" vaporized=""/>
    <tripinfo id="flow_route_136_duration_20250327_2230.1" depart="20.00" departLane="688883939#0_0" departPos="86.91" departSpeed="0.00" departDelay="0.00" arrival="47.00" arrivalLane="186410975#0_1" arrivalPos="132.40" arrivalSpeed="11.86" duration="27.00" routeLength="238.51" waitingTime="0.00" waitingCount="0" stopTime="0.00" timeLoss="8.03" rerouteNo="0" devices="tripinfo_flow_route_136_duration_20250327_2230.1" vType="car" speedFactor="1.09" vaporized=""/>
    <tripinfo id="flow_route_139_duration_20250327_2230.1" depart="20.00" departLane="1310781056_0" departPos="100.66" departSpeed="0.00" departDelay="0.00" arrival="49.00" arrivalLane="1254157399#1_0" arrivalPos="189.78" arrivalSpeed="16.39" duration="29.00" routeLength="278.95" waitingTime="0.00" waitingCount="0" stopTime="0.00" timeLoss="11.01" rerouteNo="0" devices="tripinfo_flow_route_139_duration_20250327_2230.1" vType="car" speedFactor="1.03" vaporized=""/>
    <tripinfo id="flow_route_152_duration_20250327_2230.1" depart="21.00" departLane="31861355#0_0" departPos="338.46" departSpeed="0.00" departDelay="1.00" arrival="56.00" arrivalLane="714011134#0_1" arrivalPos="66.76" arrivalSpeed="16.27" duration="35.00" routeLength="389.18" waitingTime="0.00" waitingCount="0" stopTime="0.00" timeLoss="10.61" rerouteNo="0" devices="tripinfo_flow_route_152_duration_20250327_2230.1" vType="car" speedFactor="1.05" vaporized=""/>
    <tripinfo id="flow_route_151_duration_20250327_2230.2" depart="31.00" departLane="31861355#0_0" departPos="475.38" departSpeed="0.00" departDelay="1.00" arrival="59.00" arrivalLane="186410975#0_1" arrivalPos="8.37" arrivalSpeed="10.53" duration="28.00" routeLength="260.20" waitingTime="0.00" waitingCount="0" stopTime="0.00" timeLoss="11.23" rerouteNo="0" devices="tripinfo_flow_route_151_duration_20250327_2230.2" vType="car" speedFactor="0.99" vaporized=""/>
    <tripinfo id="flow_route_153_duration_20250327_2230.2" depart="41.00" departLane="31861355#0_0" departPos="599.76" departSpeed="0.00" departDelay="1.00" arrival="67.00" arrivalLane="809719540#0_0" arrivalPos="184.01" arrivalSpeed="15.47" duration="26.00" routeLength="215.36" waitingTime="0.00" waitingCount="0" stopTime="0.00" timeLoss="10.89" rerouteNo="0" devices="tripinfo_flow_route_153_duration_20250327_2230.2" vType="car" speedFactor="0.94" vaporized=""/>
    <tripinfo id="flow_route_153_duration_20250327_2230.0" depart="0.00" departLane="31861355#0_0" departPos="37.47" departSpeed="0.00" departDelay="0.00" arrival="69.00" arrivalLane="809719540#0_0" arrivalPos="146.46" arrivalSpeed="15.32" duration="69.00" routeLength="740.10" waitingTime="0.00" waitingCount="0" stopTime="0.00" timeLoss="19.94" rerouteNo="0" devices="tripinfo_flow_route_153_duration_20250327_2230.0" vType="car" speedFactor="0.94" vaporized=""/>
    <tripinfo id="flow_route_151_duration_20250327_2230.0" depart="0.00" departLane="31861355#0_0" departPos="352.12" departSpeed="0.00" departDelay="0.00" arrival="70.00" arrivalLane="186410975#0_0" arrivalPos="191.84" arrivalSpeed="11.53" duration="70.00" routeLength="566.94" waitingTime="6.00" waitingCount="1" stopTime="0.00" timeLoss="30.17" rerouteNo="0" devices="tripinfo_flow_route_151_duration_20250327_2230.0" vType="car" speedFactor="1.05" vaporized=""/>
    <tripinfo id="flow_route_153_duration_20250327_2230.1" depart="21.00" departLane="31861355#0_0" departPos="147.19" departSpeed="0.00" departDelay="1.00" arrival="82.00" arrivalLane="809719540#0_0" arrivalPos="252.23" arrivalSpeed="16.18" duration="61.00" routeLength="736.14" waitingTime="0.00" waitingCount="0" stopTime="0.00" timeLoss="15.16" rerouteNo="0" devices="tripinfo_flow_route_153_duration_20250327_2230.1" vType="car" speedFactor="1.12" vaporized=""/>
    <tripinfo id="flow_route_151_duration_20250327_2230.1" depart="15.00" departLane="31861355#0_0" departPos="28.73" departSpeed="0.00" departDelay="0.00" arrival="93.00" arrivalLane="186410975#0_0" arrivalPos="176.45" arrivalSpeed="9.31" duration="78.00" routeLength="874.93" waitingTime="0.00" waitingCount="0" stopTime="0.00" timeLoss="11.40" rerouteNo="0" devices="tripinfo_flow_route_151_duration_20250327_2230.1" vType="car" speedFactor="0.86" vaporized=""/>
    <tripinfo id="flow_route_136_duration_20250327_2230.2" depart="40.00" departLane="688883939#0_0" departPos="34.93" departSpeed="0.00" departDelay="0.00" arrival="94.00" arrivalLane="186410975#0_1" arrivalPos="41.07" arrivalSpeed="10.01" duration="54.00" routeLength="199.16" waitingTime="17.00" waitingCount="1" stopTime="0.00" timeLoss="37.85" rerouteNo="0" devices="tripinfo_flow_route_136_duration_20250327_2230.2" vType="car" speedFactor="0.93" vaporized=""/>
    <tripinfo id="flow_route_152_duration_20250327_2230.2" depart="40.00" departLane="31861355#0_0" departPos="77.96" departSpeed="0.00" departDelay="0.00" arrival="122.00" arrivalLane="714011134#0_1" arrivalPos="3.14" arrivalSpeed="8.03" duration="82.00" routeLength="586.06" waitingTime="25.00" waitingCount="1" stopTime="0.00" timeLoss="44.33" rerouteNo="0" devices="tripinfo_flow_route_152_duration_20250327_2230.2" vType="car" speedFactor="0.94" vaporized=""/>
    <tripinfo id="flow_route_139_duration_20250327_2230.2" depart="40.00" departLane="1310781056_0" departPos="14.67" departSpeed="0.00" departDelay="0.00" arrival="123.00" arrivalLane="1254157399#1_0" arrivalPos="591.22" arrivalSpeed="16.29" duration="83.00" routeLength="766.38" waitingTime="13.00" waitingCount="1" stopTime="0.00" timeLoss="35.17" rerouteNo="0" devices="tripinfo_flow_route_139_duration_20250327_2230.2" vType="car" speedFactor="0.88" vaporized=""/>
    <tripinfo id="flow_route_151_duration_20250327_2230.3" depart="45.00" departLane="31861355#0_0" departPos="138.75" departSpeed="0.00" departDelay="0.00" arrival="133.00" arrivalLane="186410975#0_0" arrivalPos="68.16" arrivalSpeed="12.41" duration="88.00" routeLength="656.62" waitingTime="24.00" waitingCount="1" stopTime="0.00" timeLoss="46.84" rerouteNo="0" devices="tripinfo_flow_route_151_duration_20250327_2230.3" vType="car" speedFactor="1.16" vaporized=""/>
</tripinfos>
