<?xml version="1.0" encoding="UTF-8"?>

<!-- generated on 2025-05-06 21:08:46 by Eclipse SUMO sumo Version 1.20.0
<configuration xmlns:xsi="http://www.w3.org/2001/XMLSchema-instance" xsi:noNamespaceSchemaLocation="http://sumo.dlr.de/xsd/sumoConfiguration.xsd">

    <input>
        <net-file value="osm.net.xml"/>
        <route-files value="xml/route_static_cluster_356722183_3828703848_6.rou.xml"/>
    </input>

    <output>
        <tripinfo-output value="xml/tripinfo_static_cluster_356722183_3828703848_6.xml"/>
    </output>

    <traci_server>
        <remote-port value="38455"/>
    </traci_server>

</configuration>
-->

<tripinfos xmlns:xsi="http://www.w3.org/2001/XMLSchema-instance" xsi:noNamespaceSchemaLocation="http://sumo.dlr.de/xsd/tripinfo_file.xsd">
    <tripinfo id="flow_route_18_duration_20250327_2230.0" depart="0.00" departLane="133126040#0_0" departPos="80.59" departSpeed="0.00" departDelay="0.00" arrival="13.00" arrivalLane="1318893695#0_0" arrivalPos="9.11" arrivalSpeed="9.89" duration="13.00" routeLength="59.37" waitingTime="0.00" waitingCount="0" stopTime="0.00" timeLoss="8.98" rerouteNo="0" devices="tripinfo_flow_route_18_duration_20250327_2230.0" vType="car" speedFactor="1.01" vaporized=""/>
    <tripinfo id="flow_route_0_duration_20250327_2230.1" depart="12.00" departLane="1318793176#1_0" departPos="1.38" departSpeed="0.00" departDelay="0.00" arrival="31.00" arrivalLane="133126031#0_0" arrivalPos="9.92" arrivalSpeed="13.00" duration="19.00" routeLength="128.96" waitingTime="0.00" waitingCount="0" stopTime="0.00" timeLoss="10.28" rerouteNo="0" devices="tripinfo_flow_route_0_duration_20250327_2230.1" vType="car" speedFactor="1.09" vaporized=""/>
    <tripinfo id="flow_route_19_duration_20250327_2230.3" depart="18.00" departLane="133126040#0_0" departPos="77.39" departSpeed="0.00" departDelay="0.00" arrival="34.00" arrivalLane="133126031#0_1" arrivalPos="29.60" arrivalSpeed="10.12" duration="16.00" routeLength="81.08" waitingTime="0.00" waitingCount="0" stopTime="0.00" timeLoss="10.22" rerouteNo="0" devices="tripinfo_flow_route_19_duration_20250327_2230.3" vType="car" speedFactor="1.12" vaporized=""/>
    <tripinfo id="flow_route_0_duration_20250327_2230.0" depart="0.00" departLane="1318793176#1_0" departPos="2.64" departSpeed="0.00" departDelay="0.00" arrival="36.00" arrivalLane="133126031#0_0" arrivalPos="296.30" arrivalSpeed="16.57" duration="36.00" routeLength="414.08" waitingTime="0.00" waitingCount="0" stopTime="0.00" timeLoss="10.45" rerouteNo="0" devices="tripinfo_flow_route_0_duration_20250327_2230.0" vType="car" speedFactor="1.06" vaporized=""/>
    <tripinfo id="flow_route_19_duration_20250327_2230.0" depart="0.00" departLane="133126040#0_0" departPos="0.65" departSpeed="0.00" departDelay="0.00" arrival="38.00" arrivalLane="133126031#0_1" arrivalPos="163.43" arrivalSpeed="16.56" duration="38.00" routeLength="291.65" waitingTime="0.00" waitingCount="0" stopTime="0.00" timeLoss="19.42" rerouteNo="0" devices="tripinfo_flow_route_19_duration_20250327_2230.0" vType="car" speedFactor="1.08" vaporized=""/>
    <tripinfo id="flow_route_19_duration_20250327_2230.1" depart="7.00" departLane="133126040#0_0" departPos="58.87" departSpeed="0.00" departDelay="1.00" arrival="43.00" arrivalLane="133126031#0_0" arrivalPos="312.28" arrivalSpeed="16.35" duration="36.00" routeLength="382.27" waitingTime="0.00" waitingCount="0" stopTime="0.00" timeLoss="10.82" rerouteNo="0" devices="tripinfo_flow_route_19_duration_20250327_2230.1" vType="car" speedFactor="0.94" vaporized=""/>
    <tripinfo id="flow_route_0_duration_20250327_2230.2" depart="24.00" departLane="1318793176#1_0" departPos="2.98" departSpeed="0.00" departDelay="0.00" arrival="48.00" arrivalLane="133126031#0_0" arrivalPos="60.98" arrivalSpeed="14.15" duration="24.00" routeLength="178.42" waitingTime="0.00" waitingCount="0" stopTime="0.00" timeLoss="11.25" rerouteNo="0" devices="tripinfo_flow_route_0_duration_20250327_2230.2" vType="car" speedFactor="0.88" vaporized=""/>
    <tripinfo id="flow_route_19_duration_20250327_2230.2" depart="12.00" departLane="133126040#0_0" departPos="13.56" departSpeed="0.00" departDelay="0.00" arrival="50.00" arrivalLane="133126031#0_1" arrivalPos="227.82" arrivalSpeed="16.47" duration="38.00" routeLength="343.13" waitingTime="0.00" waitingCount="0" stopTime="0.00" timeLoss="15.32" rerouteNo="0" devices="tripinfo_flow_route_19_duration_20250327_2230.2" vType="car" speedFactor="1.03" vaporized=""/>
    <tripinfo id="flow_route_48_duration_20250327_2230.0" depart="2.00" departLane="380351865#0_0" departPos="1.03" departSpeed="0.00" departDelay="2.00" arrival="52.00" arrivalLane="133126031#0_0" arrivalPos="14.50" arrivalSpeed="8.11" duration="50.00" routeLength="180.64" waitingTime="17.00" waitingCount="1" stopTime="0.00" timeLoss="32.24" rerouteNo="0" devices="tripinfo_flow_route_48_duration_20250327_2230.0" vType="car" speedFactor="0.83" vaporized=""/>
    <tripinfo id="flow_route_19_duration_20250327_2230.4" depart="24.00" departLane="133126040#0_0" departPos="59.14" departSpeed="0.00" departDelay="0.00" arrival="56.00" arrivalLane="133126031#0_0" arrivalPos="213.38" arrivalSpeed="16.29" duration="32.00" routeLength="283.11" waitingTime="0.00" waitingCount="0" stopTime="0.00" timeLoss="13.26" rerouteNo="0" devices="tripinfo_flow_route_19_duration_20250327_2230.4" vType="car" speedFactor="0.94" vaporized=""/>
    <tripinfo id="flow_route_47_duration_20250327_2230.0" depart="0.00" departLane="380351865#0_0" departPos="11.49" departSpeed="0.00" departDelay="0.00" arrival="57.00" arrivalLane="1318793173#0_1" arrivalPos="63.76" arrivalSpeed="11.66" duration="57.00" routeLength="213.71" waitingTime="22.00" waitingCount="1" stopTime="0.00" timeLoss="39.98" rerouteNo="0" devices="tripinfo_flow_route_47_duration_20250327_2230.0" vType="car" speedFactor="1.03" vaporized=""/>
    <tripinfo id="flow_route_48_duration_20250327_2230.1" depart="13.00" departLane="380351865#0_0" departPos="7.02" departSpeed="0.00" departDelay="8.39" arrival="61.00" arrivalLane="133126031#0_1" arrivalPos="102.11" arrivalSpeed="14.02" duration="48.00" routeLength="262.26" waitingTime="8.00" waitingCount="1" stopTime="0.00" timeLoss="26.69" rerouteNo="0" devices="tripinfo_flow_route_48_duration_20250327_2230.1" vType="car" speedFactor="0.89" vaporized=""/>
    <tripinfo id="flow_route_47_duration_20250327_2230.1" depart="38.00" departLane="380351865#0_0" departPos="0.41" departSpeed="0.00" departDelay="8.00" arrival="61.00" arrivalLane="1318793173#0_1" arrivalPos="19.52" arrivalSpeed="13.35" duration="23.00" routeLength="180.56" waitingTime="0.00" waitingCount="0" stopTime="0.00" timeLoss="7.95" rerouteNo="0" devices="tripinfo_flow_route_47_duration_20250327_2230.1" vType="car" speedFactor="1.01" vaporized=""/>
    <tripinfo id="flow_route_48_duration_20250327_2230.5" depart="28.00" departLane="380351865#0_0" departPos="5.79" departSpeed="0.00" departDelay="4.93" arrival="62.00" arrivalLane="133126031#0_1" arrivalPos="50.49" arrivalSpeed="12.98" duration="34.00" routeLength="211.87" waitingTime="0.00" waitingCount="0" stopTime="0.00" timeLoss="15.88" rerouteNo="0" devices="tripinfo_flow_route_48_duration_20250327_2230.5" vType="car" speedFactor="0.94" vaporized=""/>
    <tripinfo id="flow_route_49_duration_20250327_2230.0" depart="8.00" departLane="380351865#0_0" departPos="4.04" departSpeed="0.00" departDelay="8.00" arrival="63.00" arrivalLane="1318893695#0_0" arrivalPos="148.83" arrivalSpeed="15.66" duration="55.00" routeLength="288.67" waitingTime="15.00" waitingCount="1" stopTime="0.00" timeLoss="32.16" rerouteNo="0" devices="tripinfo_flow_route_49_duration_20250327_2230.0" vType="car" speedFactor="1.05" vaporized=""/>
    <tripinfo id="flow_route_48_duration_20250327_2230.3" depart="23.00" departLane="380351865#0_0" departPos="2.87" departSpeed="0.00" departDelay="9.16" arrival="63.00" arrivalLane="133126031#0_1" arrivalPos="87.82" arrivalSpeed="14.22" duration="40.00" routeLength="252.11" waitingTime="0.00" waitingCount="0" stopTime="0.00" timeLoss="20.83" rerouteNo="0" devices="tripinfo_flow_route_48_duration_20250327_2230.3" vType="car" speedFactor="1.05" vaporized=""/>
    <tripinfo id="flow_route_48_duration_20250327_2230.6" depart="30.00" departLane="380351865#0_0" departPos="0.80" departSpeed="0.00" departDelay="2.31" arrival="67.00" arrivalLane="133126031#0_0" arrivalPos="104.37" arrivalSpeed="15.64" duration="37.00" routeLength="270.74" waitingTime="0.00" waitingCount="0" stopTime="0.00" timeLoss="17.83" rerouteNo="0" devices="tripinfo_flow_route_48_duration_20250327_2230.6" vType="car" speedFactor="1.16" vaporized=""/>
    <tripinfo id="flow_route_48_duration_20250327_2230.4" depart="25.00" departLane="380351865#0_0" departPos="15.84" departSpeed="0.00" departDelay="6.54" arrival="71.00" arrivalLane="133126031#0_0" arrivalPos="198.28" arrivalSpeed="16.58" duration="46.00" routeLength="349.60" waitingTime="2.00" waitingCount="1" stopTime="0.00" timeLoss="21.13" rerouteNo="0" devices="tripinfo_flow_route_48_duration_20250327_2230.4" vType="car" speedFactor="0.99" vaporized=""/>
    <tripinfo id="flow_route_48_duration_20250327_2230.2" depart="17.00" departLane="380351865#0_0" departPos="4.12" departSpeed="0.00" departDelay="7.77" arrival="72.00" arrivalLane="133126031#0_0" arrivalPos="254.24" arrivalSpeed="16.16" duration="55.00" routeLength="417.28" waitingTime="5.00" waitingCount="1" stopTime="0.00" timeLoss="23.67" rerouteNo="0" devices="tripinfo_flow_route_48_duration_20250327_2230.2" vType="car" speedFactor="0.86" vaporized=""/>
    <tripinfo id="flow_route_0_duration_20250327_2230.3" depart="36.00" departLane="1318793176#1_0" departPos="6.25" departSpeed="0.00" departDelay="0.00" arrival="77.00" arrivalLane="133126031#0_0" arrivalPos="129.61" arrivalSpeed="14.92" duration="41.00" routeLength="243.78" waitingTime="4.00" waitingCount="1" stopTime="0.00" timeLoss="24.94" rerouteNo="0" devices="tripinfo_flow_route_0_duration_20250327_2230.3" vType="car" speedFactor="0.89" vaporized=""/>
    <tripinfo id="flow_route_1_duration_20250327_2230.0" depart="4.00" departLane="1318793176#1_0" departPos="0.49" departSpeed="0.00" departDelay="4.00" arrival="78.00" arrivalLane="1318793173#0_1" arrivalPos="77.00" arrivalSpeed="11.92" duration="74.00" routeLength="200.41" waitingTime="40.00" waitingCount="1" stopTime="0.00" timeLoss="60.84" rerouteNo="0" devices="tripinfo_flow_route_1_duration_20250327_2230.0" vType="car" speedFactor="0.94" vaporized=""/>
    <tripinfo id="flow_route_1_duration_20250327_2230.1" depart="20.00" departLane="1318793176#1_0" departPos="3.29" departSpeed="0.00" departDelay="0.00" arrival="81.00" arrivalLane="1318793173#0_1" arrivalPos="101.05" arrivalSpeed="14.11" duration="61.00" routeLength="221.66" waitingTime="25.00" waitingCount="1" stopTime="0.00" timeLoss="45.87" rerouteNo="0" devices="tripinfo_flow_route_1_duration_20250327_2230.1" vType="car" speedFactor="0.93" vaporized=""/>
    <tripinfo id="flow_route_1_duration_20250327_2230.2" depart="41.00" departLane="1318793176#1_0" departPos="4.54" departSpeed="0.00" departDelay="1.00" arrival="82.00" arrivalLane="1318793173#0_1" arrivalPos="94.62" arrivalSpeed="13.97" duration="41.00" routeLength="213.98" waitingTime="6.00" waitingCount="1" stopTime="0.00" timeLoss="26.52" rerouteNo="0" devices="tripinfo_flow_route_1_duration_20250327_2230.2" vType="car" speedFactor="0.92" vaporized=""/>
    <tripinfo id="flow_route_0_duration_20250327_2230.4" depart="48.00" departLane="1318793176#1_0" departPos="1.33" departSpeed="0.00" departDelay="0.00" arrival="85.00" arrivalLane="133126031#0_0" arrivalPos="220.09" arrivalSpeed="16.18" duration="37.00" routeLength="339.18" waitingTime="0.00" waitingCount="0" stopTime="0.00" timeLoss="15.43" rerouteNo="0" devices="tripinfo_flow_route_0_duration_20250327_2230.4" vType="car" speedFactor="1.18" vaporized=""/>
    <tripinfo id="flow_route_19_duration_20250327_2230.5" depart="30.00" departLane="133126040#0_0" departPos="8.65" departSpeed="0.00" departDelay="0.00" arrival="88.00" arrivalLane="133126031#0_1" arrivalPos="68.89" arrivalSpeed="11.68" duration="58.00" routeLength="189.11" waitingTime="21.00" waitingCount="2" stopTime="0.00" timeLoss="45.08" rerouteNo="0" devices="tripinfo_flow_route_19_duration_20250327_2230.5" vType="car" speedFactor="1.02" vaporized=""/>
    <tripinfo id="flow_route_19_duration_20250327_2230.6" depart="36.00" departLane="133126040#0_0" departPos="45.12" departSpeed="0.00" departDelay="0.00" arrival="96.00" arrivalLane="133126031#0_1" arrivalPos="170.54" arrivalSpeed="16.16" duration="60.00" routeLength="254.29" waitingTime="18.00" waitingCount="2" stopTime="0.00" timeLoss="42.23" rerouteNo="0" devices="tripinfo_flow_route_19_duration_20250327_2230.6" vType="car" speedFactor="0.83" vaporized=""/>
    <tripinfo id="flow_route_19_duration_20250327_2230.8" depart="48.00" departLane="133126040#0_0" departPos="77.15" departSpeed="0.00" departDelay="0.00" arrival="104.00" arrivalLane="133126031#0_0" arrivalPos="259.72" arrivalSpeed="16.44" duration="56.00" routeLength="311.44" waitingTime="15.00" waitingCount="2" stopTime="0.00" timeLoss="36.16" rerouteNo="0" devices="tripinfo_flow_route_19_duration_20250327_2230.8" vType="car" speedFactor="1.15" vaporized=""/>
    <tripinfo id="flow_route_19_duration_20250327_2230.7" depart="42.00" departLane="133126040#0_0" departPos="62.05" departSpeed="0.00" departDelay="0.00" arrival="105.00" arrivalLane="133126031#0_1" arrivalPos="236.36" arrivalSpeed="16.52" duration="63.00" routeLength="303.18" waitingTime="15.00" waitingCount="3" stopTime="0.00" timeLoss="42.60" rerouteNo="0" devices="tripinfo_flow_route_19_duration_20250327_2230.7" vType="car" speedFactor="0.95" vaporized=""/>
    <tripinfo id="flow_route_19_duration_20250327_2230.9" depart="54.00" departLane="133126040#0_0" departPos="16.61" departSpeed="0.00" departDelay="0.00" arrival="112.00" arrivalLane="133126031#0_0" arrivalPos="325.30" arrivalSpeed="16.53" duration="58.00" routeLength="437.57" waitingTime="5.00" waitingCount="1" stopTime="0.00" timeLoss="30.59" rerouteNo="0" devices="tripinfo_flow_route_19_duration_20250327_2230.9" vType="car" speedFactor="1.17" vaporized=""/>
    <tripinfo id="flow_route_48_duration_20250327_2230.10" depart="55.00" departLane="380351865#0_0" departPos="15.44" departSpeed="0.00" departDelay="8.85" arrival="120.00" arrivalLane="133126031#0_0" arrivalPos="33.76" arrivalSpeed="10.16" duration="65.00" routeLength="185.49" waitingTime="31.00" waitingCount="1" stopTime="0.00" timeLoss="49.03" rerouteNo="0" devices="tripinfo_flow_route_48_duration_20250327_2230.10" vType="car" speedFactor="0.93" vaporized=""/>
    <tripinfo id="flow_route_48_duration_20250327_2230.7" depart="44.00" departLane="380351865#0_0" departPos="5.06" departSpeed="0.00" departDelay="11.70" arrival="121.00" arrivalLane="133126031#0_0" arrivalPos="70.62" arrivalSpeed="11.67" duration="77.00" routeLength="232.73" waitingTime="39.00" waitingCount="1" stopTime="0.00" timeLoss="58.77" rerouteNo="0" devices="tripinfo_flow_route_48_duration_20250327_2230.7" vType="car" speedFactor="0.97" vaporized=""/>
    <tripinfo id="flow_route_48_duration_20250327_2230.8" depart="48.00" departLane="380351865#0_0" departPos="4.80" departSpeed="0.00" departDelay="11.08" arrival="124.00" arrivalLane="133126031#0_0" arrivalPos="121.44" arrivalSpeed="14.91" duration="76.00" routeLength="283.81" waitingTime="34.00" waitingCount="1" stopTime="0.00" timeLoss="53.09" rerouteNo="0" devices="tripinfo_flow_route_48_duration_20250327_2230.8" vType="car" speedFactor="0.87" vaporized=""/>
    <tripinfo id="flow_route_48_duration_20250327_2230.9" depart="52.00" departLane="380351865#0_0" departPos="0.73" departSpeed="0.00" departDelay="10.47" arrival="128.00" arrivalLane="133126031#0_1" arrivalPos="151.57" arrivalSpeed="16.14" duration="76.00" routeLength="318.01" waitingTime="33.00" waitingCount="1" stopTime="0.00" timeLoss="53.74" rerouteNo="0" devices="tripinfo_flow_route_48_duration_20250327_2230.9" vType="car" speedFactor="1.13" vaporized=""/>
    <tripinfo id="flow_route_48_duration_20250327_2230.11" depart="56.00" departLane="380351865#0_0" departPos="7.35" departSpeed="0.00" departDelay="5.24" arrival="129.00" arrivalLane="133126031#0_0" arrivalPos="123.58" arrivalSpeed="15.45" duration="73.00" routeLength="283.39" waitingTime="30.00" waitingCount="1" stopTime="0.00" timeLoss="51.64" rerouteNo="0" devices="tripinfo_flow_route_48_duration_20250327_2230.11" vType="car" speedFactor="1.01" vaporized=""/>
    <tripinfo id="flow_route_48_duration_20250327_2230.12" depart="61.00" departLane="380351865#0_0" departPos="9.79" departSpeed="0.00" departDelay="5.62" arrival="134.00" arrivalLane="133126031#0_1" arrivalPos="220.58" arrivalSpeed="16.32" duration="73.00" routeLength="377.96" waitingTime="24.00" waitingCount="1" stopTime="0.00" timeLoss="46.14" rerouteNo="0" devices="tripinfo_flow_route_48_duration_20250327_2230.12" vType="car" speedFactor="0.99" vaporized=""/>
</tripinfos>
