<?xml version="1.0" encoding="UTF-8"?>

<!-- generated on 2025-05-06 21:07:45 by Eclipse SUMO sumo Version 1.20.0
<configuration xmlns:xsi="http://www.w3.org/2001/XMLSchema-instance" xsi:noNamespaceSchemaLocation="http://sumo.dlr.de/xsd/sumoConfiguration.xsd">

    <input>
        <net-file value="osm.net.xml"/>
        <route-files value="xml/route_static_cluster7571105647_7571105653_cluster_1141265322_11869698130_256036890_4227138136_#4more_0.rou.xml"/>
    </input>

    <output>
        <tripinfo-output value="xml/tripinfo_static_cluster7571105647_7571105653_cluster_1141265322_11869698130_256036890_4227138136_#4more_0.xml"/>
    </output>

    <traci_server>
        <remote-port value="40711"/>
    </traci_server>

</configuration>
-->

<tripinfos xmlns:xsi="http://www.w3.org/2001/XMLSchema-instance" xsi:noNamespaceSchemaLocation="http://sumo.dlr.de/xsd/tripinfo_file.xsd">
    <tripinfo id="flow_route_143_duration_20250327_2120.0" depart="0.00" departLane="1253222187#0_0" departPos="157.10" departSpeed="0.00" departDelay="0.00" arrival="28.00" arrivalLane="1310781056_0" arrivalPos="55.73" arrivalSpeed="16.37" duration="28.00" routeLength="267.13" waitingTime="0.00" waitingCount="0" stopTime="0.00" timeLoss="11.65" rerouteNo="0" devices="tripinfo_flow_route_143_duration_20250327_2120.0" vType="car" speedFactor="1.08" vaporized=""/>
    <tripinfo id="flow_route_140_duration_20250327_2120.1" depart="7.00" departLane="809719540#0_0" departPos="137.78" departSpeed="0.00" departDelay="0.33" arrival="43.00" arrivalLane="-809772643#1_0" arrivalPos="9.55" arrivalSpeed="9.28" duration="36.00" routeLength="179.22" waitingTime="3.00" waitingCount="1" stopTime="0.00" timeLoss="23.60" rerouteNo="0" devices="tripinfo_flow_route_140_duration_20250327_2120.1" vType="car" speedFactor="0.89" vaporized=""/>
    <tripinfo id="flow_route_140_duration_20250327_2120.3" depart="20.00" departLane="809719540#0_0" departPos="70.93" departSpeed="0.00" departDelay="0.00" arrival="52.00" arrivalLane="-809772643#1_0" arrivalPos="85.05" arrivalSpeed="14.47" duration="32.00" routeLength="321.57" waitingTime="0.00" waitingCount="0" stopTime="0.00" timeLoss="9.59" rerouteNo="0" devices="tripinfo_flow_route_140_duration_20250327_2120.3" vType="car" speedFactor="0.88" vaporized=""/>
    <tripinfo id="flow_route_142_duration_20250327_2120.0" depart="0.00" departLane="1253222187#0_0" departPos="114.97" departSpeed="0.00" departDelay="0.00" arrival="53.00" arrivalLane="683079388#0_0" arrivalPos="1.17" arrivalSpeed="16.33" duration="53.00" routeLength="684.52" waitingTime="0.00" waitingCount="0" stopTime="0.00" timeLoss="11.13" rerouteNo="0" devices="tripinfo_flow_route_142_duration_20250327_2120.0" vType="car" speedFactor="1.01" vaporized=""/>
    <tripinfo id="flow_route_140_duration_20250327_2120.0" depart="0.00" departLane="809719540#0_0" departPos="199.64" departSpeed="0.00" departDelay="0.00" arrival="54.00" arrivalLane="-809772643#1_0" arrivalPos="184.22" arrivalSpeed="16.30" duration="54.00" routeLength="292.04" waitingTime="15.00" waitingCount="1" stopTime="0.00" timeLoss="36.27" rerouteNo="0" devices="tripinfo_flow_route_140_duration_20250327_2120.0" vType="car" speedFactor="1.06" vaporized=""/>
    <tripinfo id="flow_route_140_duration_20250327_2120.4" depart="27.00" departLane="809719540#0_0" departPos="251.16" departSpeed="0.00" departDelay="0.34" arrival="54.00" arrivalLane="-809772643#1_1" arrivalPos="143.00" arrivalSpeed="15.86" duration="27.00" routeLength="202.12" waitingTime="0.00" waitingCount="0" stopTime="0.00" timeLoss="14.27" rerouteNo="0" devices="tripinfo_flow_route_140_duration_20250327_2120.4" vType="car" speedFactor="0.97" vaporized=""/>
    <tripinfo id="flow_route_142_duration_20250327_2120.1" depart="5.00" departLane="1253222187#0_0" departPos="67.88" departSpeed="0.00" departDelay="0.00" arrival="61.00" arrivalLane="683079388#0_0" arrivalPos="1.56" arrivalSpeed="16.50" duration="56.00" routeLength="731.98" waitingTime="0.00" waitingCount="0" stopTime="0.00" timeLoss="11.09" rerouteNo="0" devices="tripinfo_flow_route_142_duration_20250327_2120.1" vType="car" speedFactor="1.05" vaporized=""/>
    <tripinfo id="flow_route_140_duration_20250327_2120.2" depart="14.00" departLane="809719540#0_0" departPos="42.74" departSpeed="0.00" departDelay="0.67" arrival="62.00" arrivalLane="-809772643#1_1" arrivalPos="158.07" arrivalSpeed="16.50" duration="48.00" routeLength="425.61" waitingTime="0.00" waitingCount="0" stopTime="0.00" timeLoss="21.74" rerouteNo="0" devices="tripinfo_flow_route_140_duration_20250327_2120.2" vType="car" speedFactor="1.05" vaporized=""/>
    <tripinfo id="flow_route_140_duration_20250327_2120.5" depart="36.00" departLane="809719540#0_0" departPos="146.86" departSpeed="0.00" departDelay="2.67" arrival="65.00" arrivalLane="-809772643#1_0" arrivalPos="101.84" arrivalSpeed="13.61" duration="29.00" routeLength="262.43" waitingTime="0.00" waitingCount="0" stopTime="0.00" timeLoss="8.98" rerouteNo="0" devices="tripinfo_flow_route_140_duration_20250327_2120.5" vType="car" speedFactor="0.83" vaporized=""/>
    <tripinfo id="flow_route_146_duration_20250327_2120.1" depart="10.00" departLane="683079387#1_0" departPos="5.56" departSpeed="0.00" departDelay="1.43" arrival="72.00" arrivalLane="-809772643#1_1" arrivalPos="130.98" arrivalSpeed="14.21" duration="62.00" routeLength="738.39" waitingTime="0.00" waitingCount="0" stopTime="0.00" timeLoss="9.88" rerouteNo="0" devices="tripinfo_flow_route_146_duration_20250327_2120.1" vType="car" speedFactor="0.86" vaporized=""/>
    <tripinfo id="flow_route_147_duration_20250327_2120.0" depart="6.00" departLane="683079387#1_0" departPos="6.98" departSpeed="0.00" departDelay="6.00" arrival="76.00" arrivalLane="1310781056_0" arrivalPos="4.95" arrivalSpeed="13.94" duration="70.00" routeLength="677.80" waitingTime="0.00" waitingCount="0" stopTime="0.00" timeLoss="20.91" rerouteNo="0" devices="tripinfo_flow_route_147_duration_20250327_2120.0" vType="car" speedFactor="0.83" vaporized=""/>
    <tripinfo id="flow_route_146_duration_20250327_2120.2" depart="18.00" departLane="683079387#1_0" departPos="1.28" departSpeed="0.00" departDelay="0.86" arrival="76.00" arrivalLane="-809772643#1_0" arrivalPos="68.50" arrivalSpeed="14.42" duration="58.00" routeLength="680.19" waitingTime="0.00" waitingCount="0" stopTime="0.00" timeLoss="13.52" rerouteNo="0" devices="tripinfo_flow_route_146_duration_20250327_2120.2" vType="car" speedFactor="0.93" vaporized=""/>
    <tripinfo id="flow_route_141_duration_20250327_2120.1" depart="10.00" departLane="809719540#0_0" departPos="106.52" departSpeed="0.00" departDelay="1.43" arrival="77.00" arrivalLane="683079387#1_1" arrivalPos="3.14" arrivalSpeed="5.69" duration="67.00" routeLength="792.17" waitingTime="0.00" waitingCount="0" stopTime="0.00" timeLoss="13.41" rerouteNo="0" devices="tripinfo_flow_route_141_duration_20250327_2120.1" vType="car" speedFactor="0.94" vaporized=""/>
    <tripinfo id="flow_route_146_duration_20250327_2120.0" depart="0.00" departLane="683079387#1_0" departPos="0.06" departSpeed="0.00" departDelay="0.00" arrival="78.00" arrivalLane="-809772643#1_0" arrivalPos="121.98" arrivalSpeed="16.34" duration="78.00" routeLength="734.89" waitingTime="11.00" waitingCount="1" stopTime="0.00" timeLoss="33.14" rerouteNo="0" devices="tripinfo_flow_route_146_duration_20250327_2120.0" vType="car" speedFactor="1.03" vaporized=""/>
    <tripinfo id="flow_route_146_duration_20250327_2120.3" depart="26.00" departLane="683079387#1_0" departPos="6.09" departSpeed="0.00" departDelay="0.29" arrival="82.00" arrivalLane="-809772643#1_0" arrivalPos="138.14" arrivalSpeed="16.58" duration="56.00" routeLength="745.02" waitingTime="0.00" waitingCount="0" stopTime="0.00" timeLoss="10.83" rerouteNo="0" devices="tripinfo_flow_route_146_duration_20250327_2120.3" vType="car" speedFactor="1.01" vaporized=""/>
    <tripinfo id="flow_route_141_duration_20250327_2120.0" depart="0.00" departLane="809719540#0_0" departPos="66.48" departSpeed="0.00" departDelay="0.00" arrival="85.00" arrivalLane="683079387#1_1" arrivalPos="7.27" arrivalSpeed="6.35" duration="85.00" routeLength="843.38" waitingTime="5.00" waitingCount="1" stopTime="0.00" timeLoss="27.95" rerouteNo="0" devices="tripinfo_flow_route_141_duration_20250327_2120.0" vType="car" speedFactor="0.94" vaporized=""/>
    <tripinfo id="flow_route_141_duration_20250327_2120.3" depart="26.00" departLane="809719540#0_0" departPos="192.20" departSpeed="0.00" departDelay="0.29" arrival="86.00" arrivalLane="683079387#1_1" arrivalPos="0.91" arrivalSpeed="5.73" duration="60.00" routeLength="704.27" waitingTime="0.00" waitingCount="0" stopTime="0.00" timeLoss="14.81" rerouteNo="0" devices="tripinfo_flow_route_141_duration_20250327_2120.3" vType="car" speedFactor="1.02" vaporized=""/>
    <tripinfo id="flow_route_146_duration_20250327_2120.4" depart="35.00" departLane="683079387#1_0" departPos="0.28" departSpeed="0.00" departDelay="0.72" arrival="87.00" arrivalLane="-809772643#1_0" arrivalPos="37.91" arrivalSpeed="15.58" duration="52.00" routeLength="650.60" waitingTime="0.00" waitingCount="0" stopTime="0.00" timeLoss="10.12" rerouteNo="0" devices="tripinfo_flow_route_146_duration_20250327_2120.4" vType="car" speedFactor="0.95" vaporized=""/>
    <tripinfo id="flow_route_141_duration_20250327_2120.2" depart="18.00" departLane="809719540#0_0" departPos="34.75" departSpeed="0.00" departDelay="0.86" arrival="89.00" arrivalLane="683079387#1_1" arrivalPos="6.99" arrivalSpeed="6.77" duration="71.00" routeLength="867.80" waitingTime="0.00" waitingCount="0" stopTime="0.00" timeLoss="15.59" rerouteNo="0" devices="tripinfo_flow_route_141_duration_20250327_2120.2" vType="car" speedFactor="0.99" vaporized=""/>
    <tripinfo id="flow_route_141_duration_20250327_2120.4" depart="36.00" departLane="809719540#0_0" departPos="249.29" departSpeed="0.00" departDelay="1.72" arrival="94.00" arrivalLane="683079387#1_1" arrivalPos="1.72" arrivalSpeed="4.95" duration="58.00" routeLength="655.01" waitingTime="0.00" waitingCount="0" stopTime="0.00" timeLoss="10.07" rerouteNo="0" devices="tripinfo_flow_route_141_duration_20250327_2120.4" vType="car" speedFactor="0.87" vaporized=""/>
    <tripinfo id="flow_route_140_duration_20250327_2120.6" depart="40.00" departLane="809719540#0_0" departPos="84.30" departSpeed="0.00" departDelay="0.00" arrival="100.00" arrivalLane="-809772643#1_1" arrivalPos="37.01" arrivalSpeed="11.21" duration="60.00" routeLength="262.98" waitingTime="23.00" waitingCount="1" stopTime="0.00" timeLoss="42.88" rerouteNo="0" devices="tripinfo_flow_route_140_duration_20250327_2120.6" vType="car" speedFactor="0.93" vaporized=""/>
    <tripinfo id="flow_route_142_duration_20250327_2120.5" depart="25.00" departLane="1253222187#0_0" departPos="171.14" departSpeed="0.00" departDelay="0.00" arrival="103.00" arrivalLane="683079388#0_0" arrivalPos="6.23" arrivalSpeed="16.11" duration="78.00" routeLength="633.40" waitingTime="20.00" waitingCount="1" stopTime="0.00" timeLoss="39.72" rerouteNo="0" devices="tripinfo_flow_route_142_duration_20250327_2120.5" vType="car" speedFactor="1.16" vaporized=""/>
    <tripinfo id="flow_route_143_duration_20250327_2120.1" depart="12.00" departLane="1253222187#0_0" departPos="63.62" departSpeed="0.00" departDelay="0.00" arrival="104.00" arrivalLane="1310781056_0" arrivalPos="3.68" arrivalSpeed="15.45" duration="92.00" routeLength="308.55" waitingTime="46.00" waitingCount="2" stopTime="0.00" timeLoss="72.59" rerouteNo="0" devices="tripinfo_flow_route_143_duration_20250327_2120.1" vType="car" speedFactor="1.03" vaporized=""/>
    <tripinfo id="flow_route_142_duration_20250327_2120.3" depart="15.00" departLane="1253222187#0_0" departPos="6.29" departSpeed="0.00" departDelay="0.00" arrival="105.00" arrivalLane="683079388#0_1" arrivalPos="24.70" arrivalSpeed="16.39" duration="90.00" routeLength="816.72" waitingTime="16.00" waitingCount="1" stopTime="0.00" timeLoss="40.10" rerouteNo="0" devices="tripinfo_flow_route_142_duration_20250327_2120.3" vType="car" speedFactor="1.12" vaporized=""/>
    <tripinfo id="flow_route_140_duration_20250327_2120.8" depart="55.00" departLane="809719540#0_0" departPos="262.37" departSpeed="0.00" departDelay="1.67" arrival="106.00" arrivalLane="-809772643#1_0" arrivalPos="120.96" arrivalSpeed="14.58" duration="51.00" routeLength="166.03" waitingTime="27.00" waitingCount="1" stopTime="0.00" timeLoss="39.79" rerouteNo="0" devices="tripinfo_flow_route_140_duration_20250327_2120.8" vType="car" speedFactor="0.90" vaporized=""/>
    <tripinfo id="flow_route_142_duration_20250327_2120.2" depart="10.00" departLane="1253222187#0_0" departPos="49.91" departSpeed="0.00" departDelay="0.00" arrival="107.00" arrivalLane="683079388#0_0" arrivalPos="22.92" arrivalSpeed="16.39" duration="97.00" routeLength="771.32" waitingTime="20.00" waitingCount="2" stopTime="0.00" timeLoss="49.69" rerouteNo="0" devices="tripinfo_flow_route_142_duration_20250327_2120.2" vType="car" speedFactor="1.09" vaporized=""/>
    <tripinfo id="flow_route_142_duration_20250327_2120.4" depart="20.00" departLane="1253222187#0_0" departPos="47.05" departSpeed="0.00" departDelay="0.00" arrival="108.00" arrivalLane="683079388#0_2" arrivalPos="24.90" arrivalSpeed="15.62" duration="88.00" routeLength="776.17" waitingTime="15.00" waitingCount="1" stopTime="0.00" timeLoss="38.34" rerouteNo="0" devices="tripinfo_flow_route_142_duration_20250327_2120.4" vType="car" speedFactor="0.94" vaporized=""/>
    <tripinfo id="flow_route_140_duration_20250327_2120.7" depart="47.00" departLane="809719540#0_0" departPos="94.51" departSpeed="0.00" departDelay="0.34" arrival="110.00" arrivalLane="-809772643#1_0" arrivalPos="149.26" arrivalSpeed="16.50" duration="63.00" routeLength="362.20" waitingTime="18.00" waitingCount="1" stopTime="0.00" timeLoss="40.97" rerouteNo="0" devices="tripinfo_flow_route_140_duration_20250327_2120.7" vType="car" speedFactor="0.99" vaporized=""/>
    <tripinfo id="flow_route_142_duration_20250327_2120.7" depart="35.00" departLane="1253222187#0_0" departPos="32.01" departSpeed="0.00" departDelay="0.00" arrival="111.00" arrivalLane="683079388#0_1" arrivalPos="24.66" arrivalSpeed="14.90" duration="76.00" routeLength="790.95" waitingTime="0.00" waitingCount="0" stopTime="0.00" timeLoss="24.16" rerouteNo="0" devices="tripinfo_flow_route_142_duration_20250327_2120.7" vType="car" speedFactor="0.92" vaporized=""/>
    <tripinfo id="flow_route_142_duration_20250327_2120.9" depart="45.00" departLane="1253222187#0_0" departPos="16.87" departSpeed="0.00" departDelay="0.00" arrival="111.00" arrivalLane="683079388#0_2" arrivalPos="1.21" arrivalSpeed="15.54" duration="66.00" routeLength="782.65" waitingTime="0.00" waitingCount="0" stopTime="0.00" timeLoss="18.70" rerouteNo="0" devices="tripinfo_flow_route_142_duration_20250327_2120.9" vType="car" speedFactor="1.17" vaporized=""/>
    <tripinfo id="flow_route_142_duration_20250327_2120.6" depart="30.00" departLane="1253222187#0_0" departPos="64.89" departSpeed="0.00" departDelay="0.00" arrival="112.00" arrivalLane="683079388#0_0" arrivalPos="24.79" arrivalSpeed="14.66" duration="82.00" routeLength="758.20" waitingTime="8.00" waitingCount="1" stopTime="0.00" timeLoss="30.38" rerouteNo="0" devices="tripinfo_flow_route_142_duration_20250327_2120.6" vType="car" speedFactor="0.89" vaporized=""/>
    <tripinfo id="flow_route_142_duration_20250327_2120.8" depart="40.00" departLane="1253222187#0_0" departPos="71.48" departSpeed="0.00" departDelay="0.00" arrival="114.00" arrivalLane="683079388#0_0" arrivalPos="25.62" arrivalSpeed="15.76" duration="74.00" routeLength="752.45" waitingTime="0.00" waitingCount="0" stopTime="0.00" timeLoss="27.82" rerouteNo="0" devices="tripinfo_flow_route_142_duration_20250327_2120.8" vType="car" speedFactor="1.18" vaporized=""/>
    <tripinfo id="flow_route_142_duration_20250327_2120.10" depart="50.00" departLane="1253222187#0_0" departPos="89.23" departSpeed="0.00" departDelay="0.00" arrival="114.00" arrivalLane="683079388#0_2" arrivalPos="17.52" arrivalSpeed="15.88" duration="64.00" routeLength="726.60" waitingTime="0.00" waitingCount="0" stopTime="0.00" timeLoss="18.61" rerouteNo="0" devices="tripinfo_flow_route_142_duration_20250327_2120.10" vType="car" speedFactor="0.97" vaporized=""/>
    <tripinfo id="flow_route_142_duration_20250327_2120.11" depart="55.00" departLane="1253222187#0_0" departPos="5.03" departSpeed="0.00" departDelay="0.00" arrival="114.00" arrivalLane="683079388#0_0" arrivalPos="9.43" arrivalSpeed="16.21" duration="59.00" routeLength="802.71" waitingTime="0.00" waitingCount="0" stopTime="0.00" timeLoss="10.45" rerouteNo="0" devices="tripinfo_flow_route_142_duration_20250327_2120.11" vType="car" speedFactor="1.03" vaporized=""/>
    <tripinfo id="flow_route_146_duration_20250327_2120.6" depart="52.00" departLane="683079387#1_0" departPos="8.43" departSpeed="0.00" departDelay="0.57" arrival="133.00" arrivalLane="-809772643#1_1" arrivalPos="80.58" arrivalSpeed="14.50" duration="81.00" routeLength="685.13" waitingTime="15.00" waitingCount="1" stopTime="0.00" timeLoss="38.89" rerouteNo="0" devices="tripinfo_flow_route_146_duration_20250327_2120.6" vType="car" speedFactor="1.10" vaporized=""/>
    <tripinfo id="flow_route_146_duration_20250327_2120.5" depart="43.00" departLane="683079387#1_0" departPos="1.84" departSpeed="0.00" departDelay="0.15" arrival="135.00" arrivalLane="-809772643#1_0" arrivalPos="117.26" arrivalSpeed="16.14" duration="92.00" routeLength="728.39" waitingTime="23.00" waitingCount="1" stopTime="0.00" timeLoss="47.21" rerouteNo="0" devices="tripinfo_flow_route_146_duration_20250327_2120.5" vType="car" speedFactor="1.01" vaporized=""/>
    <tripinfo id="flow_route_141_duration_20250327_2120.5" depart="43.00" departLane="809719540#0_0" departPos="55.65" departSpeed="0.00" departDelay="0.15" arrival="139.00" arrivalLane="683079387#1_1" arrivalPos="0.88" arrivalSpeed="6.29" duration="96.00" routeLength="840.79" waitingTime="17.00" waitingCount="1" stopTime="0.00" timeLoss="43.80" rerouteNo="0" devices="tripinfo_flow_route_141_duration_20250327_2120.5" vType="car" speedFactor="1.15" vaporized=""/>
    <tripinfo id="flow_route_141_duration_20250327_2120.6" depart="52.00" departLane="809719540#0_0" departPos="137.74" departSpeed="0.00" departDelay="0.57" arrival="142.00" arrivalLane="683079387#1_1" arrivalPos="6.28" arrivalSpeed="7.78" duration="90.00" routeLength="764.10" waitingTime="15.00" waitingCount="1" stopTime="0.00" timeLoss="42.36" rerouteNo="0" devices="tripinfo_flow_route_141_duration_20250327_2120.6" vType="car" speedFactor="1.18" vaporized=""/>
    <tripinfo id="flow_route_143_duration_20250327_2120.2" depart="24.00" departLane="1253222187#0_0" departPos="120.52" departSpeed="0.00" departDelay="0.00" arrival="146.00" arrivalLane="1310781056_0" arrivalPos="19.05" arrivalSpeed="15.04" duration="122.00" routeLength="267.03" waitingTime="71.00" waitingCount="4" stopTime="0.00" timeLoss="105.17" rerouteNo="0" devices="tripinfo_flow_route_143_duration_20250327_2120.2" vType="car" speedFactor="0.94" vaporized=""/>
    <tripinfo id="flow_route_143_duration_20250327_2120.3" depart="36.00" departLane="1253222187#0_0" departPos="14.12" departSpeed="0.00" departDelay="0.00" arrival="149.00" arrivalLane="1310781056_0" arrivalPos="31.62" arrivalSpeed="16.46" duration="113.00" routeLength="386.00" waitingTime="52.00" waitingCount="3" stopTime="0.00" timeLoss="89.16" rerouteNo="0" devices="tripinfo_flow_route_143_duration_20250327_2120.3" vType="car" speedFactor="1.13" vaporized=""/>
    <tripinfo id="flow_route_143_duration_20250327_2120.4" depart="48.00" departLane="1253222187#0_0" departPos="44.78" departSpeed="0.00" departDelay="0.00" arrival="151.00" arrivalLane="1310781056_0" arrivalPos="32.89" arrivalSpeed="16.43" duration="103.00" routeLength="356.61" waitingTime="45.00" waitingCount="3" stopTime="0.00" timeLoss="80.65" rerouteNo="0" devices="tripinfo_flow_route_143_duration_20250327_2120.4" vType="car" speedFactor="1.02" vaporized=""/>
</tripinfos>
