<?xml version="1.0" encoding="UTF-8"?>

<!-- generated on 2025-05-06 21:08:16 by Eclipse SUMO sumo Version 1.20.0
<configuration xmlns:xsi="http://www.w3.org/2001/XMLSchema-instance" xsi:noNamespaceSchemaLocation="http://sumo.dlr.de/xsd/sumoConfiguration.xsd">

    <input>
        <net-file value="osm.net.xml"/>
        <route-files value="xml/route_static_cluster_2271368471_4779869278_3.rou.xml"/>
    </input>

    <output>
        <tripinfo-output value="xml/tripinfo_static_cluster_2271368471_4779869278_3.xml"/>
    </output>

    <traci_server>
        <remote-port value="52235"/>
    </traci_server>

</configuration>
-->

<tripinfos xmlns:xsi="http://www.w3.org/2001/XMLSchema-instance" xsi:noNamespaceSchemaLocation="http://sumo.dlr.de/xsd/tripinfo_file.xsd">
    <tripinfo id="flow_route_36_duration_20250327_2300.0" depart="0.00" departLane="485211947#0_0" departPos="162.24" departSpeed="0.00" departDelay="0.00" arrival="23.00" arrivalLane="137415945#0_0" arrivalPos="6.94" arrivalSpeed="15.19" duration="23.00" routeLength="189.23" waitingTime="0.00" waitingCount="0" stopTime="0.00" timeLoss="10.24" rerouteNo="0" devices="tripinfo_flow_route_36_duration_20250327_2300.0" vType="car" speedFactor="0.94" vaporized=""/>
    <tripinfo id="flow_route_37_duration_20250327_2300.0" depart="0.00" departLane="485211947#0_0" departPos="59.66" departSpeed="0.00" departDelay="0.00" arrival="33.00" arrivalLane="-430406005#1_1" arrivalPos="133.07" arrivalSpeed="16.05" duration="33.00" routeLength="286.39" waitingTime="0.00" waitingCount="0" stopTime="0.00" timeLoss="12.84" rerouteNo="0" devices="tripinfo_flow_route_37_duration_20250327_2300.0" vType="car" speedFactor="0.86" vaporized=""/>
    <tripinfo id="flow_route_35_duration_20250327_2300.0" depart="0.00" departLane="485211947#0_0" departPos="11.17" departSpeed="0.00" departDelay="0.00" arrival="36.00" arrivalLane="1369578054_0" arrivalPos="74.16" arrivalSpeed="12.65" duration="36.00" routeLength="260.46" waitingTime="0.00" waitingCount="0" stopTime="0.00" timeLoss="16.96" rerouteNo="0" devices="tripinfo_flow_route_35_duration_20250327_2300.0" vType="car" speedFactor="0.89" vaporized=""/>
    <tripinfo id="flow_route_36_duration_20250327_2300.2" depart="18.00" departLane="485211947#0_0" departPos="177.25" departSpeed="0.00" departDelay="0.86" arrival="39.00" arrivalLane="137415945#0_0" arrivalPos="2.03" arrivalSpeed="16.47" duration="21.00" routeLength="169.31" waitingTime="0.00" waitingCount="0" stopTime="0.00" timeLoss="10.33" rerouteNo="0" devices="tripinfo_flow_route_36_duration_20250327_2300.2" vType="car" speedFactor="1.05" vaporized=""/>
    <tripinfo id="flow_route_36_duration_20250327_2300.1" depart="10.00" departLane="485211947#0_0" departPos="6.01" departSpeed="0.00" departDelay="1.43" arrival="42.00" arrivalLane="137415945#0_0" arrivalPos="6.93" arrivalSpeed="16.35" duration="32.00" routeLength="345.45" waitingTime="0.00" waitingCount="0" stopTime="0.00" timeLoss="10.84" rerouteNo="0" devices="tripinfo_flow_route_36_duration_20250327_2300.1" vType="car" speedFactor="1.09" vaporized=""/>
    <tripinfo id="flow_route_30_duration_20250327_2300.0" depart="0.00" departLane="1235147073.116_0" departPos="7.14" departSpeed="0.00" departDelay="0.00" arrival="56.00" arrivalLane="133126030#0_0" arrivalPos="8.43" arrivalSpeed="7.20" duration="56.00" routeLength="175.81" waitingTime="26.00" waitingCount="1" stopTime="0.00" timeLoss="45.24" rerouteNo="0" devices="tripinfo_flow_route_30_duration_20250327_2300.0" vType="car" speedFactor="1.01" vaporized=""/>
    <tripinfo id="flow_route_31_duration_20250327_2300.1" depart="20.00" departLane="1235147073.116_0" departPos="5.07" departSpeed="0.00" departDelay="0.00" arrival="58.00" arrivalLane="-430406005#1_0" arrivalPos="5.33" arrivalSpeed="6.46" duration="38.00" routeLength="163.21" waitingTime="8.00" waitingCount="1" stopTime="0.00" timeLoss="27.34" rerouteNo="0" devices="tripinfo_flow_route_31_duration_20250327_2300.1" vType="car" speedFactor="1.12" vaporized=""/>
    <tripinfo id="flow_route_31_duration_20250327_2300.0" depart="2.00" departLane="1235147073.116_0" departPos="0.71" departSpeed="0.00" departDelay="2.00" arrival="64.00" arrivalLane="-430406005#1_0" arrivalPos="87.77" arrivalSpeed="12.75" duration="62.00" routeLength="250.02" waitingTime="24.00" waitingCount="1" stopTime="0.00" timeLoss="46.16" rerouteNo="0" devices="tripinfo_flow_route_31_duration_20250327_2300.0" vType="car" speedFactor="1.08" vaporized=""/>
    <tripinfo id="flow_route_32_duration_20250327_2300.0" depart="8.00" departLane="1235147073.116_0" departPos="6.07" departSpeed="0.00" departDelay="8.00" arrival="69.00" arrivalLane="1369578054_1" arrivalPos="176.77" arrivalSpeed="16.52" duration="61.00" routeLength="350.43" waitingTime="18.00" waitingCount="1" stopTime="0.00" timeLoss="38.67" rerouteNo="0" devices="tripinfo_flow_route_32_duration_20250327_2300.0" vType="car" speedFactor="1.03" vaporized=""/>
    <tripinfo id="flow_route_32_duration_20250327_2300.2" depart="41.00" departLane="1235147073.116_0" departPos="0.43" departSpeed="0.00" departDelay="1.00" arrival="70.00" arrivalLane="1369578054_1" arrivalPos="54.94" arrivalSpeed="13.69" duration="29.00" routeLength="234.25" waitingTime="0.00" waitingCount="0" stopTime="0.00" timeLoss="11.79" rerouteNo="0" devices="tripinfo_flow_route_32_duration_20250327_2300.2" vType="car" speedFactor="0.89" vaporized=""/>
    <tripinfo id="flow_route_32_duration_20250327_2300.1" depart="24.00" departLane="1235147073.116_0" departPos="4.04" departSpeed="0.00" departDelay="4.00" arrival="73.00" arrivalLane="1369578054_1" arrivalPos="205.27" arrivalSpeed="16.04" duration="49.00" routeLength="380.96" waitingTime="3.00" waitingCount="1" stopTime="0.00" timeLoss="24.94" rerouteNo="0" devices="tripinfo_flow_route_32_duration_20250327_2300.1" vType="car" speedFactor="0.99" vaporized=""/>
    <tripinfo id="flow_route_31_duration_20250327_2300.2" depart="40.00" departLane="1235147073.116_0" departPos="9.82" departSpeed="0.00" departDelay="0.00" arrival="76.00" arrivalLane="-430406005#1_0" arrivalPos="170.54" arrivalSpeed="16.47" duration="36.00" routeLength="323.67" waitingTime="0.00" waitingCount="0" stopTime="0.00" timeLoss="14.95" rerouteNo="0" devices="tripinfo_flow_route_31_duration_20250327_2300.2" vType="car" speedFactor="0.97" vaporized=""/>
    <tripinfo id="flow_route_33_duration_20250327_2300.0" depart="0.00" departLane="133126008#0_0" departPos="101.07" departSpeed="0.00" departDelay="0.00" arrival="104.00" arrivalLane="1369578054_0" arrivalPos="13.07" arrivalSpeed="8.70" duration="104.00" routeLength="125.36" waitingTime="76.00" waitingCount="1" stopTime="0.00" timeLoss="95.71" rerouteNo="0" devices="tripinfo_flow_route_33_duration_20250327_2300.0" vType="car" speedFactor="0.83" vaporized=""/>
    <tripinfo id="flow_route_29_duration_20250327_2300.0" depart="0.00" departLane="-422986370#2_0" departPos="201.60" departSpeed="0.00" departDelay="0.00" arrival="113.00" arrivalLane="137415945#0_0" arrivalPos="9.07" arrivalSpeed="15.64" duration="113.00" routeLength="253.29" waitingTime="74.00" waitingCount="1" stopTime="0.00" timeLoss="95.44" rerouteNo="0" devices="tripinfo_flow_route_29_duration_20250327_2300.0" vType="car" speedFactor="0.94" vaporized=""/>
    <tripinfo id="flow_route_34_duration_20250327_2300.0" depart="0.00" departLane="133126008#0_0" departPos="47.21" departSpeed="0.00" departDelay="0.00" arrival="114.00" arrivalLane="133126030#0_0" arrivalPos="137.72" arrivalSpeed="14.27" duration="114.00" routeLength="278.03" waitingTime="73.00" waitingCount="1" stopTime="0.00" timeLoss="96.39" rerouteNo="0" devices="tripinfo_flow_route_34_duration_20250327_2300.0" vType="car" speedFactor="1.05" vaporized=""/>
    <tripinfo id="flow_route_28_duration_20250327_2300.1" depart="30.00" departLane="-422986370#2_0" departPos="214.35" departSpeed="0.00" departDelay="0.00" arrival="114.00" arrivalLane="-430406005#1_1" arrivalPos="102.08" arrivalSpeed="13.95" duration="84.00" routeLength="222.17" waitingTime="47.00" waitingCount="1" stopTime="0.00" timeLoss="69.40" rerouteNo="0" devices="tripinfo_flow_route_28_duration_20250327_2300.1" vType="car" speedFactor="0.88" vaporized=""/>
    <tripinfo id="flow_route_29_duration_20250327_2300.1" depart="15.00" departLane="-422986370#2_0" departPos="229.01" departSpeed="0.00" departDelay="0.00" arrival="115.00" arrivalLane="137415945#0_0" arrivalPos="3.84" arrivalSpeed="15.72" duration="100.00" routeLength="220.65" waitingTime="65.00" waitingCount="1" stopTime="0.00" timeLoss="85.25" rerouteNo="0" devices="tripinfo_flow_route_29_duration_20250327_2300.1" vType="car" speedFactor="1.03" vaporized=""/>
    <tripinfo id="flow_route_28_duration_20250327_2300.0" depart="0.00" departLane="-422986370#2_0" departPos="1.81" departSpeed="0.00" departDelay="0.00" arrival="116.00" arrivalLane="-430406005#1_1" arrivalPos="159.13" arrivalSpeed="16.18" duration="116.00" routeLength="491.75" waitingTime="61.00" waitingCount="1" stopTime="0.00" timeLoss="85.96" rerouteNo="0" devices="tripinfo_flow_route_28_duration_20250327_2300.0" vType="car" speedFactor="1.06" vaporized=""/>
    <tripinfo id="flow_route_29_duration_20250327_2300.2" depart="30.00" departLane="-422986370#2_0" departPos="178.60" departSpeed="0.00" departDelay="0.00" arrival="116.00" arrivalLane="137415945#0_0" arrivalPos="3.07" arrivalSpeed="15.23" duration="86.00" routeLength="270.29" waitingTime="46.00" waitingCount="1" stopTime="0.00" timeLoss="67.72" rerouteNo="0" devices="tripinfo_flow_route_29_duration_20250327_2300.2" vType="car" speedFactor="0.94" vaporized=""/>
    <tripinfo id="flow_route_33_duration_20250327_2300.1" depart="30.00" departLane="133126008#0_0" departPos="123.44" departSpeed="0.00" departDelay="0.00" arrival="120.00" arrivalLane="1369578054_0" arrivalPos="243.22" arrivalSpeed="15.19" duration="90.00" routeLength="333.14" waitingTime="48.00" waitingCount="1" stopTime="0.00" timeLoss="68.83" rerouteNo="0" devices="tripinfo_flow_route_33_duration_20250327_2300.1" vType="car" speedFactor="0.94" vaporized=""/>
    <tripinfo id="flow_route_29_duration_20250327_2300.3" depart="45.00" departLane="-422986370#2_0" departPos="20.06" departSpeed="0.00" departDelay="0.00" arrival="120.00" arrivalLane="137415945#0_0" arrivalPos="11.81" arrivalSpeed="14.48" duration="75.00" routeLength="437.57" waitingTime="20.00" waitingCount="1" stopTime="0.00" timeLoss="42.91" rerouteNo="0" devices="tripinfo_flow_route_29_duration_20250327_2300.3" vType="car" speedFactor="0.87" vaporized=""/>
    <tripinfo id="flow_route_35_duration_20250327_2300.1" depart="32.00" departLane="485211947#0_0" departPos="57.03" departSpeed="0.00" departDelay="2.00" arrival="139.00" arrivalLane="1369578054_0" arrivalPos="26.67" arrivalSpeed="8.31" duration="107.00" routeLength="167.10" waitingTime="75.00" waitingCount="1" stopTime="0.00" timeLoss="95.95" rerouteNo="0" devices="tripinfo_flow_route_35_duration_20250327_2300.1" vType="car" speedFactor="1.16" vaporized=""/>
    <tripinfo id="flow_route_37_duration_20250327_2300.1" depart="32.00" departLane="485211947#0_0" departPos="91.27" departSpeed="0.00" departDelay="2.00" arrival="147.00" arrivalLane="-430406005#1_1" arrivalPos="119.32" arrivalSpeed="14.93" duration="115.00" routeLength="241.03" waitingTime="80.00" waitingCount="1" stopTime="0.00" timeLoss="99.35" rerouteNo="0" devices="tripinfo_flow_route_37_duration_20250327_2300.1" vType="car" speedFactor="1.02" vaporized=""/>
    <tripinfo id="flow_route_36_duration_20250327_2300.3" depart="26.00" departLane="485211947#0_0" departPos="31.12" departSpeed="0.00" departDelay="0.29" arrival="149.00" arrivalLane="137415945#0_0" arrivalPos="2.84" arrivalSpeed="15.15" duration="123.00" routeLength="316.25" waitingTime="79.00" waitingCount="1" stopTime="0.00" timeLoss="102.25" rerouteNo="0" devices="tripinfo_flow_route_36_duration_20250327_2300.3" vType="car" speedFactor="0.93" vaporized=""/>
    <tripinfo id="flow_route_36_duration_20250327_2300.4" depart="35.00" departLane="485211947#0_0" departPos="31.20" departSpeed="0.00" departDelay="0.72" arrival="151.00" arrivalLane="137415945#0_1" arrivalPos="7.38" arrivalSpeed="16.11" duration="116.00" routeLength="320.71" waitingTime="72.00" waitingCount="1" stopTime="0.00" timeLoss="96.03" rerouteNo="0" devices="tripinfo_flow_route_36_duration_20250327_2300.4" vType="car" speedFactor="1.01" vaporized=""/>
    <tripinfo id="flow_route_36_duration_20250327_2300.5" depart="43.00" departLane="485211947#0_0" departPos="101.31" departSpeed="0.00" departDelay="0.15" arrival="152.00" arrivalLane="137415945#0_0" arrivalPos="3.55" arrivalSpeed="13.55" duration="109.00" routeLength="246.77" waitingTime="71.00" waitingCount="1" stopTime="0.00" timeLoss="90.20" rerouteNo="0" devices="tripinfo_flow_route_36_duration_20250327_2300.5" vType="car" speedFactor="0.83" vaporized=""/>
    <tripinfo id="flow_route_36_duration_20250327_2300.6" depart="53.00" departLane="485211947#0_0" departPos="58.16" departSpeed="0.00" departDelay="1.57" arrival="153.00" arrivalLane="137415945#0_0" arrivalPos="2.28" arrivalSpeed="15.05" duration="100.00" routeLength="288.65" waitingTime="59.00" waitingCount="1" stopTime="0.00" timeLoss="81.00" rerouteNo="0" devices="tripinfo_flow_route_36_duration_20250327_2300.6" vType="car" speedFactor="0.92" vaporized=""/>
</tripinfos>
