<?xml version="1.0" encoding="UTF-8"?>

<!-- generated on 2025-05-06 21:09:06 by Eclipse SUMO sumo Version 1.20.0
<configuration xmlns:xsi="http://www.w3.org/2001/XMLSchema-instance" xsi:noNamespaceSchemaLocation="http://sumo.dlr.de/xsd/sumoConfiguration.xsd">

    <input>
        <net-file value="osm.net.xml"/>
        <route-files value="xml/route_static_cluster_11648561428_407729599_8.rou.xml"/>
    </input>

    <output>
        <tripinfo-output value="xml/tripinfo_static_cluster_11648561428_407729599_8.xml"/>
    </output>

    <traci_server>
        <remote-port value="36583"/>
    </traci_server>

</configuration>
-->

<tripinfos xmlns:xsi="http://www.w3.org/2001/XMLSchema-instance" xsi:noNamespaceSchemaLocation="http://sumo.dlr.de/xsd/tripinfo_file.xsd">
    <tripinfo id="flow_route_107_duration_20250327_1910.1" depart="3.00" departLane="1254519229#0_0" departPos="69.67" departSpeed="0.00" departDelay="1.50" arrival="20.00" arrivalLane="1342963997_0" arrivalPos="83.70" arrivalSpeed="13.42" duration="17.00" routeLength="114.61" waitingTime="0.00" waitingCount="0" stopTime="0.00" timeLoss="9.82" rerouteNo="0" devices="tripinfo_flow_route_107_duration_20250327_1910.1" vType="car" speedFactor="0.89" vaporized=""/>
    <tripinfo id="flow_route_101_duration_20250327_1910.1" depart="2.00" departLane="186409193_0" departPos="26.41" departSpeed="0.00" departDelay="0.42" arrival="21.00" arrivalLane="430416184_0" arrivalPos="1.75" arrivalSpeed="4.90" duration="19.00" routeLength="109.83" waitingTime="0.00" waitingCount="0" stopTime="0.00" timeLoss="9.69" rerouteNo="0" devices="tripinfo_flow_route_101_duration_20250327_1910.1" vType="car" speedFactor="0.83" vaporized=""/>
    <tripinfo id="flow_route_107_duration_20250327_1910.0" depart="0.00" departLane="1254519229#0_0" departPos="43.39" departSpeed="0.00" departDelay="0.00" arrival="22.00" arrivalLane="1342963997_1" arrivalPos="88.24" arrivalSpeed="14.27" duration="22.00" routeLength="145.44" waitingTime="0.00" waitingCount="0" stopTime="0.00" timeLoss="12.70" rerouteNo="0" devices="tripinfo_flow_route_107_duration_20250327_1910.0" vType="car" speedFactor="1.08" vaporized=""/>
    <tripinfo id="flow_route_107_duration_20250327_1910.2" depart="3.00" departLane="1254519229#0_0" departPos="25.62" departSpeed="0.00" departDelay="0.00" arrival="25.00" arrivalLane="1342963997_0" arrivalPos="47.50" arrivalSpeed="11.21" duration="22.00" routeLength="122.46" waitingTime="0.00" waitingCount="0" stopTime="0.00" timeLoss="14.62" rerouteNo="0" devices="tripinfo_flow_route_107_duration_20250327_1910.2" vType="car" speedFactor="0.94" vaporized=""/>
    <tripinfo id="flow_route_106_duration_20250327_1910.2" depart="5.00" departLane="1254519229#0_0" departPos="43.31" departSpeed="0.00" departDelay="1.47" arrival="28.00" arrivalLane="430416184_1" arrivalPos="13.36" arrivalSpeed="6.59" duration="23.00" routeLength="70.73" waitingTime="3.00" waitingCount="1" stopTime="0.00" timeLoss="18.03" rerouteNo="0" devices="tripinfo_flow_route_106_duration_20250327_1910.2" vType="car" speedFactor="1.09" vaporized=""/>
    <tripinfo id="flow_route_107_duration_20250327_1910.5" depart="12.00" departLane="1254519229#0_0" departPos="5.33" departSpeed="0.00" departDelay="4.50" arrival="31.00" arrivalLane="1342963997_0" arrivalPos="47.42" arrivalSpeed="14.06" duration="19.00" routeLength="142.67" waitingTime="0.00" waitingCount="0" stopTime="0.00" timeLoss="10.20" rerouteNo="0" devices="tripinfo_flow_route_107_duration_20250327_1910.5" vType="car" speedFactor="1.02" vaporized=""/>
    <tripinfo id="flow_route_106_duration_20250327_1910.0" depart="0.00" departLane="1254519229#0_0" departPos="19.69" departSpeed="0.00" departDelay="0.00" arrival="33.00" arrivalLane="430416184_1" arrivalPos="13.15" arrivalSpeed="8.04" duration="33.00" routeLength="94.14" waitingTime="2.00" waitingCount="1" stopTime="0.00" timeLoss="26.32" rerouteNo="0" devices="tripinfo_flow_route_106_duration_20250327_1910.0" vType="car" speedFactor="1.01" vaporized=""/>
    <tripinfo id="flow_route_101_duration_20250327_1910.0" depart="0.00" departLane="186409193_0" departPos="43.42" departSpeed="0.00" departDelay="0.00" arrival="34.00" arrivalLane="430416184_0" arrivalPos="206.05" arrivalSpeed="16.21" duration="34.00" routeLength="297.12" waitingTime="0.00" waitingCount="0" stopTime="0.00" timeLoss="14.75" rerouteNo="0" devices="tripinfo_flow_route_101_duration_20250327_1910.0" vType="car" speedFactor="0.94" vaporized=""/>
    <tripinfo id="flow_route_107_duration_20250327_1910.3" depart="5.00" departLane="1254519229#0_0" departPos="18.84" departSpeed="0.00" departDelay="0.50" arrival="34.00" arrivalLane="1342963997_0" arrivalPos="148.01" arrivalSpeed="16.16" duration="29.00" routeLength="229.76" waitingTime="0.00" waitingCount="0" stopTime="0.00" timeLoss="14.83" rerouteNo="0" devices="tripinfo_flow_route_107_duration_20250327_1910.3" vType="car" speedFactor="1.12" vaporized=""/>
    <tripinfo id="flow_route_107_duration_20250327_1910.4" depart="8.00" departLane="1254519229#0_0" departPos="13.36" departSpeed="0.00" departDelay="2.00" arrival="35.00" arrivalLane="1342963997_0" arrivalPos="137.27" arrivalSpeed="16.15" duration="27.00" routeLength="224.49" waitingTime="0.00" waitingCount="0" stopTime="0.00" timeLoss="13.00" rerouteNo="0" devices="tripinfo_flow_route_107_duration_20250327_1910.4" vType="car" speedFactor="0.88" vaporized=""/>
    <tripinfo id="flow_route_107_duration_20250327_1910.8" depart="27.00" departLane="1254519229#0_0" departPos="70.60" departSpeed="0.00" departDelay="15.00" arrival="40.00" arrivalLane="1342963997_0" arrivalPos="27.26" arrivalSpeed="9.36" duration="13.00" routeLength="57.25" waitingTime="0.00" waitingCount="0" stopTime="0.00" timeLoss="9.19" rerouteNo="0" devices="tripinfo_flow_route_107_duration_20250327_1910.8" vType="car" speedFactor="0.93" vaporized=""/>
    <tripinfo id="flow_route_106_duration_20250327_1910.3" depart="6.00" departLane="1254519229#0_0" departPos="2.37" departSpeed="0.00" departDelay="0.71" arrival="45.00" arrivalLane="430416184_1" arrivalPos="87.27" arrivalSpeed="12.98" duration="39.00" routeLength="185.57" waitingTime="1.00" waitingCount="1" stopTime="0.00" timeLoss="26.77" rerouteNo="0" devices="tripinfo_flow_route_106_duration_20250327_1910.3" vType="car" speedFactor="0.93" vaporized=""/>
    <tripinfo id="flow_route_106_duration_20250327_1910.1" depart="3.00" departLane="1254519229#0_0" departPos="4.79" departSpeed="0.00" departDelay="1.24" arrival="48.00" arrivalLane="430416184_1" arrivalPos="194.63" arrivalSpeed="16.45" duration="45.00" routeLength="290.51" waitingTime="3.00" waitingCount="1" stopTime="0.00" timeLoss="26.77" rerouteNo="0" devices="tripinfo_flow_route_106_duration_20250327_1910.1" vType="car" speedFactor="1.05" vaporized=""/>
    <tripinfo id="flow_route_106_duration_20250327_1910.4" depart="12.00" departLane="1254519229#0_0" departPos="73.85" departSpeed="0.00" departDelay="4.94" arrival="51.00" arrivalLane="430416184_0" arrivalPos="278.94" arrivalSpeed="16.40" duration="39.00" routeLength="305.77" waitingTime="4.00" waitingCount="2" stopTime="0.00" timeLoss="19.26" rerouteNo="0" devices="tripinfo_flow_route_106_duration_20250327_1910.4" vType="car" speedFactor="1.16" vaporized=""/>
    <tripinfo id="flow_route_149_duration_20250327_1910.2" depart="9.00" departLane="186410975#0_0" departPos="178.51" departSpeed="0.00" departDelay="0.43" arrival="52.00" arrivalLane="430416184_1" arrivalPos="25.74" arrivalSpeed="9.40" duration="43.00" routeLength="392.90" waitingTime="0.00" waitingCount="0" stopTime="0.00" timeLoss="12.42" rerouteNo="0" devices="tripinfo_flow_route_149_duration_20250327_1910.2" vType="car" speedFactor="0.89" vaporized=""/>
    <tripinfo id="flow_route_106_duration_20250327_1910.6" depart="25.00" departLane="1254519229#0_0" departPos="46.87" departSpeed="0.00" departDelay="14.42" arrival="52.00" arrivalLane="430416184_1" arrivalPos="167.75" arrivalSpeed="16.30" duration="27.00" routeLength="221.56" waitingTime="0.00" waitingCount="0" stopTime="0.00" timeLoss="12.64" rerouteNo="0" devices="tripinfo_flow_route_106_duration_20250327_1910.6" vType="car" speedFactor="0.92" vaporized=""/>
    <tripinfo id="flow_route_149_duration_20250327_1910.0" depart="0.00" departLane="186410975#0_0" departPos="192.32" departSpeed="0.00" departDelay="0.00" arrival="61.00" arrivalLane="430416184_1" arrivalPos="170.61" arrivalSpeed="16.52" duration="61.00" routeLength="523.96" waitingTime="4.00" waitingCount="1" stopTime="0.00" timeLoss="25.43" rerouteNo="0" devices="tripinfo_flow_route_149_duration_20250327_1910.0" vType="car" speedFactor="1.03" vaporized=""/>
    <tripinfo id="flow_route_107_duration_20250327_1910.9" depart="28.00" departLane="1254519229#0_0" departPos="63.49" departSpeed="0.00" departDelay="14.50" arrival="65.00" arrivalLane="1342963997_0" arrivalPos="32.44" arrivalSpeed="9.53" duration="37.00" routeLength="69.53" waitingTime="19.00" waitingCount="2" stopTime="0.00" timeLoss="32.26" rerouteNo="0" devices="tripinfo_flow_route_107_duration_20250327_1910.9" vType="car" speedFactor="1.17" vaporized=""/>
    <tripinfo id="flow_route_107_duration_20250327_1910.7" depart="25.00" departLane="1254519229#0_0" departPos="22.06" departSpeed="0.00" departDelay="14.50" arrival="67.00" arrivalLane="1342963997_0" arrivalPos="30.24" arrivalSpeed="9.56" duration="42.00" routeLength="108.75" waitingTime="15.00" waitingCount="1" stopTime="0.00" timeLoss="35.15" rerouteNo="0" devices="tripinfo_flow_route_107_duration_20250327_1910.7" vType="car" speedFactor="0.95" vaporized=""/>
    <tripinfo id="flow_route_100_duration_20250327_1910.0" depart="0.00" departLane="186409193_0" departPos="2.55" departSpeed="0.00" departDelay="0.00" arrival="70.00" arrivalLane="1254519229#0_1" arrivalPos="70.90" arrivalSpeed="0.67" duration="70.00" routeLength="299.97" waitingTime="17.00" waitingCount="2" stopTime="0.00" timeLoss="51.25" rerouteNo="0" devices="tripinfo_flow_route_100_duration_20250327_1910.0" vType="car" speedFactor="1.06" vaporized=""/>
    <tripinfo id="flow_route_101_duration_20250327_1910.5" depart="18.00" departLane="186409193_0" departPos="51.15" departSpeed="0.00" departDelay="10.11" arrival="74.00" arrivalLane="430416184_0" arrivalPos="118.96" arrivalSpeed="13.31" duration="56.00" routeLength="202.31" waitingTime="23.00" waitingCount="1" stopTime="0.00" timeLoss="42.41" rerouteNo="0" devices="tripinfo_flow_route_101_duration_20250327_1910.5" vType="car" speedFactor="0.94" vaporized=""/>
    <tripinfo id="flow_route_101_duration_20250327_1910.4" depart="12.00" departLane="186409193_0" departPos="16.29" departSpeed="0.00" departDelay="5.69" arrival="75.00" arrivalLane="430416184_0" arrivalPos="95.81" arrivalSpeed="13.17" duration="63.00" routeLength="214.02" waitingTime="21.00" waitingCount="1" stopTime="0.00" timeLoss="48.69" rerouteNo="0" devices="tripinfo_flow_route_101_duration_20250327_1910.4" vType="car" speedFactor="0.94" vaporized=""/>
    <tripinfo id="flow_route_101_duration_20250327_1910.2" depart="6.00" departLane="186409193_0" departPos="9.29" departSpeed="0.00" departDelay="2.84" arrival="78.00" arrivalLane="430416184_0" arrivalPos="197.69" arrivalSpeed="16.42" duration="72.00" routeLength="322.90" waitingTime="26.00" waitingCount="1" stopTime="0.00" timeLoss="49.78" rerouteNo="0" devices="tripinfo_flow_route_101_duration_20250327_1910.2" vType="car" speedFactor="0.86" vaporized=""/>
    <tripinfo id="flow_route_107_duration_20250327_1910.6" depart="23.00" departLane="1254519229#0_0" departPos="3.39" departSpeed="0.00" departDelay="14.00" arrival="78.00" arrivalLane="1342963997_0" arrivalPos="145.75" arrivalSpeed="16.25" duration="55.00" routeLength="242.94" waitingTime="14.00" waitingCount="1" stopTime="0.00" timeLoss="39.79" rerouteNo="0" devices="tripinfo_flow_route_107_duration_20250327_1910.6" vType="car" speedFactor="0.97" vaporized=""/>
    <tripinfo id="flow_route_107_duration_20250327_1910.15" depart="63.00" departLane="1254519229#0_0" departPos="71.01" departSpeed="0.00" departDelay="40.50" arrival="80.00" arrivalLane="1342963997_0" arrivalPos="86.19" arrivalSpeed="13.05" duration="17.00" routeLength="115.77" waitingTime="0.00" waitingCount="0" stopTime="0.00" timeLoss="9.77" rerouteNo="0" devices="tripinfo_flow_route_107_duration_20250327_1910.15" vType="car" speedFactor="1.00" vaporized=""/>
    <tripinfo id="flow_route_106_duration_20250327_1910.7" depart="27.00" departLane="1254519229#0_0" departPos="38.41" departSpeed="0.00" departDelay="14.65" arrival="84.00" arrivalLane="430416184_1" arrivalPos="90.77" arrivalSpeed="12.98" duration="57.00" routeLength="153.04" waitingTime="22.00" waitingCount="2" stopTime="0.00" timeLoss="46.67" rerouteNo="0" devices="tripinfo_flow_route_106_duration_20250327_1910.7" vType="car" speedFactor="1.15" vaporized=""/>
    <tripinfo id="flow_route_106_duration_20250327_1910.5" depart="20.00" departLane="1254519229#0_0" departPos="23.58" departSpeed="0.00" departDelay="11.18" arrival="87.00" arrivalLane="430416184_1" arrivalPos="69.81" arrivalSpeed="11.30" duration="67.00" routeLength="146.91" waitingTime="24.00" waitingCount="3" stopTime="0.00" timeLoss="57.21" rerouteNo="0" devices="tripinfo_flow_route_106_duration_20250327_1910.5" vType="car" speedFactor="1.01" vaporized=""/>
    <tripinfo id="flow_route_101_duration_20250327_1910.10" depart="35.00" departLane="186409193_0" departPos="53.72" departSpeed="0.00" departDelay="19.22" arrival="87.00" arrivalLane="430416184_0" arrivalPos="177.89" arrivalSpeed="16.10" duration="52.00" routeLength="258.66" waitingTime="12.00" waitingCount="1" stopTime="0.00" timeLoss="35.76" rerouteNo="0" devices="tripinfo_flow_route_101_duration_20250327_1910.10" vType="car" speedFactor="1.10" vaporized=""/>
    <tripinfo id="flow_route_101_duration_20250327_1910.3" depart="12.00" departLane="186409193_0" departPos="1.63" departSpeed="0.00" departDelay="7.27" arrival="88.00" arrivalLane="430416184_0" arrivalPos="271.56" arrivalSpeed="16.52" duration="76.00" routeLength="404.43" waitingTime="19.00" waitingCount="1" stopTime="0.00" timeLoss="49.76" rerouteNo="0" devices="tripinfo_flow_route_101_duration_20250327_1910.3" vType="car" speedFactor="1.05" vaporized=""/>
    <tripinfo id="flow_route_101_duration_20250327_1910.6" depart="23.00" departLane="186409193_0" departPos="22.82" departSpeed="0.00" departDelay="13.53" arrival="92.00" arrivalLane="430416184_0" arrivalPos="277.61" arrivalSpeed="16.37" duration="69.00" routeLength="389.28" waitingTime="19.00" waitingCount="1" stopTime="0.00" timeLoss="43.14" rerouteNo="0" devices="tripinfo_flow_route_101_duration_20250327_1910.6" vType="car" speedFactor="0.87" vaporized=""/>
    <tripinfo id="flow_route_106_duration_20250327_1910.14" depart="71.00" departLane="1254519229#0_0" departPos="77.55" departSpeed="0.00" departDelay="46.30" arrival="94.00" arrivalLane="430416184_1" arrivalPos="124.60" arrivalSpeed="15.29" duration="23.00" routeLength="147.73" waitingTime="1.00" waitingCount="1" stopTime="0.00" timeLoss="12.92" rerouteNo="0" devices="tripinfo_flow_route_106_duration_20250327_1910.14" vType="car" speedFactor="0.97" vaporized=""/>
    <tripinfo id="flow_route_106_duration_20250327_1910.9" depart="38.00" departLane="1254519229#0_0" departPos="45.32" departSpeed="0.00" departDelay="22.12" arrival="95.00" arrivalLane="430416184_1" arrivalPos="112.71" arrivalSpeed="14.50" duration="57.00" routeLength="168.07" waitingTime="18.00" waitingCount="3" stopTime="0.00" timeLoss="45.89" rerouteNo="0" devices="tripinfo_flow_route_106_duration_20250327_1910.9" vType="car" speedFactor="0.90" vaporized=""/>
    <tripinfo id="flow_route_101_duration_20250327_1910.8" depart="28.00" departLane="186409193_0" departPos="20.20" departSpeed="0.00" departDelay="15.38" arrival="96.00" arrivalLane="430416184_0" arrivalPos="286.95" arrivalSpeed="16.21" duration="68.00" routeLength="401.25" waitingTime="13.00" waitingCount="1" stopTime="0.00" timeLoss="42.61" rerouteNo="0" devices="tripinfo_flow_route_101_duration_20250327_1910.8" vType="car" speedFactor="1.18" vaporized=""/>
    <tripinfo id="flow_route_106_duration_20250327_1910.8" depart="35.00" departLane="1254519229#0_0" departPos="18.12" departSpeed="0.00" departDelay="20.89" arrival="101.00" arrivalLane="430416184_1" arrivalPos="83.88" arrivalSpeed="12.47" duration="66.00" routeLength="166.43" waitingTime="16.00" waitingCount="3" stopTime="0.00" timeLoss="55.07" rerouteNo="0" devices="tripinfo_flow_route_106_duration_20250327_1910.8" vType="car" speedFactor="0.97" vaporized=""/>
    <tripinfo id="flow_route_106_duration_20250327_1910.15" depart="76.00" departLane="1254519229#0_0" departPos="74.43" departSpeed="0.00" departDelay="49.54" arrival="104.00" arrivalLane="430416184_1" arrivalPos="158.83" arrivalSpeed="16.54" duration="28.00" routeLength="185.09" waitingTime="3.00" waitingCount="2" stopTime="0.00" timeLoss="15.07" rerouteNo="0" devices="tripinfo_flow_route_106_duration_20250327_1910.15" vType="car" speedFactor="0.94" vaporized=""/>
    <tripinfo id="flow_route_149_duration_20250327_1910.6" depart="26.00" departLane="186410975#0_0" departPos="211.93" departSpeed="0.00" departDelay="0.29" arrival="107.00" arrivalLane="430416184_1" arrivalPos="29.75" arrivalSpeed="9.67" duration="81.00" routeLength="363.49" waitingTime="29.00" waitingCount="1" stopTime="0.00" timeLoss="55.13" rerouteNo="0" devices="tripinfo_flow_route_149_duration_20250327_1910.6" vType="car" speedFactor="1.02" vaporized=""/>
    <tripinfo id="flow_route_107_duration_20250327_1910.19" depart="85.00" departLane="1254519229#0_0" departPos="75.64" departSpeed="0.00" departDelay="56.50" arrival="107.00" arrivalLane="1342963997_0" arrivalPos="164.95" arrivalSpeed="16.50" duration="22.00" routeLength="189.89" waitingTime="0.00" waitingCount="0" stopTime="0.00" timeLoss="10.50" rerouteNo="0" devices="tripinfo_flow_route_107_duration_20250327_1910.19" vType="car" speedFactor="1.04" vaporized=""/>
    <tripinfo id="flow_route_149_duration_20250327_1910.4" depart="18.00" departLane="186410975#0_0" departPos="127.17" departSpeed="0.00" departDelay="0.86" arrival="109.00" arrivalLane="430416184_1" arrivalPos="30.28" arrivalSpeed="10.70" duration="91.00" routeLength="448.79" waitingTime="29.00" waitingCount="1" stopTime="0.00" timeLoss="57.84" rerouteNo="0" devices="tripinfo_flow_route_149_duration_20250327_1910.4" vType="car" speedFactor="1.04" vaporized=""/>
    <tripinfo id="flow_route_149_duration_20250327_1910.7" depart="30.00" departLane="186410975#0_0" departPos="241.64" departSpeed="0.00" departDelay="0.01" arrival="112.00" arrivalLane="430416184_1" arrivalPos="113.79" arrivalSpeed="13.96" duration="82.00" routeLength="417.82" waitingTime="31.00" waitingCount="1" stopTime="0.00" timeLoss="54.14" rerouteNo="0" devices="tripinfo_flow_route_149_duration_20250327_1910.7" vType="car" speedFactor="1.06" vaporized=""/>
    <tripinfo id="flow_route_149_duration_20250327_1910.3" depart="13.00" departLane="186410975#0_0" departPos="53.47" departSpeed="0.00" departDelay="0.15" arrival="116.00" arrivalLane="430416184_1" arrivalPos="98.04" arrivalSpeed="14.61" duration="103.00" routeLength="590.24" waitingTime="29.00" waitingCount="1" stopTime="0.00" timeLoss="58.40" rerouteNo="0" devices="tripinfo_flow_route_149_duration_20250327_1910.3" vType="car" speedFactor="1.01" vaporized=""/>
    <tripinfo id="flow_route_107_duration_20250327_1910.10" depart="36.00" departLane="1254519229#0_0" departPos="15.16" departSpeed="0.00" departDelay="21.00" arrival="120.00" arrivalLane="1342963997_0" arrivalPos="38.13" arrivalSpeed="9.84" duration="84.00" routeLength="123.55" waitingTime="40.00" waitingCount="5" stopTime="0.00" timeLoss="76.32" rerouteNo="0" devices="tripinfo_flow_route_107_duration_20250327_1910.10" vType="car" speedFactor="1.18" vaporized=""/>
    <tripinfo id="flow_route_107_duration_20250327_1910.12" depart="45.00" departLane="1254519229#0_0" departPos="1.06" departSpeed="0.00" departDelay="27.00" arrival="124.00" arrivalLane="1342963997_0" arrivalPos="54.36" arrivalSpeed="11.03" duration="79.00" routeLength="153.88" waitingTime="31.00" waitingCount="4" stopTime="0.00" timeLoss="69.44" rerouteNo="0" devices="tripinfo_flow_route_107_duration_20250327_1910.12" vType="car" speedFactor="1.04" vaporized=""/>
    <tripinfo id="flow_route_107_duration_20250327_1910.16" depart="67.00" departLane="1254519229#0_0" departPos="11.89" departSpeed="0.00" departDelay="43.00" arrival="125.00" arrivalLane="1342963997_0" arrivalPos="27.57" arrivalSpeed="10.08" duration="58.00" routeLength="116.26" waitingTime="18.00" waitingCount="4" stopTime="0.00" timeLoss="50.98" rerouteNo="0" devices="tripinfo_flow_route_107_duration_20250327_1910.16" vType="car" speedFactor="1.14" vaporized=""/>
    <tripinfo id="flow_route_101_duration_20250327_1910.9" depart="35.00" departLane="186409193_0" departPos="13.20" departSpeed="0.00" departDelay="20.80" arrival="126.00" arrivalLane="430416184_0" arrivalPos="101.75" arrivalSpeed="13.23" duration="91.00" routeLength="223.05" waitingTime="41.00" waitingCount="2" stopTime="0.00" timeLoss="76.18" rerouteNo="0" devices="tripinfo_flow_route_101_duration_20250327_1910.9" vType="car" speedFactor="1.02" vaporized=""/>
    <tripinfo id="flow_route_107_duration_20250327_1910.18" depart="82.00" departLane="1254519229#0_0" departPos="11.65" departSpeed="0.00" departDelay="55.00" arrival="127.00" arrivalLane="1342963997_0" arrivalPos="2.63" arrivalSpeed="9.74" duration="45.00" routeLength="91.56" waitingTime="13.00" waitingCount="1" stopTime="0.00" timeLoss="39.08" rerouteNo="0" devices="tripinfo_flow_route_107_duration_20250327_1910.18" vType="car" speedFactor="0.88" vaporized=""/>
    <tripinfo id="flow_route_106_duration_20250327_1910.10" depart="41.00" departLane="1254519229#0_0" departPos="42.04" departSpeed="0.00" departDelay="23.36" arrival="129.00" arrivalLane="430416184_1" arrivalPos="6.90" arrivalSpeed="6.29" duration="88.00" routeLength="65.54" waitingTime="44.00" waitingCount="7" stopTime="0.00" timeLoss="83.42" rerouteNo="0" devices="tripinfo_flow_route_106_duration_20250327_1910.10" vType="car" speedFactor="1.09" vaporized=""/>
    <tripinfo id="flow_route_101_duration_20250327_1910.7" depart="28.00" departLane="186409193_0" departPos="9.79" departSpeed="0.00" departDelay="16.95" arrival="130.00" arrivalLane="430416184_0" arrivalPos="185.56" arrivalSpeed="16.39" duration="102.00" routeLength="310.27" waitingTime="42.00" waitingCount="2" stopTime="0.00" timeLoss="81.86" rerouteNo="0" devices="tripinfo_flow_route_101_duration_20250327_1910.7" vType="car" speedFactor="1.13" vaporized=""/>
    <tripinfo id="flow_route_101_duration_20250327_1910.12" depart="40.00" departLane="186409193_0" departPos="11.13" departSpeed="0.00" departDelay="21.06" arrival="132.00" arrivalLane="430416184_0" arrivalPos="122.94" arrivalSpeed="14.29" duration="92.00" routeLength="246.30" waitingTime="38.00" waitingCount="2" stopTime="0.00" timeLoss="76.43" rerouteNo="0" devices="tripinfo_flow_route_101_duration_20250327_1910.12" vType="car" speedFactor="1.09" vaporized=""/>
    <tripinfo id="flow_route_107_duration_20250327_1910.21" depart="102.00" departLane="1254519229#0_0" departPos="33.35" departSpeed="0.00" departDelay="70.50" arrival="132.00" arrivalLane="1342963997_0" arrivalPos="37.26" arrivalSpeed="12.33" duration="30.00" routeLength="104.49" waitingTime="10.00" waitingCount="1" stopTime="0.00" timeLoss="23.16" rerouteNo="0" devices="tripinfo_flow_route_107_duration_20250327_1910.21" vType="car" speedFactor="1.03" vaporized=""/>
    <tripinfo id="flow_route_107_duration_20250327_1910.17" depart="71.00" departLane="1254519229#0_0" departPos="4.80" departSpeed="0.00" departDelay="45.50" arrival="133.00" arrivalLane="1342963997_0" arrivalPos="102.95" arrivalSpeed="14.87" duration="62.00" routeLength="198.73" waitingTime="16.00" waitingCount="2" stopTime="0.00" timeLoss="49.88" rerouteNo="0" devices="tripinfo_flow_route_107_duration_20250327_1910.17" vType="car" speedFactor="1.12" vaporized=""/>
    <tripinfo id="flow_route_107_duration_20250327_1910.13" depart="51.00" departLane="1254519229#0_0" departPos="3.86" departSpeed="0.00" departDelay="31.50" arrival="134.00" arrivalLane="1342963997_0" arrivalPos="174.44" arrivalSpeed="16.40" duration="83.00" routeLength="271.16" waitingTime="26.00" waitingCount="4" stopTime="0.00" timeLoss="66.39" rerouteNo="0" devices="tripinfo_flow_route_107_duration_20250327_1910.13" vType="car" speedFactor="0.88" vaporized=""/>
    <tripinfo id="flow_route_101_duration_20250327_1910.13" depart="47.00" departLane="186409193_0" departPos="46.44" departSpeed="0.00" departDelay="26.49" arrival="136.00" arrivalLane="430416184_0" arrivalPos="202.28" arrivalSpeed="16.43" duration="89.00" routeLength="290.34" waitingTime="40.00" waitingCount="2" stopTime="0.00" timeLoss="68.47" rerouteNo="0" devices="tripinfo_flow_route_101_duration_20250327_1910.13" vType="car" speedFactor="0.85" vaporized=""/>
    <tripinfo id="flow_route_106_duration_20250327_1910.13" depart="63.00" departLane="1254519229#0_0" departPos="56.07" departSpeed="0.00" departDelay="40.07" arrival="137.00" arrivalLane="430416184_1" arrivalPos="107.47" arrivalSpeed="13.81" duration="74.00" routeLength="152.08" waitingTime="36.00" waitingCount="4" stopTime="0.00" timeLoss="64.05" rerouteNo="0" devices="tripinfo_flow_route_106_duration_20250327_1910.13" vType="car" speedFactor="1.00" vaporized=""/>
    <tripinfo id="flow_route_100_duration_20250327_1910.1" depart="9.00" departLane="186409193_0" departPos="39.03" departSpeed="0.00" departDelay="4.00" arrival="141.00" arrivalLane="1254519229#0_1" arrivalPos="50.41" arrivalSpeed="3.16" duration="132.00" routeLength="242.99" waitingTime="59.00" waitingCount="5" stopTime="0.00" timeLoss="116.52" rerouteNo="0" devices="tripinfo_flow_route_100_duration_20250327_1910.1" vType="car" speedFactor="1.03" vaporized=""/>
    <tripinfo id="flow_route_107_duration_20250327_1910.11" depart="38.00" departLane="1254519229#0_0" departPos="2.76" departSpeed="0.00" departDelay="21.50" arrival="141.00" arrivalLane="1342963997_1" arrivalPos="105.05" arrivalSpeed="14.04" duration="103.00" routeLength="202.87" waitingTime="40.00" waitingCount="6" stopTime="0.00" timeLoss="90.10" rerouteNo="0" devices="tripinfo_flow_route_107_duration_20250327_1910.11" vType="car" speedFactor="1.03" vaporized=""/>
    <tripinfo id="flow_route_107_duration_20250327_1910.14" depart="58.00" departLane="1254519229#0_0" departPos="1.31" departSpeed="0.00" departDelay="37.00" arrival="142.00" arrivalLane="1342963997_1" arrivalPos="18.23" arrivalSpeed="9.79" duration="84.00" routeLength="117.50" waitingTime="24.00" waitingCount="5" stopTime="0.00" timeLoss="76.51" rerouteNo="0" devices="tripinfo_flow_route_107_duration_20250327_1910.14" vType="car" speedFactor="0.85" vaporized=""/>
    <tripinfo id="flow_route_100_duration_20250327_1910.2" depart="22.00" departLane="186409193_0" departPos="7.26" departSpeed="0.00" departDelay="12.00" arrival="143.00" arrivalLane="1254519229#0_0" arrivalPos="74.40" arrivalSpeed="3.04" duration="121.00" routeLength="298.76" waitingTime="36.00" waitingCount="4" stopTime="0.00" timeLoss="98.75" rerouteNo="0" devices="tripinfo_flow_route_100_duration_20250327_1910.2" vType="car" speedFactor="0.83" vaporized=""/>
    <tripinfo id="flow_route_100_duration_20250327_1910.3" depart="29.00" departLane="186409193_0" departPos="0.68" departSpeed="0.00" departDelay="14.00" arrival="144.00" arrivalLane="1254519229#0_0" arrivalPos="57.44" arrivalSpeed="2.78" duration="115.00" routeLength="288.38" waitingTime="39.00" waitingCount="7" stopTime="0.00" timeLoss="96.28" rerouteNo="0" devices="tripinfo_flow_route_100_duration_20250327_1910.3" vType="car" speedFactor="0.99" vaporized=""/>
    <tripinfo id="flow_route_107_duration_20250327_1910.22" depart="124.00" departLane="1254519229#0_0" departPos="53.56" departSpeed="0.00" departDelay="91.00" arrival="144.00" arrivalLane="1342963997_0" arrivalPos="58.07" arrivalSpeed="12.05" duration="20.00" routeLength="105.10" waitingTime="1.00" waitingCount="1" stopTime="0.00" timeLoss="13.49" rerouteNo="0" devices="tripinfo_flow_route_107_duration_20250327_1910.22" vType="car" speedFactor="0.98" vaporized=""/>
    <tripinfo id="flow_route_101_duration_20250327_1910.11" depart="39.00" departLane="186409193_0" departPos="0.43" departSpeed="0.00" departDelay="21.64" arrival="145.00" arrivalLane="430416184_0" arrivalPos="282.49" arrivalSpeed="16.27" duration="106.00" routeLength="416.56" waitingTime="37.00" waitingCount="2" stopTime="0.00" timeLoss="78.49" rerouteNo="0" devices="tripinfo_flow_route_101_duration_20250327_1910.11" vType="car" speedFactor="0.96" vaporized=""/>
    <tripinfo id="flow_route_101_duration_20250327_1910.14" depart="49.00" departLane="186409193_0" departPos="17.14" departSpeed="0.00" departDelay="26.91" arrival="145.00" arrivalLane="430416184_0" arrivalPos="255.07" arrivalSpeed="16.42" duration="96.00" routeLength="372.42" waitingTime="36.00" waitingCount="2" stopTime="0.00" timeLoss="72.77" rerouteNo="0" devices="tripinfo_flow_route_101_duration_20250327_1910.14" vType="car" speedFactor="1.10" vaporized=""/>
    <tripinfo id="flow_route_106_duration_20250327_1910.11" depart="47.00" departLane="1254519229#0_0" departPos="22.66" departSpeed="0.00" departDelay="27.60" arrival="146.00" arrivalLane="430416184_1" arrivalPos="165.89" arrivalSpeed="16.23" duration="99.00" routeLength="243.92" waitingTime="38.00" waitingCount="5" stopTime="0.00" timeLoss="83.30" rerouteNo="0" devices="tripinfo_flow_route_106_duration_20250327_1910.11" vType="car" speedFactor="0.90" vaporized=""/>