<?xml version="1.0" encoding="UTF-8"?>

<!-- generated on 2025-05-06 21:08:25 by Eclipse SUMO sumo Version 1.20.0
<configuration xmlns:xsi="http://www.w3.org/2001/XMLSchema-instance" xsi:noNamespaceSchemaLocation="http://sumo.dlr.de/xsd/sumoConfiguration.xsd">

    <input>
        <net-file value="osm.net.xml"/>
        <route-files value="xml/route_static_cluster_3839031475_3839031476_4110471700_4234582615_4.rou.xml"/>
    </input>

    <output>
        <tripinfo-output value="xml/tripinfo_static_cluster_3839031475_3839031476_4110471700_4234582615_4.xml"/>
    </output>

    <traci_server>
        <remote-port value="57089"/>
    </traci_server>

</configuration>
-->

<tripinfos xmlns:xsi="http://www.w3.org/2001/XMLSchema-instance" xsi:noNamespaceSchemaLocation="http://sumo.dlr.de/xsd/tripinfo_file.xsd">
    <tripinfo id="flow_route_85_duration_20250327_2120.0" depart="0.00" departLane="1091883842_0" departPos="162.60" departSpeed="0.00" departDelay="0.00" arrival="16.00" arrivalLane="133000063_0" arrivalPos="42.63" arrivalSpeed="9.42" duration="16.00" routeLength="74.77" waitingTime="0.00" waitingCount="0" stopTime="0.00" timeLoss="9.16" rerouteNo="0" devices="tripinfo_flow_route_85_duration_20250327_2120.0" vType="car" speedFactor="0.89" vaporized=""/>
    <tripinfo id="flow_route_84_duration_20250327_2120.1" depart="5.00" departLane="1091883842_0" departPos="164.84" departSpeed="0.00" departDelay="1.47" arrival="28.00" arrivalLane="136617981_0" arrivalPos="145.38" arrivalSpeed="16.32" duration="23.00" routeLength="198.83" waitingTime="0.00" waitingCount="0" stopTime="0.00" timeLoss="10.57" rerouteNo="0" devices="tripinfo_flow_route_84_duration_20250327_2120.1" vType="car" speedFactor="1.03" vaporized=""/>
    <tripinfo id="flow_route_79_duration_20250327_2120.0" depart="0.00" departLane="380344611#0_0" departPos="128.21" departSpeed="0.00" departDelay="0.00" arrival="30.00" arrivalLane="423956929_2" arrivalPos="91.18" arrivalSpeed="16.37" duration="30.00" routeLength="278.79" waitingTime="0.00" waitingCount="0" stopTime="0.00" timeLoss="12.29" rerouteNo="0" devices="tripinfo_flow_route_79_duration_20250327_2120.0" vType="car" speedFactor="1.08" vaporized=""/>
    <tripinfo id="flow_route_84_duration_20250327_2120.4" depart="15.00" departLane="1091883842_0" departPos="132.89" departSpeed="0.00" departDelay="0.88" arrival="32.00" arrivalLane="136617981_0" arrivalPos="25.23" arrivalSpeed="12.73" duration="17.00" routeLength="110.63" waitingTime="0.00" waitingCount="0" stopTime="0.00" timeLoss="9.25" rerouteNo="0" devices="tripinfo_flow_route_84_duration_20250327_2120.4" vType="car" speedFactor="0.89" vaporized=""/>
    <tripinfo id="flow_route_80_duration_20250327_2120.0" depart="0.00" departLane="380344611#0_0" departPos="160.58" departSpeed="0.00" departDelay="0.00" arrival="33.00" arrivalLane="380593307#0_0" arrivalPos="102.42" arrivalSpeed="13.82" duration="33.00" routeLength="234.46" waitingTime="0.00" waitingCount="0" stopTime="0.00" timeLoss="18.12" rerouteNo="0" devices="tripinfo_flow_route_80_duration_20250327_2120.0" vType="car" speedFactor="1.03" vaporized=""/>
    <tripinfo id="flow_route_84_duration_20250327_2120.0" depart="0.00" departLane="1091883842_0" departPos="11.19" departSpeed="0.00" departDelay="0.00" arrival="37.00" arrivalLane="136617981_1" arrivalPos="210.65" arrivalSpeed="16.50" duration="37.00" routeLength="417.75" waitingTime="0.00" waitingCount="0" stopTime="0.00" timeLoss="10.97" rerouteNo="0" devices="tripinfo_flow_route_84_duration_20250327_2120.0" vType="car" speedFactor="1.05" vaporized=""/>
    <tripinfo id="flow_route_81_duration_20250327_2120.1" depart="4.00" departLane="380344611#0_0" departPos="179.63" departSpeed="0.00" departDelay="0.00" arrival="37.00" arrivalLane="133000063_2" arrivalPos="7.96" arrivalSpeed="6.38" duration="33.00" routeLength="144.19" waitingTime="5.00" waitingCount="1" stopTime="0.00" timeLoss="23.58" rerouteNo="0" devices="tripinfo_flow_route_81_duration_20250327_2120.1" vType="car" speedFactor="1.09" vaporized=""/>
    <tripinfo id="flow_route_81_duration_20250327_2120.0" depart="0.00" departLane="380344611#0_0" departPos="75.01" departSpeed="0.00" departDelay="0.00" arrival="43.00" arrivalLane="133000063_2" arrivalPos="7.51" arrivalSpeed="7.53" duration="43.00" routeLength="248.37" waitingTime="3.00" waitingCount="1" stopTime="0.00" timeLoss="23.84" rerouteNo="0" devices="tripinfo_flow_route_81_duration_20250327_2120.0" vType="car" speedFactor="0.83" vaporized=""/>
    <tripinfo id="flow_route_80_duration_20250327_2120.2" depart="24.00" departLane="380344611#0_0" departPos="204.70" departSpeed="0.00" departDelay="0.00" arrival="45.00" arrivalLane="380593307#0_0" arrivalPos="35.97" arrivalSpeed="10.22" duration="21.00" routeLength="123.88" waitingTime="0.00" waitingCount="0" stopTime="0.00" timeLoss="12.83" rerouteNo="0" devices="tripinfo_flow_route_80_duration_20250327_2120.2" vType="car" speedFactor="1.17" vaporized=""/>
    <tripinfo id="flow_route_81_duration_20250327_2120.4" depart="16.00" departLane="380344611#0_0" departPos="272.21" departSpeed="0.00" departDelay="0.00" arrival="49.00" arrivalLane="133000063_2" arrivalPos="102.69" arrivalSpeed="13.55" duration="33.00" routeLength="146.35" waitingTime="4.00" waitingCount="2" stopTime="0.00" timeLoss="20.67" rerouteNo="0" devices="tripinfo_flow_route_81_duration_20250327_2120.4" vType="car" speedFactor="0.83" vaporized=""/>
    <tripinfo id="flow_route_76_duration_20250327_2120.1" depart="31.00" departLane="133342692#0_0" departPos="72.88" departSpeed="0.00" departDelay="1.00" arrival="52.00" arrivalLane="133000063_1" arrivalPos="4.11" arrivalSpeed="8.78" duration="21.00" routeLength="138.14" waitingTime="0.00" waitingCount="0" stopTime="0.00" timeLoss="12.22" rerouteNo="0" devices="tripinfo_flow_route_76_duration_20250327_2120.1" vType="car" speedFactor="1.03" vaporized=""/>
    <tripinfo id="flow_route_89_duration_20250327_2120.2" depart="8.00" departLane="380585338#0_0" departPos="132.76" departSpeed="0.00" departDelay="0.00" arrival="53.00" arrivalLane="380593307#0_0" arrivalPos="41.10" arrivalSpeed="11.39" duration="45.00" routeLength="118.61" waitingTime="19.00" waitingCount="1" stopTime="0.00" timeLoss="36.76" rerouteNo="0" devices="tripinfo_flow_route_89_duration_20250327_2120.2" vType="car" speedFactor="0.93" vaporized=""/>
    <tripinfo id="flow_route_89_duration_20250327_2120.1" depart="4.00" departLane="380585338#0_0" departPos="143.14" departSpeed="0.00" departDelay="0.00" arrival="55.00" arrivalLane="380593307#0_0" arrivalPos="53.31" arrivalSpeed="10.74" duration="51.00" routeLength="120.44" waitingTime="26.00" waitingCount="1" stopTime="0.00" timeLoss="43.73" rerouteNo="0" devices="tripinfo_flow_route_89_duration_20250327_2120.1" vType="car" speedFactor="1.05" vaporized=""/>
    <tripinfo id="flow_route_89_duration_20250327_2120.6" depart="24.00" departLane="380585338#0_0" departPos="50.37" departSpeed="0.00" departDelay="0.00" arrival="55.00" arrivalLane="380593307#0_2" arrivalPos="8.13" arrivalSpeed="9.17" duration="31.00" routeLength="168.04" waitingTime="0.00" waitingCount="0" stopTime="0.00" timeLoss="20.53" rerouteNo="0" devices="tripinfo_flow_route_89_duration_20250327_2120.6" vType="car" speedFactor="1.02" vaporized=""/>
    <tripinfo id="flow_route_77_duration_20250327_2120.2" depart="31.00" departLane="133342692#0_0" departPos="121.86" departSpeed="0.00" departDelay="1.00" arrival="56.00" arrivalLane="423956929_0" arrivalPos="56.17" arrivalSpeed="10.58" duration="25.00" routeLength="116.84" waitingTime="0.00" waitingCount="0" stopTime="0.00" timeLoss="16.54" rerouteNo="0" devices="tripinfo_flow_route_77_duration_20250327_2120.2" vType="car" speedFactor="0.96" vaporized=""/>
    <tripinfo id="flow_route_77_duration_20250327_2120.0" depart="0.00" departLane="133342692#0_0" departPos="115.39" departSpeed="0.00" departDelay="0.00" arrival="57.00" arrivalLane="423956929_0" arrivalPos="132.19" arrivalSpeed="14.99" duration="57.00" routeLength="199.33" waitingTime="27.00" waitingCount="1" stopTime="0.00" timeLoss="43.48" rerouteNo="0" devices="tripinfo_flow_route_77_duration_20250327_2120.0" vType="car" speedFactor="0.94" vaporized=""/>
    <tripinfo id="flow_route_90_duration_20250327_2120.1" depart="11.00" departLane="380585338#0_0" departPos="118.96" departSpeed="0.00" departDelay="1.00" arrival="57.00" arrivalLane="136617981_0" arrivalPos="45.09" arrivalSpeed="10.27" duration="46.00" routeLength="113.20" waitingTime="19.00" waitingCount="1" stopTime="0.00" timeLoss="37.18" rerouteNo="0" devices="tripinfo_flow_route_90_duration_20250327_2120.1" vType="car" speedFactor="0.88" vaporized=""/>
    <tripinfo id="flow_route_80_duration_20250327_2120.1" depart="12.00" departLane="380344611#0_0" departPos="47.63" departSpeed="0.00" departDelay="0.00" arrival="58.00" arrivalLane="380593307#0_0" arrivalPos="21.77" arrivalSpeed="6.68" duration="46.00" routeLength="266.76" waitingTime="6.00" waitingCount="1" stopTime="0.00" timeLoss="29.33" rerouteNo="0" devices="tripinfo_flow_route_80_duration_20250327_2120.1" vType="car" speedFactor="1.16" vaporized=""/>
    <tripinfo id="flow_route_90_duration_20250327_2120.3" depart="33.00" departLane="380585338#0_0" departPos="121.47" departSpeed="0.00" departDelay="3.00" arrival="58.00" arrivalLane="136617981_0" arrivalPos="29.68" arrivalSpeed="9.67" duration="25.00" routeLength="95.28" waitingTime="0.00" waitingCount="0" stopTime="0.00" timeLoss="18.10" rerouteNo="0" devices="tripinfo_flow_route_90_duration_20250327_2120.3" vType="car" speedFactor="1.09" vaporized=""/>
    <tripinfo id="flow_route_89_duration_20250327_2120.0" depart="0.00" departLane="380585338#0_0" departPos="55.91" departSpeed="0.00" departDelay="0.00" arrival="59.00" arrivalLane="380593307#0_2" arrivalPos="94.67" arrivalSpeed="14.06" duration="59.00" routeLength="249.03" waitingTime="18.00" waitingCount="1" stopTime="0.00" timeLoss="42.43" rerouteNo="0" devices="tripinfo_flow_route_89_duration_20250327_2120.0" vType="car" speedFactor="0.94" vaporized=""/>
    <tripinfo id="flow_route_77_duration_20250327_2120.1" depart="16.00" departLane="133342692#0_0" departPos="160.31" departSpeed="0.00" departDelay="1.00" arrival="61.00" arrivalLane="423956929_0" arrivalPos="150.59" arrivalSpeed="15.88" duration="45.00" routeLength="172.81" waitingTime="21.00" waitingCount="1" stopTime="0.00" timeLoss="32.80" rerouteNo="0" devices="tripinfo_flow_route_77_duration_20250327_2120.1" vType="car" speedFactor="0.97" vaporized=""/>
    <tripinfo id="flow_route_90_duration_20250327_2120.2" depart="23.00" departLane="380585338#0_0" departPos="58.87" departSpeed="0.00" departDelay="3.00" arrival="61.00" arrivalLane="136617981_0" arrivalPos="43.03" arrivalSpeed="10.78" duration="38.00" routeLength="171.23" waitingTime="0.00" waitingCount="0" stopTime="0.00" timeLoss="26.59" rerouteNo="0" devices="tripinfo_flow_route_90_duration_20250327_2120.2" vType="car" speedFactor="1.18" vaporized=""/>
    <tripinfo id="flow_route_89_duration_20250327_2120.7" depart="33.00" departLane="380585338#0_0" departPos="59.54" departSpeed="0.00" departDelay="5.00" arrival="61.00" arrivalLane="380593307#0_1" arrivalPos="67.66" arrivalSpeed="13.19" duration="28.00" routeLength="218.39" waitingTime="0.00" waitingCount="0" stopTime="0.00" timeLoss="14.38" rerouteNo="0" devices="tripinfo_flow_route_89_duration_20250327_2120.7" vType="car" speedFactor="1.10" vaporized=""/>
    <tripinfo id="flow_route_76_duration_20250327_2120.0" depart="0.00" departLane="133342692#0_0" departPos="1.03" departSpeed="0.00" departDelay="0.00" arrival="62.00" arrivalLane="133000063_1" arrivalPos="153.47" arrivalSpeed="16.28" duration="62.00" routeLength="359.35" waitingTime="16.00" waitingCount="1" stopTime="0.00" timeLoss="39.51" rerouteNo="0" devices="tripinfo_flow_route_76_duration_20250327_2120.0" vType="car" speedFactor="1.06" vaporized=""/>
    <tripinfo id="flow_route_89_duration_20250327_2120.4" depart="17.00" departLane="380585338#0_0" departPos="85.54" departSpeed="0.00" departDelay="1.00" arrival="62.00" arrivalLane="380593307#0_2" arrivalPos="120.07" arrivalSpeed="14.44" duration="45.00" routeLength="244.81" waitingTime="5.00" waitingCount="1" stopTime="0.00" timeLoss="27.89" rerouteNo="0" devices="tripinfo_flow_route_89_duration_20250327_2120.4" vType="car" speedFactor="0.87" vaporized=""/>
    <tripinfo id="flow_route_89_duration_20250327_2120.5" depart="22.00" departLane="380585338#0_0" departPos="31.08" departSpeed="0.00" departDelay="2.00" arrival="62.00" arrivalLane="380593307#0_1" arrivalPos="111.40" arrivalSpeed="14.91" duration="40.00" routeLength="290.59" waitingTime="0.00" waitingCount="0" stopTime="0.00" timeLoss="21.15" rerouteNo="0" devices="tripinfo_flow_route_89_duration_20250327_2120.5" vType="car" speedFactor="0.93" vaporized=""/>
    <tripinfo id="flow_route_89_duration_20250327_2120.8" depart="33.00" departLane="380585338#0_0" departPos="17.63" departSpeed="0.00" departDelay="1.00" arrival="63.00" arrivalLane="380593307#0_2" arrivalPos="99.59" arrivalSpeed="16.45" duration="30.00" routeLength="292.23" waitingTime="0.00" waitingCount="0" stopTime="0.00" timeLoss="12.29" rerouteNo="0" devices="tripinfo_flow_route_89_duration_20250327_2120.8" vType="car" speedFactor="1.09" vaporized=""/>
    <tripinfo id="flow_route_77_duration_20250327_2120.3" depart="45.00" departLane="133342692#0_0" departPos="109.92" departSpeed="0.00" departDelay="0.00" arrival="63.00" arrivalLane="423956929_0" arrivalPos="19.09" arrivalSpeed="8.22" duration="18.00" routeLength="91.70" waitingTime="0.00" waitingCount="0" stopTime="0.00" timeLoss="11.22" rerouteNo="0" devices="tripinfo_flow_route_77_duration_20250327_2120.3" vType="car" speedFactor="0.97" vaporized=""/>
    <tripinfo id="flow_route_89_duration_20250327_2120.3" depart="12.00" departLane="380585338#0_0" departPos="41.92" departSpeed="0.00" departDelay="0.00" arrival="64.00" arrivalLane="380593307#0_1" arrivalPos="167.45" arrivalSpeed="16.46" duration="52.00" routeLength="335.81" waitingTime="8.00" waitingCount="1" stopTime="0.00" timeLoss="31.13" rerouteNo="0" devices="tripinfo_flow_route_89_duration_20250327_2120.3" vType="car" speedFactor="1.01" vaporized=""/>
    <tripinfo id="flow_route_90_duration_20250327_2120.4" depart="40.00" departLane="380585338#0_0" departPos="74.82" departSpeed="0.00" departDelay="0.00" arrival="65.00" arrivalLane="136617981_0" arrivalPos="43.52" arrivalSpeed="10.62" duration="25.00" routeLength="155.77" waitingTime="0.00" waitingCount="0" stopTime="0.00" timeLoss="14.58" rerouteNo="0" devices="tripinfo_flow_route_90_duration_20250327_2120.4" vType="car" speedFactor="1.00" vaporized=""/>
    <tripinfo id="flow_route_90_duration_20250327_2120.0" depart="0.00" departLane="380585338#0_0" departPos="118.71" departSpeed="0.00" departDelay="0.00" arrival="67.00" arrivalLane="136617981_0" arrivalPos="211.18" arrivalSpeed="14.07" duration="67.00" routeLength="279.54" waitingTime="26.00" waitingCount="1" stopTime="0.00" timeLoss="46.07" rerouteNo="0" devices="tripinfo_flow_route_90_duration_20250327_2120.0" vType="car" speedFactor="0.86" vaporized=""/>
    <tripinfo id="flow_route_89_duration_20250327_2120.9" depart="37.00" departLane="380585338#0_0" departPos="83.36" departSpeed="0.00" departDelay="1.00" arrival="67.00" arrivalLane="380593307#0_1" arrivalPos="123.65" arrivalSpeed="14.21" duration="30.00" routeLength="250.56" waitingTime="0.00" waitingCount="0" stopTime="0.00" timeLoss="11.56" rerouteNo="0" devices="tripinfo_flow_route_89_duration_20250327_2120.9" vType="car" speedFactor="0.85" vaporized=""/>
    <tripinfo id="flow_route_78_duration_20250327_2120.0" depart="0.00" departLane="133342692#0_0" departPos="79.92" departSpeed="0.00" departDelay="0.00" arrival="68.00" arrivalLane="136617981_2" arrivalPos="12.89" arrivalSpeed="6.42" duration="68.00" routeLength="138.43" waitingTime="33.00" waitingCount="2" stopTime="0.00" timeLoss="58.80" rerouteNo="0" devices="tripinfo_flow_route_78_duration_20250327_2120.0" vType="car" speedFactor="1.01" vaporized=""/>
    <tripinfo id="flow_route_80_duration_20250327_2120.3" depart="36.00" departLane="380344611#0_0" departPos="202.26" departSpeed="0.00" departDelay="0.00" arrival="69.00" arrivalLane="380593307#0_0" arrivalPos="114.90" arrivalSpeed="13.96" duration="33.00" routeLength="205.25" waitingTime="0.00" waitingCount="0" stopTime="0.00" timeLoss="18.34" rerouteNo="0" devices="tripinfo_flow_route_80_duration_20250327_2120.3" vType="car" speedFactor="0.90" vaporized=""/>
    <tripinfo id="flow_route_78_duration_20250327_2120.1" depart="12.00" departLane="133342692#0_0" departPos="38.26" departSpeed="0.00" departDelay="0.00" arrival="73.00" arrivalLane="136617981_2" arrivalPos="36.67" arrivalSpeed="9.25" duration="61.00" routeLength="203.87" waitingTime="19.00" waitingCount="2" stopTime="0.00" timeLoss="46.89" rerouteNo="0" devices="tripinfo_flow_route_78_duration_20250327_2120.1" vType="car" speedFactor="0.94" vaporized=""/>
    <tripinfo id="flow_route_89_duration_20250327_2120.10" depart="40.00" departLane="380585338#0_0" departPos="115.18" departSpeed="0.00" departDelay="0.00" arrival="73.00" arrivalLane="380593307#0_0" arrivalPos="146.79" arrivalSpeed="16.51" duration="33.00" routeLength="241.87" waitingTime="0.00" waitingCount="0" stopTime="0.00" timeLoss="17.78" rerouteNo="0" devices="tripinfo_flow_route_89_duration_20250327_2120.10" vType="car" speedFactor="1.00" vaporized=""/>
    <tripinfo id="flow_route_80_duration_20250327_2120.4" depart="48.00" departLane="380344611#0_0" departPos="133.36" departSpeed="0.00" departDelay="0.00" arrival="79.00" arrivalLane="380593307#0_0" arrivalPos="83.80" arrivalSpeed="13.02" duration="31.00" routeLength="243.06" waitingTime="0.00" waitingCount="0" stopTime="0.00" timeLoss="15.26" rerouteNo="0" devices="tripinfo_flow_route_80_duration_20250327_2120.4" vType="car" speedFactor="1.02" vaporized=""/>
    <tripinfo id="flow_route_78_duration_20250327_2120.2" depart="24.00" departLane="133342692#0_0" departPos="13.72" departSpeed="0.00" departDelay="0.00" arrival="84.00" arrivalLane="136617981_2" arrivalPos="160.74" arrivalSpeed="16.57" duration="60.00" routeLength="352.48" waitingTime="10.00" waitingCount="1" stopTime="0.00" timeLoss="37.60" rerouteNo="0" devices="tripinfo_flow_route_78_duration_20250327_2120.2" vType="car" speedFactor="1.01" vaporized=""/>
    <tripinfo id="flow_route_78_duration_20250327_2120.3" depart="36.00" departLane="133342692#0_0" departPos="21.31" departSpeed="0.00" departDelay="0.00" arrival="87.00" arrivalLane="136617981_2" arrivalPos="132.17" arrivalSpeed="16.21" duration="51.00" routeLength="316.32" waitingTime="4.00" waitingCount="1" stopTime="0.00" timeLoss="30.66" rerouteNo="0" devices="tripinfo_flow_route_78_duration_20250327_2120.3" vType="car" speedFactor="1.00" vaporized=""/>
    <tripinfo id="flow_route_78_duration_20250327_2120.4" depart="48.00" departLane="133342692#0_0" departPos="136.81" departSpeed="0.00" departDelay="0.00" arrival="92.00" arrivalLane="136617981_2" arrivalPos="251.45" arrivalSpeed="16.43" duration="44.00" routeLength="320.10" waitingTime="4.00" waitingCount="1" stopTime="0.00" timeLoss="23.98" rerouteNo="0" devices="tripinfo_flow_route_78_duration_20250327_2120.4" vType="car" speedFactor="1.12" vaporized=""/>
    <tripinfo id="flow_route_84_duration_20250327_2120.3" depart="12.00" departLane="1091883842_0" departPos="49.04" departSpeed="0.00" departDelay="1.41" arrival="98.00" arrivalLane="136617981_0" arrivalPos="8.45" arrivalSpeed="7.63" duration="86.00" routeLength="177.70" waitingTime="55.00" waitingCount="1" stopTime="0.00" timeLoss="74.44" rerouteNo="0" devices="tripinfo_flow_route_84_duration_20250327_2120.3" vType="car" speedFactor="0.94" vaporized=""/>
    <tripinfo id="flow_route_84_duration_20250327_2120.6" depart="23.00" departLane="1091883842_0" departPos="15.97" departSpeed="0.00" departDelay="1.83" arrival="101.00" arrivalLane="136617981_2" arrivalPos="18.98" arrivalSpeed="8.86" duration="78.00" routeLength="221.30" waitingTime="42.00" waitingCount="1" stopTime="0.00" timeLoss="64.56" rerouteNo="0" devices="tripinfo_flow_route_84_duration_20250327_2120.6" vType="car" speedFactor="1.15" vaporized=""/>
    <tripinfo id="flow_route_84_duration_20250327_2120.11" depart="39.00" departLane="1091883842_0" departPos="72.55" departSpeed="0.00" departDelay="0.18" arrival="102.00" arrivalLane="136617981_2" arrivalPos="12.07" arrivalSpeed="8.87" duration="63.00" routeLength="157.81" waitingTime="31.00" waitingCount="1" stopTime="0.00" timeLoss="53.48" rerouteNo="0" devices="tripinfo_flow_route_84_duration_20250327_2120.11" vType="car" speedFactor="1.17" vaporized=""/>
    <tripinfo id="flow_route_85_duration_20250327_2120.1" depart="20.00" departLane="1091883842_0" departPos="51.78" departSpeed="0.00" departDelay="0.00" arrival="105.00" arrivalLane="133000063_0" arrivalPos="31.58" arrivalSpeed="9.53" duration="85.00" routeLength="174.55" waitingTime="45.00" waitingCount="1" stopTime="0.00" timeLoss="73.05" rerouteNo="0" devices="tripinfo_flow_route_85_duration_20250327_2120.1" vType="car" speedFactor="1.13" vaporized=""/>
    <tripinfo id="flow_route_84_duration_20250327_2120.7" depart="25.00" departLane="1091883842_0" departPos="78.60" departSpeed="0.00" departDelay="0.30" arrival="105.00" arrivalLane="136617981_1" arrivalPos="60.19" arrivalSpeed="12.52" duration="80.00" routeLength="199.88" waitingTime="45.00" waitingCount="1" stopTime="0.00" timeLoss="67.26" rerouteNo="0" devices="tripinfo_flow_route_84_duration_20250327_2120.7" vType="car" speedFactor="0.97" vaporized=""/>
    <tripinfo id="flow_route_84_duration_20250327_2120.14" depart="54.00" departLane="1091883842_0" departPos="28.48" departSpeed="0.00" departDelay="4.59" arrival="106.00" arrivalLane="136617981_2" arrivalPos="3.31" arrivalSpeed="10.25" duration="52.00" routeLength="193.12" waitingTime="16.00" waitingCount="1" stopTime="0.00" timeLoss="38.29" rerouteNo="0" devices="tripinfo_flow_route_84_duration_20250327_2120.14" vType="car" speedFactor="0.88" vaporized=""/>
    <tripinfo id="flow_route_84_duration_20250327_2120.10" depart="36.00" departLane="1091883842_0" departPos="163.80" departSpeed="0.00" departDelay="0.71" arrival="107.00" arrivalLane="136617981_0" arrivalPos="79.70" arrivalSpeed="13.57" duration="71.00" routeLength="134.19" waitingTime="45.00" waitingCount="1" stopTime="0.00" timeLoss="60.80" rerouteNo="0" devices="tripinfo_flow_route_84_duration_20250327_2120.10" vType="car" speedFactor="0.85" vaporized=""/>
    <tripinfo id="flow_route_84_duration_20250327_2120.2" depart="8.00" departLane="1091883842_0" departPos="56.04" departSpeed="0.00" departDelay="0.94" arrival="109.00" arrivalLane="136617981_0" arrivalPos="154.27" arrivalSpeed="16.49" duration="101.00" routeLength="316.52" waitingTime="57.00" waitingCount="1" stopTime="0.00" timeLoss="81.41" rerouteNo="0" devices="tripinfo_flow_route_84_duration_20250327_2120.2" vType="car" speedFactor="0.99" vaporized=""/>
    <tripinfo id="flow_route_84_duration_20250327_2120.5" depart="18.00" departLane="1091883842_0" departPos="31.27" departSpeed="0.00" departDelay="0.36" arrival="111.00" arrivalLane="136617981_1" arrivalPos="164.40" arrivalSpeed="15.21" duration="93.00" routeLength="351.42" waitingTime="47.00" waitingCount="1" stopTime="0.00" timeLoss="69.15" rerouteNo="0" devices="tripinfo_flow_route_84_duration_20250327_2120.5" vType="car" speedFactor="0.92" vaporized=""/>
    <tripinfo id="flow_route_84_duration_20250327_2120.8" depart="30.00" departLane="1091883842_0" departPos="116.11" departSpeed="0.00" departDelay="1.77" arrival="115.00" arrivalLane="136617981_0" arrivalPos="165.81" arrivalSpeed="14.77" duration="85.00" routeLength="267.98" waitingTime="45.00" waitingCount="1" stopTime="0.00" timeLoss="66.36" rerouteNo="0" devices="tripinfo_flow_route_84_duration_20250327_2120.8" vType="car" speedFactor="0.90" vaporized=""/>
    <tripinfo id="flow_route_84_duration_20250327_2120.12" depart="43.00" departLane="1091883842_0" departPos="51.49" departSpeed="0.00" departDelay="0.65" arrival="116.00" arrivalLane="136617981_1" arrivalPos="166.96" arrivalSpeed="14.62" duration="73.00" routeLength="333.76" waitingTime="29.00" waitingCount="1" stopTime="0.00" timeLoss="50.70" rerouteNo="0" devices="tripinfo_flow_route_84_duration_20250327_2120.12" vType="car" speedFactor="0.90" vaporized=""/>
    <tripinfo id="flow_route_85_duration_20250327_2120.2" depart="40.00" departLane="1091883842_0" departPos="63.99" departSpeed="0.00" departDelay="0.00" arrival="117.00" arrivalLane="133000063_0" arrivalPos="168.49" arrivalSpeed="16.59" duration="77.00" routeLength="299.25" waitingTime="34.00" waitingCount="1" stopTime="0.00" timeLoss="58.45" rerouteNo="0" devices="tripinfo_flow_route_85_duration_20250327_2120.2" vType="car" speedFactor="1.10" vaporized=""/>
    <tripinfo id="flow_route_84_duration_20250327_2120.9" depart="32.00" departLane="1091883842_0" departPos="76.34" departSpeed="0.00" departDelay="0.24" arrival="119.00" arrivalLane="136617981_1" arrivalPos="247.66" arrivalSpeed="16.56" duration="87.00" routeLength="389.61" waitingTime="41.00" waitingCount="1" stopTime="0.00" timeLoss="62.98" rerouteNo="0" devices="tripinfo_flow_route_84_duration_20250327_2120.9" vType="car" speedFactor="1.04" vaporized=""/>
    <tripinfo id="flow_route_84_duration_20250327_2120.15" depart="54.00" departLane="1091883842_0" departPos="82.93" departSpeed="0.00" departDelay="1.07" arrival="119.00" arrivalLane="136617981_2" arrivalPos="222.21" arrivalSpeed="16.24" duration="65.00" routeLength="357.58" waitingTime="20.00" waitingCount="1" stopTime="0.00" timeLoss="42.71" rerouteNo="0" devices="tripinfo_flow_route_84_duration_20250327_2120.15" vType="car" speedFactor="1.02" vaporized=""/>
    <tripinfo id="flow_route_81_duration_20250327_2120.6" depart="25.00" departLane="380344611#0_0" departPos="192.45" departSpeed="0.00" departDelay="1.00" arrival="121.00" arrivalLane="133000063_2" arrivalPos="31.12" arrivalSpeed="9.25" duration="96.00" routeLength="154.53" waitingTime="58.00" waitingCount="2" stopTime="0.00" timeLoss="85.66" rerouteNo="0" devices="tripinfo_flow_route_81_duration_20250327_2120.6" vType="car" speedFactor="0.99" vaporized=""/>
    <tripinfo id="flow_route_84_duration_20250327_2120.16" depart="57.00" departLane="1091883842_0" departPos="107.63" departSpeed="0.00" departDelay="0.54" arrival="122.00" arrivalLane="136617981_1" arrivalPos="227.23" arrivalSpeed="15.58" duration="65.00" routeLength="337.89" waitingTime="23.00" waitingCount="1" stopTime="0.00" timeLoss="42.88" rerouteNo="0" devices="tripinfo_flow_route_84_duration_20250327_2120.16" vType="car" speedFactor="0.94" vaporized=""/>
    <tripinfo id="flow_route_81_duration_20250327_2120.3" depart="12.00" departLane="380344611#0_0" departPos="162.09" departSpeed="0.00" departDelay="0.00" arrival="123.00" arrivalLane="133000063_2" arrivalPos="70.85" arrivalSpeed="11.47" duration="111.00" routeLength="224.63" waitingTime="62.00" waitingCount="2" stopTime="0.00" timeLoss="96.35" rerouteNo="0" devices="tripinfo_flow_route_81_duration_20250327_2120.3" vType="car" speedFactor="1.02" vaporized=""/>
    <tripinfo id="flow_route_84_duration_20250327_2120.13" depart="54.00" departLane="1091883842_0" departPos="38.54" departSpeed="0.00" departDelay="8.12" arrival="124.00" arrivalLane="136617981_0" arrivalPos="232.72" arrivalSpeed="16.41" duration="70.00" routeLength="412.47" waitingTime="19.00" waitingCount="1" stopTime="0.00" timeLoss="44.64" rerouteNo="0" devices="tripinfo_flow_route_84_duration_20250327_2120.13" vType="car" speedFactor="1.08" vaporized=""/>
    <tripinfo id="flow_route_81_duration_20250327_2120.2" depart="8.00" departLane="380344611#0_0" departPos="9.19" departSpeed="0.00" departDelay="0.00" arrival="126.00" arrivalLane="133000063_2" arrivalPos="68.31" arrivalSpeed="12.28" duration="118.00" routeLength="374.98" waitingTime="56.00" waitingCount="2" stopTime="0.00" timeLoss="95.02" rerouteNo="0" devices="tripinfo_flow_route_81_duration_20250327_2120.2" vType="car" speedFactor="1.12" vaporized=""/>
    <tripinfo id="flow_route_81_duration_20250327_2120.10" depart="40.00" departLane="380344611#0_0" departPos="256.47" departSpeed="0.00" departDelay="0.00" arrival="132.00" arrivalLane="133000063_2" arrivalPos="116.32" arrivalSpeed="15.43" duration="92.00" routeLength="175.72" waitingTime="58.00" waitingCount="2" stopTime="0.00" timeLoss="80.28" rerouteNo="0" devices="tripinfo_flow_route_81_duration_20250327_2120.10" vType="car" speedFactor="1.02" vaporized=""/>
    <tripinfo id="flow_route_81_duration_20250327_2120.7" depart="29.00" departLane="380344611#0_0" departPos="118.30" departSpeed="0.00" departDelay="1.00" arrival="134.00" arrivalLane="133000063_2" arrivalPos="105.95" arrivalSpeed="14.36" duration="105.00" routeLength="303.52" waitingTime="45.00" waitingCount="3" stopTime="0.00" timeLoss="85.91" rerouteNo="0" devices="tripinfo_flow_route_81_duration_20250327_2120.7" vType="car" speedFactor="1.18" vaporized=""/>
    <tripinfo id="flow_route_81_duration_20250327_2120.5" depart="20.00" departLane="380344611#0_0" departPos="7.89" departSpeed="0.00" departDelay="0.00" arrival="139.00" arrivalLane="133000063_2" arrivalPos="164.47" arrivalSpeed="15.57" duration="119.00" routeLength="472.45" waitingTime="44.00" waitingCount="2" stopTime="0.00" timeLoss="88.28" rerouteNo="0" devices="tripinfo_flow_route_81_duration_20250327_2120.5" vType="car" speedFactor="0.95" vaporized=""/>