<?xml version="1.0" encoding="UTF-8"?>

<!-- generated on 2025-05-06 16:33:57 by Eclipse SUMO sumo Version 1.20.0
<configuration xmlns:xsi="http://www.w3.org/2001/XMLSchema-instance" xsi:noNamespaceSchemaLocation="http://sumo.dlr.de/xsd/sumoConfiguration.xsd">

    <input>
        <net-file value="osm.net.xml"/>
        <route-files value="xml/routes_ddpg_cluster_11644940323_11644940324_3828703845.rou.xml"/>
    </input>

    <output>
        <tripinfo-output value="xml/tripinfo_42370.xml"/>
    </output>

    <traci_server>
        <remote-port value="54055"/>
    </traci_server>

</configuration>
-->

<tripinfos xmlns:xsi="http://www.w3.org/2001/XMLSchema-instance" xsi:noNamespaceSchemaLocation="http://sumo.dlr.de/xsd/tripinfo_file.xsd">
    <tripinfo id="flow_route_3_duration_20250327_2220.0" depart="0.00" departLane="1318793173#0_0" departPos="80.53" departSpeed="0.00" departDelay="0.00" arrival="19.00" arrivalLane="291974733#0_1" arrivalPos="66.76" arrivalSpeed="13.99" duration="19.00" routeLength="123.20" waitingTime="0.00" waitingCount="0" stopTime="0.00" timeLoss="10.27" rerouteNo="0" devices="tripinfo_flow_route_3_duration_20250327_2220.0" vType="car" speedFactor="0.94" vaporized=""/>
    <tripinfo id="flow_route_16_duration_20250327_2220.0" depart="0.00" departLane="137406408#0_0" departPos="52.27" departSpeed="0.00" departDelay="0.00" arrival="20.00" arrivalLane="133126040#0_0" arrivalPos="80.39" arrivalSpeed="14.47" duration="20.00" routeLength="149.31" waitingTime="0.00" waitingCount="0" stopTime="0.00" timeLoss="10.92" rerouteNo="0" devices="tripinfo_flow_route_16_duration_20250327_2220.0" vType="car" speedFactor="1.05" vaporized=""/>
    <tripinfo id="flow_route_2_duration_20250327_2220.0" depart="0.00" departLane="1318793173#0_0" departPos="58.93" departSpeed="0.00" departDelay="0.00" arrival="21.00" arrivalLane="189835257_0" arrivalPos="46.92" arrivalSpeed="15.63" duration="21.00" routeLength="167.93" waitingTime="0.00" waitingCount="0" stopTime="0.00" timeLoss="10.00" rerouteNo="0" devices="tripinfo_flow_route_2_duration_20250327_2220.0" vType="car" speedFactor="1.06" vaporized=""/>
    <tripinfo id="flow_route_17_duration_20250327_2220.0" depart="0.00" departLane="137406408#0_0" departPos="24.41" departSpeed="0.00" departDelay="0.00" arrival="22.00" arrivalLane="1254771874#0_0" arrivalPos="63.27" arrivalSpeed="16.22" duration="22.00" routeLength="182.06" waitingTime="0.00" waitingCount="0" stopTime="0.00" timeLoss="9.94" rerouteNo="0" devices="tripinfo_flow_route_17_duration_20250327_2220.0" vType="car" speedFactor="0.89" vaporized=""/>
    <tripinfo id="flow_route_9_duration_20250327_2220.0" depart="0.00" departLane="1318793173#0_0" departPos="0.65" departSpeed="0.00" departDelay="0.00" arrival="24.00" arrivalLane="1254771874#0_1" arrivalPos="11.63" arrivalSpeed="11.21" duration="24.00" routeLength="169.44" waitingTime="0.00" waitingCount="0" stopTime="0.00" timeLoss="12.40" rerouteNo="0" devices="tripinfo_flow_route_9_duration_20250327_2220.0" vType="car" speedFactor="1.01" vaporized=""/>
    <tripinfo id="flow_route_2_duration_20250327_2220.1" depart="5.00" departLane="1318793173#0_0" departPos="34.79" departSpeed="0.00" departDelay="0.00" arrival="29.00" arrivalLane="189835257_0" arrivalPos="46.11" arrivalSpeed="14.58" duration="24.00" routeLength="191.25" waitingTime="0.00" waitingCount="0" stopTime="0.00" timeLoss="10.66" rerouteNo="0" devices="tripinfo_flow_route_2_duration_20250327_2220.1" vType="car" speedFactor="0.94" vaporized=""/>
    <tripinfo id="flow_route_2_duration_20250327_2220.3" depart="15.00" departLane="1318793173#0_0" departPos="68.46" departSpeed="0.00" departDelay="0.00" arrival="35.00" arrivalLane="189835257_0" arrivalPos="27.01" arrivalSpeed="14.90" duration="20.00" routeLength="138.49" waitingTime="0.00" waitingCount="0" stopTime="0.00" timeLoss="10.30" rerouteNo="0" devices="tripinfo_flow_route_2_duration_20250327_2220.3" vType="car" speedFactor="1.09" vaporized=""/>
    <tripinfo id="flow_route_2_duration_20250327_2220.2" depart="10.00" departLane="1318793173#0_0" departPos="4.99" departSpeed="0.00" departDelay="0.00" arrival="38.00" arrivalLane="189835257_0" arrivalPos="36.00" arrivalSpeed="13.91" duration="28.00" routeLength="210.95" waitingTime="0.00" waitingCount="0" stopTime="0.00" timeLoss="11.61" rerouteNo="0" devices="tripinfo_flow_route_2_duration_20250327_2220.2" vType="car" speedFactor="0.86" vaporized=""/>
    <tripinfo id="flow_route_13_duration_20250327_2220.0" depart="0.00" departLane="1252820503#0_0" departPos="99.64" departSpeed="0.00" departDelay="0.00" arrival="47.00" arrivalLane="291974733#0_0" arrivalPos="46.05" arrivalSpeed="8.82" duration="47.00" routeLength="103.57" waitingTime="23.00" waitingCount="1" stopTime="0.00" timeLoss="39.96" rerouteNo="0" devices="tripinfo_flow_route_13_duration_20250327_2220.0" vType="car" speedFactor="1.08" vaporized=""/>
    <tripinfo id="flow_route_15_duration_20250327_2220.0" depart="1.00" departLane="1252820503#0_0" departPos="8.92" departSpeed="0.00" departDelay="1.00" arrival="47.00" arrivalLane="133126040#0_1" arrivalPos="4.72" arrivalSpeed="7.55" duration="46.00" routeLength="174.98" waitingTime="14.00" waitingCount="1" stopTime="0.00" timeLoss="34.72" rerouteNo="0" devices="tripinfo_flow_route_15_duration_20250327_2220.0" vType="car" speedFactor="0.83" vaporized=""/>
    <tripinfo id="flow_route_13_duration_20250327_2220.1" depart="15.00" departLane="1252820503#0_0" departPos="139.02" departSpeed="0.00" departDelay="0.00" arrival="47.00" arrivalLane="291974733#0_0" arrivalPos="28.77" arrivalSpeed="8.29" duration="32.00" routeLength="46.91" waitingTime="19.00" waitingCount="1" stopTime="0.00" timeLoss="28.22" rerouteNo="0" devices="tripinfo_flow_route_13_duration_20250327_2220.1" vType="car" speedFactor="1.03" vaporized=""/>
    <tripinfo id="flow_route_2_duration_20250327_2220.6" depart="31.00" departLane="1318793173#0_0" departPos="104.24" departSpeed="0.00" departDelay="1.00" arrival="48.00" arrivalLane="189835257_0" arrivalPos="36.08" arrivalSpeed="13.60" duration="17.00" routeLength="111.78" waitingTime="0.00" waitingCount="0" stopTime="0.00" timeLoss="8.47" rerouteNo="0" devices="tripinfo_flow_route_2_duration_20250327_2220.6" vType="car" speedFactor="0.93" vaporized=""/>
    <tripinfo id="flow_route_13_duration_20250327_2220.2" depart="30.00" departLane="1252820503#0_0" departPos="60.90" departSpeed="0.00" departDelay="0.00" arrival="49.00" arrivalLane="291974733#0_0" arrivalPos="12.12" arrivalSpeed="6.78" duration="19.00" routeLength="108.38" waitingTime="0.00" waitingCount="0" stopTime="0.00" timeLoss="11.66" rerouteNo="0" devices="tripinfo_flow_route_13_duration_20250327_2220.2" vType="car" speedFactor="0.94" vaporized=""/>
    <tripinfo id="flow_route_2_duration_20250327_2220.4" depart="22.00" departLane="1318793173#0_0" departPos="25.58" departSpeed="0.00" departDelay="2.00" arrival="50.00" arrivalLane="189835257_0" arrivalPos="43.41" arrivalSpeed="13.77" duration="28.00" routeLength="197.77" waitingTime="0.00" waitingCount="0" stopTime="0.00" timeLoss="15.34" rerouteNo="0" devices="tripinfo_flow_route_2_duration_20250327_2220.4" vType="car" speedFactor="1.05" vaporized=""/>
    <tripinfo id="flow_route_14_duration_20250327_2220.0" depart="0.00" departLane="1252820503#0_0" departPos="69.02" departSpeed="0.00" departDelay="0.00" arrival="60.00" arrivalLane="1254771874#0_0" arrivalPos="150.80" arrivalSpeed="16.49" duration="60.00" routeLength="291.67" waitingTime="19.00" waitingCount="1" stopTime="0.00" timeLoss="41.54" rerouteNo="0" devices="tripinfo_flow_route_14_duration_20250327_2220.0" vType="car" speedFactor="1.03" vaporized=""/>
    <tripinfo id="flow_route_3_duration_20250327_2220.1" depart="22.00" departLane="1318793173#0_0" departPos="3.50" departSpeed="0.00" departDelay="2.00" arrival="68.00" arrivalLane="291974733#0_1" arrivalPos="83.17" arrivalSpeed="13.06" duration="46.00" routeLength="216.63" waitingTime="11.00" waitingCount="1" stopTime="0.00" timeLoss="32.36" rerouteNo="0" devices="tripinfo_flow_route_3_duration_20250327_2220.1" vType="car" speedFactor="1.12" vaporized=""/>
    <tripinfo id="flow_route_9_duration_20250327_2220.1" depart="31.00" departLane="1318793173#0_0" departPos="28.54" departSpeed="0.00" departDelay="1.00" arrival="69.00" arrivalLane="1254771874#0_1" arrivalPos="84.69" arrivalSpeed="14.04" duration="38.00" routeLength="214.62" waitingTime="4.00" waitingCount="1" stopTime="0.00" timeLoss="22.94" rerouteNo="0" devices="tripinfo_flow_route_9_duration_20250327_2220.1" vType="car" speedFactor="0.88" vaporized=""/>
    <tripinfo id="flow_route_2_duration_20250327_2220.7" depart="36.00" departLane="1318793173#0_0" departPos="61.77" departSpeed="0.00" departDelay="1.00" arrival="69.00" arrivalLane="189835257_0" arrivalPos="11.75" arrivalSpeed="12.09" duration="33.00" routeLength="129.92" waitingTime="6.00" waitingCount="1" stopTime="0.00" timeLoss="23.66" rerouteNo="0" devices="tripinfo_flow_route_2_duration_20250327_2220.7" vType="car" speedFactor="0.94" vaporized=""/>
    <tripinfo id="flow_route_3_duration_20250327_2220.2" depart="44.00" departLane="1318793173#0_0" departPos="101.05" departSpeed="0.00" departDelay="4.00" arrival="71.00" arrivalLane="291974733#0_1" arrivalPos="76.06" arrivalSpeed="12.91" duration="27.00" routeLength="111.97" waitingTime="9.00" waitingCount="1" stopTime="0.00" timeLoss="19.75" rerouteNo="0" devices="tripinfo_flow_route_3_duration_20250327_2220.2" vType="car" speedFactor="1.02" vaporized=""/>
    <tripinfo id="flow_route_2_duration_20250327_2220.5" depart="28.00" departLane="1318793173#0_0" departPos="3.22" departSpeed="0.00" departDelay="3.00" arrival="72.00" arrivalLane="189835257_0" arrivalPos="15.89" arrivalSpeed="12.94" duration="44.00" routeLength="192.61" waitingTime="6.00" waitingCount="1" stopTime="0.00" timeLoss="31.20" rerouteNo="0" devices="tripinfo_flow_route_2_duration_20250327_2220.5" vType="car" speedFactor="0.99" vaporized=""/>
    <tripinfo id="flow_route_2_duration_20250327_2220.8" depart="40.00" departLane="1318793173#0_0" departPos="9.62" departSpeed="0.00" departDelay="0.00" arrival="75.00" arrivalLane="189835257_0" arrivalPos="12.71" arrivalSpeed="12.66" duration="35.00" routeLength="183.03" waitingTime="0.00" waitingCount="0" stopTime="0.00" timeLoss="23.48" rerouteNo="0" devices="tripinfo_flow_route_2_duration_20250327_2220.8" vType="car" speedFactor="1.16" vaporized=""/>
    <tripinfo id="flow_route_2_duration_20250327_2220.9" depart="45.00" departLane="1318793173#0_0" departPos="53.23" departSpeed="0.00" departDelay="0.00" arrival="76.00" arrivalLane="189835257_0" arrivalPos="50.55" arrivalSpeed="15.13" duration="31.00" routeLength="177.26" waitingTime="1.00" waitingCount="1" stopTime="0.00" timeLoss="18.85" rerouteNo="0" devices="tripinfo_flow_route_2_duration_20250327_2220.9" vType="car" speedFactor="1.01" vaporized=""/>
    <tripinfo id="flow_route_2_duration_20250327_2220.10" depart="51.00" departLane="1318793173#0_0" departPos="19.82" departSpeed="0.00" departDelay="1.00" arrival="77.00" arrivalLane="189835257_0" arrivalPos="8.87" arrivalSpeed="13.71" duration="26.00" routeLength="168.99" waitingTime="0.00" waitingCount="0" stopTime="0.00" timeLoss="13.34" rerouteNo="0" devices="tripinfo_flow_route_2_duration_20250327_2220.10" vType="car" speedFactor="0.89" vaporized=""/>
    <tripinfo id="flow_route_2_duration_20250327_2220.11" depart="55.00" departLane="1318793173#0_0" departPos="16.41" departSpeed="0.00" departDelay="0.00" arrival="81.00" arrivalLane="189835257_0" arrivalPos="33.79" arrivalSpeed="13.45" duration="26.00" routeLength="197.32" waitingTime="0.00" waitingCount="0" stopTime="0.00" timeLoss="10.85" rerouteNo="0" devices="tripinfo_flow_route_2_duration_20250327_2220.11" vType="car" speedFactor="0.83" vaporized=""/>
    <tripinfo id="flow_route_13_duration_20250327_2220.3" depart="45.00" departLane="1252820503#0_0" departPos="85.88" departSpeed="0.00" departDelay="0.00" arrival="97.00" arrivalLane="291974733#0_0" arrivalPos="28.84" arrivalSpeed="8.17" duration="52.00" routeLength="100.12" waitingTime="29.00" waitingCount="1" stopTime="0.00" timeLoss="44.54" rerouteNo="0" devices="tripinfo_flow_route_13_duration_20250327_2220.3" vType="car" speedFactor="0.97" vaporized=""/>
</tripinfos>
