<?xml version="1.0" encoding="UTF-8"?>

<!-- generated on 2025-05-06 21:08:54 by Eclipse SUMO sumo Version 1.20.0
<configuration xmlns:xsi="http://www.w3.org/2001/XMLSchema-instance" xsi:noNamespaceSchemaLocation="http://sumo.dlr.de/xsd/sumoConfiguration.xsd">

    <input>
        <net-file value="osm.net.xml"/>
        <route-files value="xml/route_rl_cluster_2271368471_4779869278_7.rou.xml"/>
    </input>

    <output>
        <tripinfo-output value="xml/tripinfo_rl_cluster_2271368471_4779869278_7.xml"/>
    </output>

    <traci_server>
        <remote-port value="49389"/>
    </traci_server>

</configuration>
-->

<tripinfos xmlns:xsi="http://www.w3.org/2001/XMLSchema-instance" xsi:noNamespaceSchemaLocation="http://sumo.dlr.de/xsd/tripinfo_file.xsd">
    <tripinfo id="flow_route_35_duration_20250327_2020.2" depart="8.00" departLane="485211947#0_0" departPos="178.72" departSpeed="0.00" departDelay="0.94" arrival="21.00" arrivalLane="1369578054_0" arrivalPos="38.77" arrivalSpeed="8.92" duration="13.00" routeLength="57.51" waitingTime="0.00" waitingCount="0" stopTime="0.00" timeLoss="8.36" rerouteNo="0" devices="tripinfo_flow_route_35_duration_20250327_2020.2" vType="car" speedFactor="0.94" vaporized=""/>
    <tripinfo id="flow_route_36_duration_20250327_2020.0" depart="0.00" departLane="485211947#0_0" departPos="162.24" departSpeed="0.00" departDelay="0.00" arrival="23.00" arrivalLane="137415945#0_0" arrivalPos="6.94" arrivalSpeed="15.19" duration="23.00" routeLength="189.23" waitingTime="0.00" waitingCount="0" stopTime="0.00" timeLoss="10.37" rerouteNo="0" devices="tripinfo_flow_route_36_duration_20250327_2020.0" vType="car" speedFactor="0.94" vaporized=""/>
    <tripinfo id="flow_route_36_duration_20250327_2020.1" depart="5.00" departLane="485211947#0_0" departPos="141.65" departSpeed="0.00" departDelay="0.72" arrival="30.00" arrivalLane="137415945#0_0" arrivalPos="3.01" arrivalSpeed="16.52" duration="25.00" routeLength="205.89" waitingTime="0.00" waitingCount="0" stopTime="0.00" timeLoss="12.27" rerouteNo="0" devices="tripinfo_flow_route_36_duration_20250327_2020.1" vType="car" speedFactor="0.99" vaporized=""/>
    <tripinfo id="flow_route_37_duration_20250327_2020.0" depart="0.00" departLane="485211947#0_0" departPos="59.66" departSpeed="0.00" departDelay="0.00" arrival="33.00" arrivalLane="-430406005#1_1" arrivalPos="133.07" arrivalSpeed="16.05" duration="33.00" routeLength="286.39" waitingTime="0.00" waitingCount="0" stopTime="0.00" timeLoss="12.84" rerouteNo="0" devices="tripinfo_flow_route_37_duration_20250327_2020.0" vType="car" speedFactor="0.86" vaporized=""/>
    <tripinfo id="flow_route_36_duration_20250327_2020.2" depart="10.00" departLane="485211947#0_0" departPos="132.59" departSpeed="0.00" departDelay="1.43" arrival="35.00" arrivalLane="137415945#0_1" arrivalPos="2.14" arrivalSpeed="16.38" duration="25.00" routeLength="214.08" waitingTime="0.00" waitingCount="0" stopTime="0.00" timeLoss="11.14" rerouteNo="0" devices="tripinfo_flow_route_36_duration_20250327_2020.2" vType="car" speedFactor="1.02" vaporized=""/>
    <tripinfo id="flow_route_35_duration_20250327_2020.5" depart="19.00" departLane="485211947#0_0" departPos="181.00" departSpeed="0.00" departDelay="1.36" arrival="38.00" arrivalLane="1369578054_0" arrivalPos="116.78" arrivalSpeed="14.54" duration="19.00" routeLength="133.25" waitingTime="0.00" waitingCount="0" stopTime="0.00" timeLoss="9.08" rerouteNo="0" devices="tripinfo_flow_route_35_duration_20250327_2020.5" vType="car" speedFactor="0.97" vaporized=""/>
    <tripinfo id="flow_route_36_duration_20250327_2020.3" depart="16.00" departLane="485211947#0_0" departPos="133.76" departSpeed="0.00" departDelay="3.15" arrival="40.00" arrivalLane="137415945#0_0" arrivalPos="0.35" arrivalSpeed="15.40" duration="24.00" routeLength="211.13" waitingTime="0.00" waitingCount="0" stopTime="0.00" timeLoss="9.91" rerouteNo="0" devices="tripinfo_flow_route_36_duration_20250327_2020.3" vType="car" speedFactor="0.95" vaporized=""/>
    <tripinfo id="flow_route_35_duration_20250327_2020.0" depart="0.00" departLane="485211947#0_0" departPos="11.17" departSpeed="0.00" departDelay="0.00" arrival="44.00" arrivalLane="1369578054_0" arrivalPos="74.16" arrivalSpeed="12.42" duration="44.00" routeLength="260.46" waitingTime="0.00" waitingCount="0" stopTime="0.00" timeLoss="25.58" rerouteNo="0" devices="tripinfo_flow_route_35_duration_20250327_2020.0" vType="car" speedFactor="0.89" vaporized=""/>
    <tripinfo id="flow_route_30_duration_20250327_2020.0" depart="0.00" departLane="1235147073.116_0" departPos="7.14" departSpeed="0.00" departDelay="0.00" arrival="47.00" arrivalLane="133126030#0_0" arrivalPos="8.43" arrivalSpeed="7.24" duration="47.00" routeLength="175.81" waitingTime="17.00" waitingCount="1" stopTime="0.00" timeLoss="36.22" rerouteNo="0" devices="tripinfo_flow_route_30_duration_20250327_2020.0" vType="car" speedFactor="1.01" vaporized=""/>
    <tripinfo id="flow_route_30_duration_20250327_2020.1" depart="23.00" departLane="1235147073.116_0" departPos="1.55" departSpeed="0.00" departDelay="14.43" arrival="48.00" arrivalLane="133126030#0_1" arrivalPos="48.93" arrivalSpeed="15.52" duration="25.00" routeLength="221.90" waitingTime="0.00" waitingCount="0" stopTime="0.00" timeLoss="9.93" rerouteNo="0" devices="tripinfo_flow_route_30_duration_20250327_2020.1" vType="car" speedFactor="0.94" vaporized=""/>
    <tripinfo id="flow_route_35_duration_20250327_2020.1" depart="5.00" departLane="485211947#0_0" departPos="55.91" departSpeed="0.00" departDelay="1.47" arrival="55.00" arrivalLane="1369578054_1" arrivalPos="281.37" arrivalSpeed="16.32" duration="50.00" routeLength="422.92" waitingTime="0.00" waitingCount="0" stopTime="0.00" timeLoss="22.91" rerouteNo="0" devices="tripinfo_flow_route_35_duration_20250327_2020.1" vType="car" speedFactor="1.03" vaporized=""/>
    <tripinfo id="flow_route_35_duration_20250327_2020.3" depart="11.00" departLane="485211947#0_0" departPos="91.27" departSpeed="0.00" departDelay="0.41" arrival="55.00" arrivalLane="1369578054_0" arrivalPos="280.18" arrivalSpeed="13.52" duration="44.00" routeLength="386.37" waitingTime="0.00" waitingCount="0" stopTime="0.00" timeLoss="14.65" rerouteNo="0" devices="tripinfo_flow_route_35_duration_20250327_2020.3" vType="car" speedFactor="0.83" vaporized=""/>
    <tripinfo id="flow_route_31_duration_20250327_2020.0" depart="2.00" departLane="1235147073.116_0" departPos="0.71" departSpeed="0.00" departDelay="2.00" arrival="56.00" arrivalLane="-430406005#1_0" arrivalPos="87.77" arrivalSpeed="12.57" duration="54.00" routeLength="250.02" waitingTime="15.00" waitingCount="1" stopTime="0.00" timeLoss="38.14" rerouteNo="0" devices="tripinfo_flow_route_31_duration_20250327_2020.0" vType="car" speedFactor="1.08" vaporized=""/>
    <tripinfo id="flow_route_32_duration_20250327_2020.1" depart="12.00" departLane="1235147073.116_0" departPos="14.62" departSpeed="0.00" departDelay="9.78" arrival="57.00" arrivalLane="1369578054_1" arrivalPos="92.01" arrivalSpeed="13.59" duration="45.00" routeLength="257.12" waitingTime="6.00" waitingCount="1" stopTime="0.00" timeLoss="28.72" rerouteNo="0" devices="tripinfo_flow_route_32_duration_20250327_2020.1" vType="car" speedFactor="1.09" vaporized=""/>
    <tripinfo id="flow_route_31_duration_20250327_2020.1" depart="12.00" departLane="1235147073.116_0" departPos="2.81" departSpeed="0.00" departDelay="7.39" arrival="57.00" arrivalLane="-430406005#1_0" arrivalPos="70.82" arrivalSpeed="11.54" duration="45.00" routeLength="230.98" waitingTime="7.00" waitingCount="1" stopTime="0.00" timeLoss="30.32" rerouteNo="0" devices="tripinfo_flow_route_31_duration_20250327_2020.1" vType="car" speedFactor="1.05" vaporized=""/>
    <tripinfo id="flow_route_32_duration_20250327_2020.0" depart="8.00" departLane="1235147073.116_0" departPos="1.92" departSpeed="0.00" departDelay="8.00" arrival="61.00" arrivalLane="1369578054_1" arrivalPos="176.77" arrivalSpeed="16.36" duration="53.00" routeLength="354.58" waitingTime="8.00" waitingCount="1" stopTime="0.00" timeLoss="30.14" rerouteNo="0" devices="tripinfo_flow_route_32_duration_20250327_2020.0" vType="car" speedFactor="1.03" vaporized=""/>
    <tripinfo id="flow_route_32_duration_20250327_2020.4" depart="28.00" departLane="1235147073.116_0" departPos="5.81" departSpeed="0.00" departDelay="19.11" arrival="61.00" arrivalLane="1369578054_1" arrivalPos="66.86" arrivalSpeed="13.53" duration="33.00" routeLength="240.78" waitingTime="0.00" waitingCount="0" stopTime="0.00" timeLoss="17.45" rerouteNo="0" devices="tripinfo_flow_route_32_duration_20250327_2020.4" vType="car" speedFactor="1.16" vaporized=""/>
    <tripinfo id="flow_route_32_duration_20250327_2020.2" depart="16.00" departLane="1235147073.116_0" departPos="0.72" departSpeed="0.00" departDelay="11.56" arrival="63.00" arrivalLane="1369578054_1" arrivalPos="163.10" arrivalSpeed="16.34" duration="47.00" routeLength="342.11" waitingTime="3.00" waitingCount="1" stopTime="0.00" timeLoss="25.67" rerouteNo="0" devices="tripinfo_flow_route_32_duration_20250327_2020.2" vType="car" speedFactor="1.12" vaporized=""/>
    <tripinfo id="flow_route_31_duration_20250327_2020.2" depart="31.00" departLane="1235147073.116_0" departPos="5.29" departSpeed="0.00" departDelay="21.77" arrival="64.00" arrivalLane="-430406005#1_0" arrivalPos="144.96" arrivalSpeed="16.31" duration="33.00" routeLength="302.63" waitingTime="0.00" waitingCount="0" stopTime="0.00" timeLoss="13.59" rerouteNo="0" devices="tripinfo_flow_route_31_duration_20250327_2020.2" vType="car" speedFactor="1.01" vaporized=""/>
    <tripinfo id="flow_route_32_duration_20250327_2020.6" depart="39.00" departLane="1235147073.116_0" departPos="13.03" departSpeed="0.00" departDelay="25.67" arrival="68.00" arrivalLane="1369578054_1" arrivalPos="20.07" arrivalSpeed="10.81" duration="29.00" routeLength="186.77" waitingTime="0.00" waitingCount="0" stopTime="0.00" timeLoss="15.63" rerouteNo="0" devices="tripinfo_flow_route_32_duration_20250327_2020.6" vType="car" speedFactor="0.93" vaporized=""/>
    <tripinfo id="flow_route_32_duration_20250327_2020.3" depart="20.00" departLane="1235147073.116_0" departPos="9.57" departSpeed="0.00" departDelay="13.33" arrival="69.00" arrivalLane="1369578054_1" arrivalPos="205.27" arrivalSpeed="14.40" duration="49.00" routeLength="375.43" waitingTime="1.00" waitingCount="1" stopTime="0.00" timeLoss="21.60" rerouteNo="0" devices="tripinfo_flow_route_32_duration_20250327_2020.3" vType="car" speedFactor="0.88" vaporized=""/>
    <tripinfo id="flow_route_32_duration_20250327_2020.5" depart="36.00" departLane="1235147073.116_0" departPos="4.95" departSpeed="0.00" departDelay="24.89" arrival="74.00" arrivalLane="1369578054_1" arrivalPos="173.81" arrivalSpeed="14.13" duration="38.00" routeLength="348.59" waitingTime="0.00" waitingCount="0" stopTime="0.00" timeLoss="12.51" rerouteNo="0" devices="tripinfo_flow_route_32_duration_20250327_2020.5" vType="car" speedFactor="0.87" vaporized=""/>
    <tripinfo id="flow_route_31_duration_20250327_2020.3" depart="39.00" departLane="1235147073.116_0" departPos="3.84" departSpeed="0.00" departDelay="25.16" arrival="74.00" arrivalLane="-430406005#1_0" arrivalPos="165.75" arrivalSpeed="16.54" duration="35.00" routeLength="324.88" waitingTime="0.00" waitingCount="0" stopTime="0.00" timeLoss="14.90" rerouteNo="0" devices="tripinfo_flow_route_31_duration_20250327_2020.3" vType="car" speedFactor="1.13" vaporized=""/>
    <tripinfo id="flow_route_32_duration_20250327_2020.7" depart="43.00" departLane="1235147073.116_0" departPos="1.30" departSpeed="0.00" departDelay="27.45" arrival="75.00" arrivalLane="1369578054_1" arrivalPos="54.13" arrivalSpeed="12.49" duration="32.00" routeLength="232.56" waitingTime="0.00" waitingCount="0" stopTime="0.00" timeLoss="16.59" rerouteNo="0" devices="tripinfo_flow_route_32_duration_20250327_2020.7" vType="car" speedFactor="1.01" vaporized=""/>
    <tripinfo id="flow_route_30_duration_20250327_2020.2" depart="47.00" departLane="1235147073.116_0" departPos="3.54" departSpeed="0.00" departDelay="29.86" arrival="75.00" arrivalLane="133126030#0_0" arrivalPos="78.42" arrivalSpeed="16.27" duration="28.00" routeLength="249.40" waitingTime="0.00" waitingCount="0" stopTime="0.00" timeLoss="12.96" rerouteNo="0" devices="tripinfo_flow_route_30_duration_20250327_2020.2" vType="car" speedFactor="0.99" vaporized=""/>
    <tripinfo id="flow_route_33_duration_20250327_2020.0" depart="0.00" departLane="133126008#0_0" departPos="101.07" departSpeed="0.00" departDelay="0.00" arrival="85.00" arrivalLane="1369578054_0" arrivalPos="13.07" arrivalSpeed="9.09" duration="85.00" routeLength="125.36" waitingTime="58.00" waitingCount="1" stopTime="0.00" timeLoss="76.61" rerouteNo="0" devices="tripinfo_flow_route_33_duration_20250327_2020.0" vType="car" speedFactor="0.83" vaporized=""/>
    <tripinfo id="flow_route_32_duration_20250327_2020.8" depart="49.00" departLane="1235147073.116_0" departPos="14.35" departSpeed="0.00" departDelay="31.22" arrival="85.00" arrivalLane="1369578054_1" arrivalPos="184.31" arrivalSpeed="16.27" duration="36.00" routeLength="349.69" waitingTime="0.00" waitingCount="0" stopTime="0.00" timeLoss="13.30" rerouteNo="0" devices="tripinfo_flow_route_32_duration_20250327_2020.8" vType="car" speedFactor="1.02" vaporized=""/>
    <tripinfo id="flow_route_33_duration_20250327_2020.1" depart="10.00" departLane="133126008#0_0" departPos="106.41" departSpeed="0.00" departDelay="0.00" arrival="86.00" arrivalLane="1369578054_1" arrivalPos="26.67" arrivalSpeed="9.73" duration="76.00" routeLength="133.62" waitingTime="46.00" waitingCount="1" stopTime="0.00" timeLoss="67.76" rerouteNo="0" devices="tripinfo_flow_route_33_duration_20250327_2020.1" vType="car" speedFactor="0.97" vaporized=""/>
    <tripinfo id="flow_route_33_duration_20250327_2020.3" depart="30.00" departLane="133126008#0_0" departPos="29.90" departSpeed="0.00" departDelay="0.00" arrival="88.00" arrivalLane="1369578054_1" arrivalPos="4.38" arrivalSpeed="8.49" duration="58.00" routeLength="187.85" waitingTime="24.00" waitingCount="1" stopTime="0.00" timeLoss="46.61" rerouteNo="0" devices="tripinfo_flow_route_33_duration_20250327_2020.3" vType="car" speedFactor="1.02" vaporized=""/>
    <tripinfo id="flow_route_28_duration_20250327_2020.1" depart="6.00" departLane="-422986370#2_0" departPos="8.93" departSpeed="0.00" departDelay="0.55" arrival="89.00" arrivalLane="-430406005#1_1" arrivalPos="28.41" arrivalSpeed="10.57" duration="83.00" routeLength="353.91" waitingTime="38.00" waitingCount="1" stopTime="0.00" timeLoss="59.78" rerouteNo="0" devices="tripinfo_flow_route_28_duration_20250327_2020.1" vType="car" speedFactor="0.93" vaporized=""/>
    <tripinfo id="flow_route_33_duration_20250327_2020.2" depart="20.00" departLane="133126008#0_0" departPos="87.93" departSpeed="0.00" departDelay="0.00" arrival="89.00" arrivalLane="1369578054_1" arrivalPos="31.38" arrivalSpeed="11.43" duration="69.00" routeLength="156.80" waitingTime="38.00" waitingCount="1" stopTime="0.00" timeLoss="58.92" rerouteNo="0" devices="tripinfo_flow_route_33_duration_20250327_2020.2" vType="car" speedFactor="1.03" vaporized=""/>
    <tripinfo id="flow_route_34_duration_20250327_2020.1" depart="12.00" departLane="133126008#0_0" departPos="27.10" departSpeed="0.00" departDelay="0.00" arrival="91.00" arrivalLane="133126030#0_0" arrivalPos="31.20" arrivalSpeed="8.77" duration="79.00" routeLength="191.62" waitingTime="39.00" waitingCount="1" stopTime="0.00" timeLoss="66.11" rerouteNo="0" devices="tripinfo_flow_route_34_duration_20250327_2020.1" vType="car" speedFactor="0.92" vaporized=""/>
    <tripinfo id="flow_route_28_duration_20250327_2020.3" depart="17.00" departLane="-422986370#2_0" departPos="203.30" departSpeed="0.00" departDelay="0.64" arrival="91.00" arrivalLane="-430406005#1_0" arrivalPos="51.80" arrivalSpeed="12.28" duration="74.00" routeLength="182.93" waitingTime="39.00" waitingCount="1" stopTime="0.00" timeLoss="62.32" rerouteNo="0" devices="tripinfo_flow_route_28_duration_20250327_2020.3" vType="car" speedFactor="1.17" vaporized=""/>
    <tripinfo id="flow_route_34_duration_20250327_2020.2" depart="24.00" departLane="133126008#0_0" departPos="127.31" departSpeed="0.00" departDelay="0.00" arrival="91.00" arrivalLane="133126030#0_0" arrivalPos="52.10" arrivalSpeed="10.31" duration="67.00" routeLength="112.32" waitingTime="40.00" waitingCount="1" stopTime="0.00" timeLoss="58.10" rerouteNo="0" devices="tripinfo_flow_route_34_duration_20250327_2020.2" vType="car" speedFactor="0.90" vaporized=""/>
    <tripinfo id="flow_route_34_duration_20250327_2020.3" depart="36.00" departLane="133126008#0_0" departPos="65.41" departSpeed="0.00" departDelay="0.00" arrival="92.00" arrivalLane="133126030#0_0" arrivalPos="28.41" arrivalSpeed="8.90" duration="56.00" routeLength="150.52" waitingTime="24.00" waitingCount="1" stopTime="0.00" timeLoss="46.20" rerouteNo="0" devices="tripinfo_flow_route_34_duration_20250327_2020.3" vType="car" speedFactor="1.04" vaporized=""/>
    <tripinfo id="flow_route_29_duration_20250327_2020.0" depart="0.00" departLane="-422986370#2_0" departPos="201.60" departSpeed="0.00" departDelay="0.00" arrival="93.00" arrivalLane="137415945#0_0" arrivalPos="9.07" arrivalSpeed="15.27" duration="93.00" routeLength="253.29" waitingTime="56.00" waitingCount="1" stopTime="0.00" timeLoss="75.58" rerouteNo="0" devices="tripinfo_flow_route_29_duration_20250327_2020.0" vType="car" speedFactor="0.94" vaporized=""/>
    <tripinfo id="flow_route_33_duration_20250327_2020.5" depart="50.00" departLane="133126008#0_0" departPos="50.82" departSpeed="0.00" departDelay="0.00" arrival="93.00" arrivalLane="1369578054_1" arrivalPos="9.45" arrivalSpeed="10.49" duration="43.00" routeLength="171.99" waitingTime="10.00" waitingCount="1" stopTime="0.00" timeLoss="32.04" rerouteNo="0" devices="tripinfo_flow_route_33_duration_20250327_2020.5" vType="car" speedFactor="0.92" vaporized=""/>
    <tripinfo id="flow_route_34_duration_20250327_2020.0" depart="0.00" departLane="133126008#0_0" departPos="47.21" departSpeed="0.00" departDelay="0.00" arrival="94.00" arrivalLane="133126030#0_0" arrivalPos="137.72" arrivalSpeed="15.06" duration="94.00" routeLength="278.03" waitingTime="47.00" waitingCount="1" stopTime="0.00" timeLoss="76.10" rerouteNo="0" devices="tripinfo_flow_route_34_duration_20250327_2020.0" vType="car" speedFactor="1.05" vaporized=""/>
    <tripinfo id="flow_route_28_duration_20250327_2020.7" depart="39.00" departLane="-422986370#2_0" departPos="71.42" departSpeed="0.00" departDelay="0.82" arrival="95.00" arrivalLane="-430406005#1_1" arrivalPos="34.89" arrivalSpeed="11.45" duration="56.00" routeLength="297.90" waitingTime="12.00" waitingCount="1" stopTime="0.00" timeLoss="37.15" rerouteNo="0" devices="tripinfo_flow_route_28_duration_20250327_2020.7" vType="car" speedFactor="0.94" vaporized=""/>
    <tripinfo id="flow_route_28_duration_20250327_2020.0" depart="0.00" departLane="-422986370#2_0" departPos="1.81" departSpeed="0.00" departDelay="0.00" arrival="96.00" arrivalLane="-430406005#1_0" arrivalPos="159.13" arrivalSpeed="16.49" duration="96.00" routeLength="491.75" waitingTime="42.00" waitingCount="1" stopTime="0.00" timeLoss="66.19" rerouteNo="0" devices="tripinfo_flow_route_28_duration_20250327_2020.0" vType="car" speedFactor="1.06" vaporized=""/>
    <tripinfo id="flow_route_33_duration_20250327_2020.4" depart="40.00" departLane="133126008#0_0" departPos="101.66" departSpeed="0.00" departDelay="0.00" arrival="96.00" arrivalLane="1369578054_1" arrivalPos="66.11" arrivalSpeed="14.15" duration="56.00" routeLength="177.81" waitingTime="23.00" waitingCount="1" stopTime="0.00" timeLoss="44.51" rerouteNo="0" devices="tripinfo_flow_route_33_duration_20250327_2020.4" vType="car" speedFactor="1.03" vaporized=""/>
    <tripinfo id="flow_route_28_duration_20250327_2020.2" depart="11.00" departLane="-422986370#2_0" departPos="92.20" departSpeed="0.00" departDelay="0.09" arrival="97.00" arrivalLane="-430406005#1_0" arrivalPos="123.51" arrivalSpeed="16.00" duration="86.00" routeLength="365.75" waitingTime="38.00" waitingCount="1" stopTime="0.00" timeLoss="62.48" rerouteNo="0" devices="tripinfo_flow_route_28_duration_20250327_2020.2" vType="car" speedFactor="0.89" vaporized=""/>
    <tripinfo id="flow_route_34_duration_20250327_2020.4" depart="49.00" departLane="133126008#0_0" departPos="102.72" departSpeed="0.00" departDelay="1.00" arrival="97.00" arrivalLane="133126030#0_0" arrivalPos="48.97" arrivalSpeed="11.22" duration="48.00" routeLength="133.77" waitingTime="18.00" waitingCount="1" stopTime="0.00" timeLoss="38.77" rerouteNo="0" devices="tripinfo_flow_route_34_duration_20250327_2020.4" vType="car" speedFactor="1.02" vaporized=""/>
    <tripinfo id="flow_route_28_duration_20250327_2020.9" depart="50.00" departLane="-422986370#2_0" departPos="102.72" departSpeed="0.00" departDelay="0.91" arrival="97.00" arrivalLane="-430406005#1_1" arrivalPos="8.75" arrivalSpeed="11.13" duration="47.00" routeLength="240.45" waitingTime="8.00" waitingCount="1" stopTime="0.00" timeLoss="29.83" rerouteNo="0" devices="tripinfo_flow_route_28_duration_20250327_2020.9" vType="car" speedFactor="0.83" vaporized=""/>
    <tripinfo id="flow_route_28_duration_20250327_2020.5" depart="28.00" departLane="-422986370#2_0" departPos="30.82" departSpeed="0.00" departDelay="0.73" arrival="99.00" arrivalLane="-430406005#1_1" arrivalPos="105.21" arrivalSpeed="15.19" duration="71.00" routeLength="408.82" waitingTime="19.00" waitingCount="1" stopTime="0.00" timeLoss="45.48" rerouteNo="0" devices="tripinfo_flow_route_28_duration_20250327_2020.5" vType="car" speedFactor="1.10" vaporized=""/>
    <tripinfo id="flow_route_28_duration_20250327_2020.10" depart="55.00" departLane="-422986370#2_0" departPos="196.35" departSpeed="0.00" departDelay="0.46" arrival="100.00" arrivalLane="-430406005#1_0" arrivalPos="43.13" arrivalSpeed="13.02" duration="45.00" routeLength="181.21" waitingTime="9.00" waitingCount="1" stopTime="0.00" timeLoss="33.30" rerouteNo="0" devices="tripinfo_flow_route_28_duration_20250327_2020.10" vType="car" speedFactor="0.96" vaporized=""/>
    <tripinfo id="flow_route_29_duration_20250327_2020.1" depart="15.00" departLane="-422986370#2_0" departPos="62.06" departSpeed="0.00" departDelay="0.00" arrival="101.00" arrivalLane="137415945#0_0" arrivalPos="4.00" arrivalSpeed="16.44" duration="86.00" routeLength="387.76" waitingTime="29.00" waitingCount="1" stopTime="0.00" timeLoss="61.43" rerouteNo="0" devices="tripinfo_flow_route_29_duration_20250327_2020.1" vType="car" speedFactor="1.18" vaporized=""/>
    <tripinfo id="flow_route_28_duration_20250327_2020.6" depart="33.00" departLane="-422986370#2_0" departPos="245.44" departSpeed="0.00" departDelay="0.28" arrival="101.00" arrivalLane="-430406005#1_1" arrivalPos="162.36" arrivalSpeed="16.10" duration="68.00" routeLength="251.36" waitingTime="32.00" waitingCount="1" stopTime="0.00" timeLoss="51.95" rerouteNo="0" devices="tripinfo_flow_route_28_duration_20250327_2020.6" vType="car" speedFactor="1.02" vaporized=""/>
    <tripinfo id="flow_route_28_duration_20250327_2020.4" depart="22.00" departLane="-422986370#2_0" departPos="102.71" departSpeed="0.00" departDelay="0.18" arrival="102.00" arrivalLane="-430406005#1_0" arrivalPos="156.06" arrivalSpeed="16.34" duration="80.00" routeLength="387.78" waitingTime="30.00" waitingCount="1" stopTime="0.00" timeLoss="55.72" rerouteNo="0" devices="tripinfo_flow_route_28_duration_20250327_2020.4" vType="car" speedFactor="1.09" vaporized=""/>
    <tripinfo id="flow_route_29_duration_20250327_2020.2" depart="31.00" departLane="-422986370#2_0" departPos="101.50" departSpeed="0.00" departDelay="1.00" arrival="103.00" arrivalLane="137415945#0_0" arrivalPos="6.99" arrivalSpeed="16.22" duration="72.00" routeLength="351.31" waitingTime="25.00" waitingCount="1" stopTime="0.00" timeLoss="49.93" rerouteNo="0" devices="tripinfo_flow_route_29_duration_20250327_2020.2" vType="car" speedFactor="1.14" vaporized=""/>
    <tripinfo id="flow_route_28_duration_20250327_2020.8" depart="44.00" departLane="-422986370#2_0" departPos="118.15" departSpeed="0.00" departDelay="0.37" arrival="104.00" arrivalLane="-430406005#1_1" arrivalPos="131.98" arrivalSpeed="16.41" duration="60.00" routeLength="348.26" waitingTime="12.00" waitingCount="2" stopTime="0.00" timeLoss="38.16" rerouteNo="0" devices="tripinfo_flow_route_28_duration_20250327_2020.8" vType="car" speedFactor="0.97" vaporized=""/>
    <tripinfo id="flow_route_29_duration_20250327_2020.3" depart="45.00" departLane="-422986370#2_0" departPos="69.00" departSpeed="0.00" departDelay="0.00" arrival="108.00" arrivalLane="137415945#0_0" arrivalPos="1.40" arrivalSpeed="16.60" duration="63.00" routeLength="378.22" waitingTime="7.00" waitingCount="1" stopTime="0.00" timeLoss="38.15" rerouteNo="0" devices="tripinfo_flow_route_29_duration_20250327_2020.3" vType="car" speedFactor="1.15" vaporized=""/>
    <tripinfo id="flow_route_35_duration_20250327_2020.4" depart="16.00" departLane="485211947#0_0" departPos="65.19" departSpeed="0.00" departDelay="1.88" arrival="127.00" arrivalLane="1369578054_0" arrivalPos="101.58" arrivalSpeed="13.36" duration="111.00" routeLength="233.85" waitingTime="73.00" waitingCount="1" stopTime="0.00" timeLoss="96.20" rerouteNo="0" devices="tripinfo_flow_route_35_duration_20250327_2020.4" vType="car" speedFactor="1.15" vaporized=""/>
    <tripinfo id="flow_route_36_duration_20250327_2020.4" depart="19.00" departLane="485211947#0_0" departPos="4.42" departSpeed="0.00" departDelay="1.86" arrival="131.00" arrivalLane="137415945#0_1" arrivalPos="6.53" arrivalSpeed="15.55" duration="112.00" routeLength="346.64" waitingTime="67.00" waitingCount="1" stopTime="0.00" timeLoss="90.92" rerouteNo="0" devices="tripinfo_flow_route_36_duration_20250327_2020.4" vType="car" speedFactor="1.18" vaporized=""/>
    <tripinfo id="flow_route_37_duration_20250327_2020.1" depart="25.00" departLane="485211947#0_0" departPos="88.94" departSpeed="0.00" departDelay="5.00" arrival="132.00" arrivalLane="-430406005#1_1" arrivalPos="156.36" arrivalSpeed="16.57" duration="107.00" routeLength="280.40" waitingTime="68.00" waitingCount="1" stopTime="0.00" timeLoss="88.08" rerouteNo="0" devices="tripinfo_flow_route_37_duration_20250327_2020.1" vType="car" speedFactor="0.96" vaporized=""/>
    <tripinfo id="flow_route_36_duration_20250327_2020.5" depart="25.00" departLane="485211947#0_0" departPos="72.39" departSpeed="0.00" departDelay="3.58" arrival="133.00" arrivalLane="137415945#0_1" arrivalPos="12.37" arrivalSpeed="16.14" duration="108.00" routeLength="284.51" waitingTime="65.00" waitingCount="1" stopTime="0.00" timeLoss="90.84" rerouteNo="0" devices="tripinfo_flow_route_36_duration_20250327_2020.5" vType="car" speedFactor="1.04" vaporized=""/>
    <tripinfo id="flow_route_35_duration_20250327_2020.10" depart="40.00" departLane="485211947#0_0" departPos="146.94" departSpeed="0.00" departDelay="4.71" arrival="133.00" arrivalLane="1369578054_1" arrivalPos="133.80" arrivalSpeed="15.49" duration="93.00" routeLength="184.32" waitingTime="63.00" waitingCount="1" stopTime="0.00" timeLoss="80.80" rerouteNo="0" devices="tripinfo_flow_route_35_duration_20250327_2020.10" vType="car" speedFactor="1.02" vaporized=""/>
    <tripinfo id="flow_route_37_duration_20250327_2020.2" depart="40.00" departLane="485211947#0_0" departPos="6.42" departSpeed="0.00" departDelay="0.00" arrival="134.00" arrivalLane="-430406005#1_1" arrivalPos="163.95" arrivalSpeed="16.27" duration="94.00" routeLength="370.51" waitingTime="48.00" waitingCount="1" stopTime="0.00" timeLoss="70.26" rerouteNo="0" devices="tripinfo_flow_route_37_duration_20250327_2020.2" vType="car" speedFactor="0.98" vaporized=""/>
    <tripinfo id="flow_route_35_duration_20250327_2020.12" depart="44.00" departLane="485211947#0_0" departPos="35.31" departSpeed="0.00" departDelay="1.65" arrival="134.00" arrivalLane="1369578054_0" arrivalPos="2.20" arrivalSpeed="7.34" duration="90.00" routeLength="164.34" waitingTime="54.00" waitingCount="1" stopTime="0.00" timeLoss="78.84" rerouteNo="0" devices="tripinfo_flow_route_35_duration_20250327_2020.12" vType="car" speedFactor="1.00" vaporized=""/>
    <tripinfo id="flow_route_36_duration_20250327_2020.7" depart="37.00" departLane="485211947#0_0" departPos="107.39" departSpeed="0.00" departDelay="7.01" arrival="136.00" arrivalLane="137415945#0_1" arrivalPos="12.49" arrivalSpeed="15.87" duration="99.00" routeLength="249.63" waitingTime="62.00" waitingCount="1" stopTime="0.00" timeLoss="82.70" rerouteNo="0" devices="tripinfo_flow_route_36_duration_20250327_2020.7" vType="car" speedFactor="0.97" vaporized=""/>
    <tripinfo id="flow_route_36_duration_20250327_2020.6" depart="32.00" departLane="485211947#0_0" departPos="2.16" departSpeed="0.00" departDelay="6.29" arrival="137.00" arrivalLane="137415945#0_1" arrivalPos="10.76" arrivalSpeed="16.50" duration="105.00" routeLength="353.13" waitingTime="57.00" waitingCount="1" stopTime="0.00" timeLoss="83.25" rerouteNo="0" devices="tripinfo_flow_route_36_duration_20250327_2020.6" vType="car" speedFactor="1.17" vaporized=""/>
    <tripinfo id="flow_route_35_duration_20250327_2020.14" depart="58.00" departLane="485211947#0_0" departPos="86.80" departSpeed="0.00" departDelay="8.59" arrival="137.00" arrivalLane="1369578054_0" arrivalPos="9.44" arrivalSpeed="8.96" duration="79.00" routeLength="120.10" waitingTime="47.00" waitingCount="1" stopTime="0.00" timeLoss="70.44" rerouteNo="0" devices="tripinfo_flow_route_35_duration_20250327_2020.14" vType="car" speedFactor="1.09" vaporized=""/>