<?xml version="1.0" encoding="UTF-8"?>

<!-- generated on 2025-05-06 21:07:41 by Eclipse SUMO sumo Version 1.20.0
<configuration xmlns:xsi="http://www.w3.org/2001/XMLSchema-instance" xsi:noNamespaceSchemaLocation="http://sumo.dlr.de/xsd/sumoConfiguration.xsd">

    <input>
        <net-file value="osm.net.xml"/>
        <route-files value="xml/route_rl_cluster_11648745684_256036885_3839031483_0.rou.xml"/>
    </input>

    <output>
        <tripinfo-output value="xml/tripinfo_rl_cluster_11648745684_256036885_3839031483_0.xml"/>
    </output>

    <traci_server>
        <remote-port value="34753"/>
    </traci_server>

</configuration>
-->

<tripinfos xmlns:xsi="http://www.w3.org/2001/XMLSchema-instance" xsi:noNamespaceSchemaLocation="http://sumo.dlr.de/xsd/tripinfo_file.xsd">
    <tripinfo id="flow_route_72_duration_20250327_2110.0" depart="0.00" departLane="1369578052#0_0" departPos="161.40" departSpeed="0.00" departDelay="0.00" arrival="15.00" arrivalLane="133342692#0_0" arrivalPos="42.43" arrivalSpeed="11.65" duration="15.00" routeLength="81.12" waitingTime="0.00" waitingCount="0" stopTime="0.00" timeLoss="8.08" rerouteNo="0" devices="tripinfo_flow_route_72_duration_20250327_2110.0" vType="car" speedFactor="0.89" vaporized=""/>
    <tripinfo id="flow_route_68_duration_20250327_2110.1" depart="7.00" departLane="1253209803#0_0" departPos="217.48" departSpeed="0.00" departDelay="0.33" arrival="28.00" arrivalLane="-138002002#2_0" arrivalPos="29.31" arrivalSpeed="15.82" duration="21.00" routeLength="163.15" waitingTime="0.00" waitingCount="0" stopTime="0.00" timeLoss="10.59" rerouteNo="0" devices="tripinfo_flow_route_68_duration_20250327_2110.1" vType="car" speedFactor="0.99" vaporized=""/>
    <tripinfo id="flow_route_68_duration_20250327_2110.0" depart="0.00" departLane="1253209803#0_0" departPos="143.52" departSpeed="0.00" departDelay="0.00" arrival="29.00" arrivalLane="-138002002#2_1" arrivalPos="90.53" arrivalSpeed="16.38" duration="29.00" routeLength="298.33" waitingTime="0.00" waitingCount="0" stopTime="0.00" timeLoss="10.60" rerouteNo="0" devices="tripinfo_flow_route_68_duration_20250327_2110.0" vType="car" speedFactor="1.08" vaporized=""/>
    <tripinfo id="flow_route_71_duration_20250327_2110.1" depart="9.00" departLane="1369578052#0_0" departPos="75.82" departSpeed="0.00" departDelay="0.43" arrival="31.00" arrivalLane="138002016#0_0" arrivalPos="41.19" arrivalSpeed="15.03" duration="22.00" routeLength="183.04" waitingTime="0.00" waitingCount="0" stopTime="0.00" timeLoss="9.46" rerouteNo="0" devices="tripinfo_flow_route_71_duration_20250327_2110.1" vType="car" speedFactor="0.93" vaporized=""/>
    <tripinfo id="flow_route_70_duration_20250327_2110.0" depart="0.00" departLane="1253209803#0_0" departPos="83.97" departSpeed="0.00" departDelay="0.00" arrival="32.00" arrivalLane="133342692#0_2" arrivalPos="7.48" arrivalSpeed="8.67" duration="32.00" routeLength="271.18" waitingTime="0.00" waitingCount="0" stopTime="0.00" timeLoss="13.68" rerouteNo="0" devices="tripinfo_flow_route_70_duration_20250327_2110.0" vType="car" speedFactor="0.83" vaporized=""/>
    <tripinfo id="flow_route_71_duration_20250327_2110.0" depart="0.00" departLane="1369578052#0_0" departPos="11.11" departSpeed="0.00" departDelay="0.00" arrival="39.00" arrivalLane="138002016#0_0" arrivalPos="236.62" arrivalSpeed="16.37" duration="39.00" routeLength="443.19" waitingTime="0.00" waitingCount="0" stopTime="0.00" timeLoss="12.16" rerouteNo="0" devices="tripinfo_flow_route_71_duration_20250327_2110.0" vType="car" speedFactor="1.05" vaporized=""/>
    <tripinfo id="flow_route_69_duration_20250327_2110.0" depart="0.00" departLane="1253209803#0_0" departPos="179.76" departSpeed="0.00" departDelay="0.00" arrival="41.00" arrivalLane="380585337#0_0" arrivalPos="14.31" arrivalSpeed="16.18" duration="41.00" routeLength="299.43" waitingTime="0.00" waitingCount="0" stopTime="0.00" timeLoss="22.14" rerouteNo="0" devices="tripinfo_flow_route_69_duration_20250327_2110.0" vType="car" speedFactor="1.03" vaporized=""/>
    <tripinfo id="flow_route_68_duration_20250327_2110.3" depart="20.00" departLane="1253209803#0_0" departPos="229.16" departSpeed="0.00" departDelay="0.00" arrival="41.00" arrivalLane="-138002002#2_0" arrivalPos="38.16" arrivalSpeed="15.50" duration="21.00" routeLength="160.32" waitingTime="0.00" waitingCount="0" stopTime="0.00" timeLoss="10.56" rerouteNo="0" devices="tripinfo_flow_route_68_duration_20250327_2110.3" vType="car" speedFactor="1.13" vaporized=""/>
    <tripinfo id="flow_route_70_duration_20250327_2110.1" depart="20.00" departLane="1253209803#0_0" departPos="111.69" departSpeed="0.00" departDelay="0.00" arrival="52.00" arrivalLane="133342692#0_2" arrivalPos="30.97" arrivalSpeed="10.46" duration="32.00" routeLength="266.95" waitingTime="0.00" waitingCount="0" stopTime="0.00" timeLoss="14.01" rerouteNo="0" devices="tripinfo_flow_route_70_duration_20250327_2110.1" vType="car" speedFactor="0.93" vaporized=""/>
    <tripinfo id="flow_route_68_duration_20250327_2110.2" depart="14.00" departLane="1253209803#0_0" departPos="53.46" departSpeed="0.00" departDelay="0.67" arrival="56.00" arrivalLane="-138002002#2_1" arrivalPos="176.83" arrivalSpeed="16.24" duration="42.00" routeLength="474.69" waitingTime="0.00" waitingCount="0" stopTime="0.00" timeLoss="12.85" rerouteNo="0" devices="tripinfo_flow_route_68_duration_20250327_2110.2" vType="car" speedFactor="0.97" vaporized=""/>
    <tripinfo id="flow_route_68_duration_20250327_2110.4" depart="27.00" departLane="1253209803#0_0" departPos="156.40" departSpeed="0.00" departDelay="0.34" arrival="60.00" arrivalLane="-138002002#2_0" arrivalPos="161.28" arrivalSpeed="16.28" duration="33.00" routeLength="356.20" waitingTime="0.00" waitingCount="0" stopTime="0.00" timeLoss="11.28" rerouteNo="0" devices="tripinfo_flow_route_68_duration_20250327_2110.4" vType="car" speedFactor="1.02" vaporized=""/>
    <tripinfo id="flow_route_68_duration_20250327_2110.5" depart="34.00" departLane="1253209803#0_0" departPos="124.02" departSpeed="0.00" departDelay="0.67" arrival="62.00" arrivalLane="-138002002#2_1" arrivalPos="26.00" arrivalSpeed="16.27" duration="28.00" routeLength="253.31" waitingTime="0.00" waitingCount="0" stopTime="0.00" timeLoss="12.00" rerouteNo="0" devices="tripinfo_flow_route_68_duration_20250327_2110.5" vType="car" speedFactor="1.09" vaporized=""/>
    <tripinfo id="flow_route_68_duration_20250327_2110.6" depart="40.00" departLane="1253209803#0_0" departPos="174.36" departSpeed="0.00" departDelay="0.00" arrival="74.00" arrivalLane="-138002002#2_1" arrivalPos="157.79" arrivalSpeed="13.91" duration="34.00" routeLength="334.75" waitingTime="0.00" waitingCount="0" stopTime="0.00" timeLoss="11.92" rerouteNo="0" devices="tripinfo_flow_route_68_duration_20250327_2110.6" vType="car" speedFactor="0.85" vaporized=""/>
    <tripinfo id="flow_route_68_duration_20250327_2110.7" depart="48.00" departLane="1253209803#0_0" departPos="267.82" departSpeed="0.00" departDelay="1.34" arrival="75.00" arrivalLane="-138002002#2_0" arrivalPos="150.93" arrivalSpeed="14.56" duration="27.00" routeLength="234.43" waitingTime="0.00" waitingCount="0" stopTime="0.00" timeLoss="11.19" rerouteNo="0" devices="tripinfo_flow_route_68_duration_20250327_2110.7" vType="car" speedFactor="0.90" vaporized=""/>
    <tripinfo id="flow_route_70_duration_20250327_2110.2" depart="40.00" departLane="1253209803#0_0" departPos="4.64" departSpeed="0.00" departDelay="0.00" arrival="82.00" arrivalLane="133342692#0_2" arrivalPos="109.92" arrivalSpeed="13.94" duration="42.00" routeLength="452.95" waitingTime="0.00" waitingCount="0" stopTime="0.00" timeLoss="12.10" rerouteNo="0" devices="tripinfo_flow_route_70_duration_20250327_2110.2" vType="car" speedFactor="0.85" vaporized=""/>
    <tripinfo id="flow_route_65_duration_20250327_2110.0" depart="6.00" departLane="133131666#1_0" departPos="0.72" departSpeed="0.00" departDelay="6.00" arrival="83.00" arrivalLane="138002016#0_2" arrivalPos="14.48" arrivalSpeed="8.27" duration="77.00" routeLength="198.22" waitingTime="44.00" waitingCount="1" stopTime="0.00" timeLoss="64.00" rerouteNo="0" devices="tripinfo_flow_route_65_duration_20250327_2110.0" vType="car" speedFactor="1.01" vaporized=""/>
    <tripinfo id="flow_route_65_duration_20250327_2110.3" depart="30.00" departLane="133131666#1_0" departPos="9.13" departSpeed="0.00" departDelay="12.00" arrival="89.00" arrivalLane="138002016#0_2" arrivalPos="8.86" arrivalSpeed="8.89" duration="59.00" routeLength="184.20" waitingTime="24.00" waitingCount="1" stopTime="0.00" timeLoss="45.57" rerouteNo="0" devices="tripinfo_flow_route_65_duration_20250327_2110.3" vType="car" speedFactor="0.89" vaporized=""/>
    <tripinfo id="flow_route_63_duration_20250327_2110.4" depart="65.00" departLane="133131666#1_0" departPos="1.88" departSpeed="0.00" departDelay="25.00" arrival="90.00" arrivalLane="133342692#0_1" arrivalPos="17.64" arrivalSpeed="11.33" duration="25.00" routeLength="199.48" waitingTime="0.00" waitingCount="0" stopTime="0.00" timeLoss="11.03" rerouteNo="0" devices="tripinfo_flow_route_63_duration_20250327_2110.4" vType="car" speedFactor="0.88" vaporized=""/>
    <tripinfo id="flow_route_64_duration_20250327_2110.2" depart="20.00" departLane="133131666#1_0" departPos="1.04" departSpeed="0.00" departDelay="10.77" arrival="92.00" arrivalLane="-138002002#2_0" arrivalPos="48.64" arrivalSpeed="10.48" duration="72.00" routeLength="213.15" waitingTime="36.00" waitingCount="1" stopTime="0.00" timeLoss="56.87" rerouteNo="0" devices="tripinfo_flow_route_64_duration_20250327_2110.2" vType="car" speedFactor="0.94" vaporized=""/>
    <tripinfo id="flow_route_65_duration_20250327_2110.2" depart="26.00" departLane="133131666#1_0" departPos="0.53" departSpeed="0.00" departDelay="14.00" arrival="93.00" arrivalLane="138002016#0_2" arrivalPos="76.85" arrivalSpeed="13.76" duration="67.00" routeLength="260.78" waitingTime="28.00" waitingCount="1" stopTime="0.00" timeLoss="48.98" rerouteNo="0" devices="tripinfo_flow_route_65_duration_20250327_2110.2" vType="car" speedFactor="0.94" vaporized=""/>
    <tripinfo id="flow_route_63_duration_20250327_2110.2" depart="34.00" departLane="133131666#1_0" departPos="8.25" departSpeed="0.00" departDelay="14.00" arrival="93.00" arrivalLane="133342692#0_1" arrivalPos="97.24" arrivalSpeed="14.15" duration="59.00" routeLength="272.71" waitingTime="17.00" waitingCount="1" stopTime="0.00" timeLoss="41.03" rerouteNo="0" devices="tripinfo_flow_route_63_duration_20250327_2110.2" vType="car" speedFactor="0.95" vaporized=""/>
    <tripinfo id="flow_route_63_duration_20250327_2110.0" depart="0.00" departLane="133131666#1_0" departPos="14.94" departSpeed="0.00" departDelay="0.00" arrival="94.00" arrivalLane="133342692#0_0" arrivalPos="152.76" arrivalSpeed="16.33" duration="94.00" routeLength="321.54" waitingTime="52.00" waitingCount="1" stopTime="0.00" timeLoss="74.09" rerouteNo="0" devices="tripinfo_flow_route_63_duration_20250327_2110.0" vType="car" speedFactor="1.06" vaporized=""/>
    <tripinfo id="flow_route_64_duration_20250327_2110.0" depart="2.00" departLane="133131666#1_0" departPos="6.82" departSpeed="0.00" departDelay="2.00" arrival="94.00" arrivalLane="-138002002#2_0" arrivalPos="131.25" arrivalSpeed="14.78" duration="92.00" routeLength="289.98" waitingTime="50.00" waitingCount="1" stopTime="0.00" timeLoss="71.50" rerouteNo="0" devices="tripinfo_flow_route_64_duration_20250327_2110.0" vType="car" speedFactor="0.94" vaporized=""/>
    <tripinfo id="flow_route_63_duration_20250327_2110.1" depart="18.00" departLane="133131666#1_0" departPos="20.60" departSpeed="0.00" departDelay="8.00" arrival="95.00" arrivalLane="133342692#0_0" arrivalPos="165.37" arrivalSpeed="14.25" duration="77.00" routeLength="328.49" waitingTime="34.00" waitingCount="1" stopTime="0.00" timeLoss="54.56" rerouteNo="0" devices="tripinfo_flow_route_63_duration_20250327_2110.1" vType="car" speedFactor="0.88" vaporized=""/>
    <tripinfo id="flow_route_65_duration_20250327_2110.1" depart="16.00" departLane="133131666#1_0" departPos="4.07" departSpeed="0.00" departDelay="10.00" arrival="97.00" arrivalLane="138002016#0_2" arrivalPos="173.28" arrivalSpeed="16.52" duration="81.00" routeLength="353.67" waitingTime="34.00" waitingCount="1" stopTime="0.00" timeLoss="58.36" rerouteNo="0" devices="tripinfo_flow_route_65_duration_20250327_2110.1" vType="car" speedFactor="1.05" vaporized=""/>
    <tripinfo id="flow_route_64_duration_20250327_2110.1" depart="10.00" departLane="133131666#1_0" departPos="4.95" departSpeed="0.00" departDelay="5.39" arrival="98.00" arrivalLane="-138002002#2_0" arrivalPos="163.51" arrivalSpeed="16.53" duration="88.00" routeLength="324.11" waitingTime="43.00" waitingCount="1" stopTime="0.00" timeLoss="67.61" rerouteNo="0" devices="tripinfo_flow_route_64_duration_20250327_2110.1" vType="car" speedFactor="1.03" vaporized=""/>
    <tripinfo id="flow_route_64_duration_20250327_2110.4" depart="34.00" departLane="133131666#1_0" departPos="19.58" departSpeed="0.00" departDelay="15.54" arrival="98.00" arrivalLane="-138002002#2_0" arrivalPos="57.82" arrivalSpeed="10.47" duration="64.00" routeLength="203.79" waitingTime="26.00" waitingCount="1" stopTime="0.00" timeLoss="49.17" rerouteNo="0" devices="tripinfo_flow_route_64_duration_20250327_2110.4" vType="car" speedFactor="0.92" vaporized=""/>
    <tripinfo id="flow_route_63_duration_20250327_2110.3" depart="45.00" departLane="133131666#1_0" departPos="10.80" departSpeed="0.00" departDelay="15.00" arrival="98.00" arrivalLane="133342692#0_1" arrivalPos="149.82" arrivalSpeed="16.31" duration="53.00" routeLength="322.74" waitingTime="7.00" waitingCount="1" stopTime="0.00" timeLoss="33.17" rerouteNo="0" devices="tripinfo_flow_route_63_duration_20250327_2110.3" vType="car" speedFactor="1.18" vaporized=""/>
    <tripinfo id="flow_route_65_duration_20250327_2110.6" depart="55.00" departLane="133131666#1_0" departPos="20.41" departSpeed="0.00" departDelay="19.00" arrival="99.00" arrivalLane="138002016#0_2" arrivalPos="48.89" arrivalSpeed="12.17" duration="44.00" routeLength="212.93" waitingTime="5.00" waitingCount="1" stopTime="0.00" timeLoss="30.48" rerouteNo="0" devices="tripinfo_flow_route_65_duration_20250327_2110.6" vType="car" speedFactor="1.04" vaporized=""/>
    <tripinfo id="flow_route_64_duration_20250327_2110.5" depart="40.00" departLane="133131666#1_0" departPos="18.23" departSpeed="0.00" departDelay="16.93" arrival="102.00" arrivalLane="-138002002#2_0" arrivalPos="77.96" arrivalSpeed="11.99" duration="62.00" routeLength="225.28" waitingTime="21.00" waitingCount="1" stopTime="0.00" timeLoss="46.99" rerouteNo="0" devices="tripinfo_flow_route_64_duration_20250327_2110.5" vType="car" speedFactor="1.18" vaporized=""/>
    <tripinfo id="flow_route_64_duration_20250327_2110.3" depart="27.00" departLane="133131666#1_0" departPos="13.88" departSpeed="0.00" departDelay="13.16" arrival="103.00" arrivalLane="-138002002#2_0" arrivalPos="172.25" arrivalSpeed="16.24" duration="76.00" routeLength="323.92" waitingTime="29.00" waitingCount="1" stopTime="0.00" timeLoss="55.32" rerouteNo="0" devices="tripinfo_flow_route_64_duration_20250327_2110.3" vType="car" speedFactor="1.01" vaporized=""/>
    <tripinfo id="flow_route_65_duration_20250327_2110.4" depart="42.00" departLane="133131666#1_0" departPos="3.72" departSpeed="0.00" departDelay="18.00" arrival="104.00" arrivalLane="138002016#0_2" arrivalPos="195.82" arrivalSpeed="16.16" duration="62.00" routeLength="376.56" waitingTime="15.00" waitingCount="1" stopTime="0.00" timeLoss="38.58" rerouteNo="0" devices="tripinfo_flow_route_65_duration_20250327_2110.4" vType="car" speedFactor="1.15" vaporized=""/>
    <tripinfo id="flow_route_64_duration_20250327_2110.6" depart="45.00" departLane="133131666#1_0" departPos="0.26" departSpeed="0.00" departDelay="17.31" arrival="104.00" arrivalLane="-138002002#2_0" arrivalPos="78.31" arrivalSpeed="12.17" duration="59.00" routeLength="243.60" waitingTime="14.00" waitingCount="1" stopTime="0.00" timeLoss="42.58" rerouteNo="0" devices="tripinfo_flow_route_64_duration_20250327_2110.6" vType="car" speedFactor="0.97" vaporized=""/>
    <tripinfo id="flow_route_64_duration_20250327_2110.7" depart="54.00" departLane="133131666#1_0" departPos="2.17" departSpeed="0.00" departDelay="21.70" arrival="104.00" arrivalLane="-138002002#2_0" arrivalPos="51.80" arrivalSpeed="10.76" duration="50.00" routeLength="215.18" waitingTime="10.00" waitingCount="1" stopTime="0.00" timeLoss="35.69" rerouteNo="0" devices="tripinfo_flow_route_64_duration_20250327_2110.7" vType="car" speedFactor="0.96" vaporized=""/>
    <tripinfo id="flow_route_63_duration_20250327_2110.5" depart="78.00" departLane="133131666#1_0" departPos="2.43" departSpeed="0.00" departDelay="28.00" arrival="104.00" arrivalLane="133342692#0_1" arrivalPos="76.56" arrivalSpeed="16.37" duration="26.00" routeLength="257.84" waitingTime="0.00" waitingCount="0" stopTime="0.00" timeLoss="10.22" rerouteNo="0" devices="tripinfo_flow_route_63_duration_20250327_2110.5" vType="car" speedFactor="1.08" vaporized=""/>
    <tripinfo id="flow_route_65_duration_20250327_2110.5" depart="45.00" departLane="133131666#1_0" departPos="20.18" departSpeed="0.00" departDelay="15.00" arrival="107.00" arrivalLane="138002016#0_2" arrivalPos="182.62" arrivalSpeed="16.10" duration="62.00" routeLength="346.90" waitingTime="11.00" waitingCount="1" stopTime="0.00" timeLoss="39.80" rerouteNo="0" devices="tripinfo_flow_route_65_duration_20250327_2110.5" vType="car" speedFactor="1.10" vaporized=""/>
    <tripinfo id="flow_route_64_duration_20250327_2110.8" depart="59.00" departLane="133131666#1_0" departPos="5.29" departSpeed="0.00" departDelay="22.08" arrival="109.00" arrivalLane="-138002002#2_0" arrivalPos="69.90" arrivalSpeed="11.06" duration="50.00" routeLength="230.16" waitingTime="6.00" waitingCount="1" stopTime="0.00" timeLoss="33.21" rerouteNo="0" devices="tripinfo_flow_route_64_duration_20250327_2110.8" vType="car" speedFactor="0.90" vaporized=""/>
    <tripinfo id="flow_route_65_duration_20250327_2110.7" depart="70.00" departLane="133131666#1_0" departPos="10.12" departSpeed="0.00" departDelay="28.00" arrival="109.00" arrivalLane="138002016#0_2" arrivalPos="153.66" arrivalSpeed="16.51" duration="39.00" routeLength="328.01" waitingTime="0.00" waitingCount="0" stopTime="0.00" timeLoss="18.47" rerouteNo="0" devices="tripinfo_flow_route_65_duration_20250327_2110.7" vType="car" speedFactor="1.02" vaporized=""/>
    <tripinfo id="flow_route_65_duration_20250327_2110.8" depart="73.00" departLane="133131666#1_0" departPos="17.60" departSpeed="0.00" departDelay="25.00" arrival="111.00" arrivalLane="138002016#0_2" arrivalPos="155.18" arrivalSpeed="16.55" duration="38.00" routeLength="322.04" waitingTime="1.00" waitingCount="1" stopTime="0.00" timeLoss="17.79" rerouteNo="0" devices="tripinfo_flow_route_65_duration_20250327_2110.8" vType="car" speedFactor="1.14" vaporized=""/>
    <tripinfo id="flow_route_75_duration_20250327_2110.0" depart="0.00" departLane="380593307#0_0" departPos="8.02" departSpeed="0.00" departDelay="0.00" arrival="118.00" arrivalLane="-138002002#2_1" arrivalPos="1.11" arrivalSpeed="6.68" duration="118.00" routeLength="196.85" waitingTime="86.00" waitingCount="1" stopTime="0.00" timeLoss="105.49" rerouteNo="0" devices="tripinfo_flow_route_75_duration_20250327_2110.0" vType="car" speedFactor="1.09" vaporized=""/>
    <tripinfo id="flow_route_64_duration_20250327_2110.9" depart="67.00" departLane="133131666#1_0" departPos="16.64" departSpeed="0.00" departDelay="25.47" arrival="118.00" arrivalLane="-138002002#2_0" arrivalPos="163.43" arrivalSpeed="16.47" duration="51.00" routeLength="312.34" waitingTime="2.00" waitingCount="1" stopTime="0.00" timeLoss="30.46" rerouteNo="0" devices="tripinfo_flow_route_64_duration_20250327_2110.9" vType="car" speedFactor="1.17" vaporized=""/>
    <tripinfo id="flow_route_64_duration_20250327_2110.10" depart="70.00" departLane="133131666#1_0" departPos="0.16" departSpeed="0.00" departDelay="23.85" arrival="119.00" arrivalLane="-138002002#2_0" arrivalPos="156.82" arrivalSpeed="16.35" duration="49.00" routeLength="322.20" waitingTime="0.00" waitingCount="0" stopTime="0.00" timeLoss="28.36" rerouteNo="0" devices="tripinfo_flow_route_64_duration_20250327_2110.10" vType="car" speedFactor="1.00" vaporized=""/>
    <tripinfo id="flow_route_64_duration_20250327_2110.11" depart="85.00" departLane="133131666#1_0" departPos="4.93" departSpeed="0.00" departDelay="34.24" arrival="120.00" arrivalLane="-138002002#2_0" arrivalPos="133.21" arrivalSpeed="16.03" duration="35.00" routeLength="293.83" waitingTime="0.00" waitingCount="0" stopTime="0.00" timeLoss="15.29" rerouteNo="0" devices="tripinfo_flow_route_64_duration_20250327_2110.11" vType="car" speedFactor="1.12" vaporized=""/>
    <tripinfo id="flow_route_75_duration_20250327_2110.1" depart="14.00" departLane="380593307#0_0" departPos="100.71" departSpeed="0.00" departDelay="2.00" arrival="122.00" arrivalLane="-138002002#2_1" arrivalPos="16.40" arrivalSpeed="9.06" duration="108.00" routeLength="119.45" waitingTime="82.00" waitingCount="1" stopTime="0.00" timeLoss="100.10" rerouteNo="0" devices="tripinfo_flow_route_75_duration_20250327_2110.1" vType="car" speedFactor="1.02" vaporized=""/>
    <tripinfo id="flow_route_74_duration_20250327_2110.1" depart="7.00" departLane="380593307#0_0" departPos="5.18" departSpeed="0.00" departDelay="1.00" arrival="128.00" arrivalLane="138002016#0_0" arrivalPos="75.36" arrivalSpeed="11.16" duration="121.00" routeLength="252.87" waitingTime="80.00" waitingCount="1" stopTime="0.00" timeLoss="104.82" rerouteNo="0" devices="tripinfo_flow_route_74_duration_20250327_2110.1" vType="car" speedFactor="1.12" vaporized=""/>
    <tripinfo id="flow_route_73_duration_20250327_2110.0" depart="0.00" departLane="380593307#0_0" departPos="55.90" departSpeed="0.00" departDelay="0.00" arrival="130.00" arrivalLane="380585337#0_0" arrivalPos="13.23" arrivalSpeed="15.37" duration="130.00" routeLength="294.01" waitingTime="90.00" waitingCount="1" stopTime="0.00" timeLoss="111.01" rerouteNo="0" devices="tripinfo_flow_route_73_duration_20250327_2110.0" vType="car" speedFactor="0.94" vaporized=""/>
    <tripinfo id="flow_route_75_duration_20250327_2110.2" depart="24.00" departLane="380593307#0_0" departPos="72.43" departSpeed="0.00" departDelay="0.00" arrival="131.00" arrivalLane="-138002002#2_1" arrivalPos="94.47" arrivalSpeed="14.34" duration="107.00" routeLength="225.80" waitingTime="71.00" waitingCount="1" stopTime="0.00" timeLoss="92.81" rerouteNo="0" devices="tripinfo_flow_route_75_duration_20250327_2110.2" vType="car" speedFactor="1.17" vaporized=""/>
    <tripinfo id="flow_route_75_duration_20250327_2110.3" depart="36.00" departLane="380593307#0_0" departPos="48.14" departSpeed="0.00" departDelay="0.00" arrival="131.00" arrivalLane="-138002002#2_1" arrivalPos="63.47" arrivalSpeed="13.10" duration="95.00" routeLength="219.09" waitingTime="56.00" waitingCount="1" stopTime="0.00" timeLoss="80.91" rerouteNo="0" devices="tripinfo_flow_route_75_duration_20250327_2110.3" vType="car" speedFactor="1.00" vaporized=""/>
    <tripinfo id="flow_route_73_duration_20250327_2110.1" depart="33.00" departLane="380593307#0_0" departPos="21.58" departSpeed="0.00" departDelay="3.00" arrival="133.00" arrivalLane="380585337#0_1" arrivalPos="23.57" arrivalSpeed="14.86" duration="100.00" routeLength="338.67" waitingTime="57.00" waitingCount="1" stopTime="0.00" timeLoss="76.79" rerouteNo="0" devices="tripinfo_flow_route_73_duration_20250327_2110.1" vType="car" speedFactor="0.90" vaporized=""/>
    <tripinfo id="flow_route_74_duration_20250327_2110.4" depart="24.00" departLane="380593307#0_0" departPos="101.56" departSpeed="0.00" departDelay="0.00" arrival="134.00" arrivalLane="138002016#0_0" arrivalPos="124.08" arrivalSpeed="15.34" duration="110.00" routeLength="205.20" waitingTime="76.00" waitingCount="1" stopTime="0.00" timeLoss="96.57" rerouteNo="0" devices="tripinfo_flow_route_74_duration_20250327_2110.4" vType="car" speedFactor="1.01" vaporized=""/>
    <tripinfo id="flow_route_74_duration_20250327_2110.0" depart="0.00" departLane="380593307#0_0" departPos="118.68" departSpeed="0.00" departDelay="0.00" arrival="136.00" arrivalLane="138002016#0_0" arrivalPos="237.21" arrivalSpeed="14.20" duration="136.00" routeLength="301.22" waitingTime="95.00" waitingCount="1" stopTime="0.00" timeLoss="113.33" rerouteNo="0" devices="tripinfo_flow_route_74_duration_20250327_2110.0" vType="car" speedFactor="0.86" vaporized=""/>
    <tripinfo id="flow_route_74_duration_20250327_2110.2" depart="14.00" departLane="380593307#0_0" departPos="85.52" departSpeed="0.00" departDelay="2.00" arrival="139.00" arrivalLane="138002016#0_0" arrivalPos="258.40" arrivalSpeed="16.43" duration="125.00" routeLength="355.58" waitingTime="80.00" waitingCount="1" stopTime="0.00" timeLoss="102.31" rerouteNo="0" devices="tripinfo_flow_route_74_duration_20250327_2110.2" vType="car" speedFactor="1.16" vaporized=""/>
    <tripinfo id="flow_route_75_duration_20250327_2110.4" depart="48.00" departLane="380593307#0_0" departPos="36.03" departSpeed="0.00" departDelay="0.00" arrival="139.00" arrivalLane="-138002002#2_1" arrivalPos="144.43" arrivalSpeed="15.75" duration="91.00" routeLength="312.16" waitingTime="47.00" waitingCount="1" stopTime="0.00" timeLoss="69.97" rerouteNo="0" devices="tripinfo_flow_route_75_duration_20250327_2110.4" vType="car" speedFactor="0.97" vaporized=""/>
    <tripinfo id="flow_route_74_duration_20250327_2110.3" depart="19.00" departLane="380593307#0_0" departPos="14.93" departSpeed="0.00" departDelay="1.00" arrival="140.00" arrivalLane="138002016#0_0" arrivalPos="174.06" arrivalSpeed="14.20" duration="121.00" routeLength="341.82" waitingTime="73.00" waitingCount="1" stopTime="0.00" timeLoss="96.28" rerouteNo="0" devices="tripinfo_flow_route_74_duration_20250327_2110.3" vType="car" speedFactor="0.87" vaporized=""/>
    <tripinfo id="flow_route_74_duration_20250327_2110.5" depart="34.00" departLane="380593307#0_0" departPos="7.39" departSpeed="0.00" departDelay="4.00" arrival="140.00" arrivalLane="138002016#0_0" arrivalPos="94.33" arrivalSpeed="13.07" duration="106.00" routeLength="269.63" waitingTime="63.00" waitingCount="1" stopTime="0.00" timeLoss="88.73" rerouteNo="0" devices="tripinfo_flow_route_74_duration_20250327_2110.5" vType="car" speedFactor="1.03" vaporized=""/>
    <tripinfo id="flow_route_74_duration_20250327_2110.9" depart="54.00" departLane="380593307#0_0" departPos="33.91" departSpeed="0.00" departDelay="0.00" arrival="142.00" arrivalLane="138002016#0_0" arrivalPos="36.50" arrivalSpeed="8.76" duration="88.00" routeLength="185.28" waitingTime="49.00" waitingCount="1" stopTime="0.00" timeLoss="74.75" rerouteNo="0" devices="tripinfo_flow_route_74_duration_20250327_2110.9" vType="car" speedFactor="0.88" vaporized=""/>
    <tripinfo id="flow_route_74_duration_20250327_2110.6" depart="36.00" departLane="380593307#0_0" departPos="102.27" departSpeed="0.00" departDelay="0.00" arrival="149.00" arrivalLane="138002016#0_0" arrivalPos="287.92" arrivalSpeed="16.41" duration="113.00" routeLength="368.34" waitingTime="67.00" waitingCount="1" stopTime="0.00" timeLoss="89.77" rerouteNo="0" devices="tripinfo_flow_route_74_duration_20250327_2110.6" vType="car" speedFactor="1.09" vaporized=""/>
    <tripinfo id="flow_route_74_duration_20250327_2110.8" depart="48.00" departLane="380593307#0_0" departPos="57.78" departSpeed="0.00" departDelay="0.00" arrival="154.00" arrivalLane="138002016#0_0" arrivalPos="298.03" arrivalSpeed="16.47" duration="106.00" routeLength="422.94" waitingTime="55.00" waitingCount="1" stopTime="0.00" timeLoss="79.91" rerouteNo="0" devices="tripinfo_flow_route_74_duration_20250327_2110.8" vType="car" speedFactor="1.02" vaporized=""/>
    <tripinfo id="flow_route_74_duration_20250327_2110.7" depart="43.00" departLane="380593307#0_0" departPos="0.15" departSpeed="0.00" departDelay="1.00" arrival="156.00" arrivalLane="138002016#0_0" arrivalPos="287.59" arrivalSpeed="16.59" duration="113.00" routeLength="470.13" waitingTime="55.00" waitingCount="1" stopTime="0.00" timeLoss="83.41" rerouteNo="0" devices="tripinfo_flow_route_74_duration_20250327_2110.7" vType="car" speedFactor="1.10" vaporized=""/>
    <tripinfo id="flow_route_71_duration_20250327_2110.2" depart="18.00" departLane="1369578052#0_0" departPos="32.99" departSpeed="0.00" departDelay="0.86" arrival="165.00" arrivalLane="138002016#0_0" arrivalPos="88.77" arrivalSpeed="13.70" duration="147.00" routeLength="273.46" waitingTime="107.00" waitingCount="1" stopTime="0.00" timeLoss="126.27" rerouteNo="0" devices="tripinfo_flow_route_71_duration_20250327_2110.2" vType="car" speedFactor="0.83" vaporized=""/>
    <tripinfo id="flow_route_68_duration_20250327_2110.8" depart="54.00" departLane="1253209803#0_0" departPos="72.30" departSpeed="0.00" departDelay="0.67" arrival="167.00" arrivalLane="-138002002#2_0" arrivalPos="145.44" arrivalSpeed="15.45" duration="113.00" routeLength="424.46" waitingTime="63.00" waitingCount="1" stopTime="0.00" timeLoss="86.59" rerouteNo="0" devices="tripinfo_flow_route_68_duration_20250327_2110.8" vType="car" speedFactor="0.94" vaporized=""/>
    <tripinfo id="flow_route_71_duration_20250327_2110.5" depart="43.00" departLane="1369578052#0_0" departPos="121.40" departSpeed="0.00" departDelay="0.15" arrival="170.00" arrivalLane="138002016#0_0" arrivalPos="149.72" arrivalSpeed="16.43" duration="127.00" routeLength="245.99" waitingTime="90.00" waitingCount="1" stopTime="0.00" timeLoss="112.05" rerouteNo="0" devices="tripinfo_flow_route_71_duration_20250327_2110.5" vType="car" speedFactor="1.00" vaporized=""/>