<?xml version="1.0" encoding="UTF-8"?>

<!-- generated on 2025-05-06 21:01:12 by Eclipse SUMO sumo Version 1.20.0
<configuration xmlns:xsi="http://www.w3.org/2001/XMLSchema-instance" xsi:noNamespaceSchemaLocation="http://sumo.dlr.de/xsd/sumoConfiguration.xsd">

    <input>
        <net-file value="osm.net.xml"/>
        <route-files value="xml/routes_sac2_cluster10852700972_12154751993.rou.xml"/>
    </input>

    <output>
        <tripinfo-output value="xml/tripinfo_9777.xml"/>
    </output>

    <traci_server>
        <remote-port value="44373"/>
    </traci_server>

</configuration>
-->

<tripinfos xmlns:xsi="http://www.w3.org/2001/XMLSchema-instance" xsi:noNamespaceSchemaLocation="http://sumo.dlr.de/xsd/tripinfo_file.xsd">
    <tripinfo id="flow_route_61_duration_20250327_2110.0" depart="0.00" departLane="186407684#0_0" departPos="65.67" departSpeed="0.00" departDelay="0.00" arrival="23.00" arrivalLane="1341093416#0_1" arrivalPos="161.76" arrivalSpeed="16.51" duration="23.00" routeLength="210.27" waitingTime="0.00" waitingCount="0" stopTime="0.00" timeLoss="9.77" rerouteNo="0" devices="tripinfo_flow_route_61_duration_20250327_2110.0" vType="car" speedFactor="1.03" vaporized=""/>
    <tripinfo id="flow_route_56_duration_20250327_2110.0" depart="0.00" departLane="1341093415#0_0" departPos="44.11" departSpeed="0.00" departDelay="0.00" arrival="24.00" arrivalLane="409155823_0" arrivalPos="4.00" arrivalSpeed="8.40" duration="24.00" routeLength="164.73" waitingTime="0.00" waitingCount="0" stopTime="0.00" timeLoss="13.08" rerouteNo="0" devices="tripinfo_flow_route_56_duration_20250327_2110.0" vType="car" speedFactor="1.01" vaporized=""/>
    <tripinfo id="flow_route_60_duration_20250327_2110.0" depart="0.00" departLane="186407684#0_0" departPos="48.06" departSpeed="0.00" departDelay="0.00" arrival="25.00" arrivalLane="791826085_0" arrivalPos="160.28" arrivalSpeed="16.16" duration="25.00" routeLength="221.15" waitingTime="0.00" waitingCount="0" stopTime="0.00" timeLoss="10.94" rerouteNo="0" devices="tripinfo_flow_route_60_duration_20250327_2110.0" vType="car" speedFactor="1.08" vaporized=""/>
    <tripinfo id="flow_route_54_duration_20250327_2110.0" depart="0.00" departLane="1341093415#0_0" departPos="7.77" departSpeed="0.00" departDelay="0.00" arrival="38.00" arrivalLane="1341093416#0_1" arrivalPos="244.31" arrivalSpeed="16.18" duration="38.00" routeLength="443.35" waitingTime="0.00" waitingCount="0" stopTime="0.00" timeLoss="11.12" rerouteNo="0" devices="tripinfo_flow_route_54_duration_20250327_2110.0" vType="car" speedFactor="1.06" vaporized=""/>
    <tripinfo id="flow_route_55_duration_20250327_2110.0" depart="0.00" departLane="1341093415#0_0" departPos="132.48" departSpeed="0.00" departDelay="0.00" arrival="45.00" arrivalLane="791826085_0" arrivalPos="232.37" arrivalSpeed="15.49" duration="45.00" routeLength="289.60" waitingTime="6.00" waitingCount="1" stopTime="0.00" timeLoss="25.49" rerouteNo="0" devices="tripinfo_flow_route_55_duration_20250327_2110.0" vType="car" speedFactor="0.94" vaporized=""/>
    <tripinfo id="flow_route_55_duration_20250327_2110.1" depart="30.00" departLane="1341093415#0_0" departPos="112.91" departSpeed="0.00" departDelay="0.00" arrival="46.00" arrivalLane="791826085_0" arrivalPos="15.07" arrivalSpeed="9.31" duration="16.00" routeLength="91.87" waitingTime="0.00" waitingCount="0" stopTime="0.00" timeLoss="9.48" rerouteNo="0" devices="tripinfo_flow_route_55_duration_20250327_2110.1" vType="car" speedFactor="1.09" vaporized=""/>
    <tripinfo id="flow_route_56_duration_20250327_2110.1" depart="30.00" departLane="1341093415#0_0" departPos="167.37" departSpeed="0.00" departDelay="0.00" arrival="46.00" arrivalLane="409155823_0" arrivalPos="45.16" arrivalSpeed="11.06" duration="16.00" routeLength="82.62" waitingTime="0.00" waitingCount="0" stopTime="0.00" timeLoss="9.77" rerouteNo="0" devices="tripinfo_flow_route_56_duration_20250327_2110.1" vType="car" speedFactor="1.03" vaporized=""/>
    <tripinfo id="flow_route_54_duration_20250327_2110.1" depart="20.00" departLane="1341093415#0_0" departPos="10.74" departSpeed="0.00" departDelay="0.00" arrival="53.00" arrivalLane="1341093416#0_1" arrivalPos="155.27" arrivalSpeed="16.55" duration="33.00" routeLength="351.35" waitingTime="0.00" waitingCount="0" stopTime="0.00" timeLoss="10.89" rerouteNo="0" devices="tripinfo_flow_route_54_duration_20250327_2110.1" vType="car" speedFactor="0.89" vaporized=""/>
    <tripinfo id="flow_route_54_duration_20250327_2110.2" depart="40.00" departLane="1341093415#0_0" departPos="136.26" departSpeed="0.00" departDelay="0.00" arrival="55.00" arrivalLane="1341093416#0_0" arrivalPos="8.89" arrivalSpeed="11.49" duration="15.00" routeLength="79.44" waitingTime="0.00" waitingCount="0" stopTime="0.00" timeLoss="9.59" rerouteNo="0" devices="tripinfo_flow_route_54_duration_20250327_2110.2" vType="car" speedFactor="0.99" vaporized=""/>
    <tripinfo id="flow_route_60_duration_20250327_2110.1" depart="10.00" departLane="186407684#0_0" departPos="59.31" departSpeed="0.00" departDelay="0.00" arrival="63.00" arrivalLane="791826085_0" arrivalPos="1.97" arrivalSpeed="6.41" duration="53.00" routeLength="51.59" waitingTime="36.00" waitingCount="1" stopTime="0.00" timeLoss="48.92" rerouteNo="0" devices="tripinfo_flow_route_60_duration_20250327_2110.1" vType="car" speedFactor="0.83" vaporized=""/>
    <tripinfo id="flow_route_61_duration_20250327_2110.2" depart="24.00" departLane="186407684#0_0" departPos="60.25" departSpeed="0.00" departDelay="0.00" arrival="72.00" arrivalLane="1341093416#0_2" arrivalPos="88.28" arrivalSpeed="13.17" duration="48.00" routeLength="138.05" waitingTime="21.00" waitingCount="1" stopTime="0.00" timeLoss="37.95" rerouteNo="0" devices="tripinfo_flow_route_61_duration_20250327_2110.2" vType="car" speedFactor="0.86" vaporized=""/>
    <tripinfo id="flow_route_61_duration_20250327_2110.1" depart="12.00" departLane="186407684#0_0" departPos="39.84" departSpeed="0.00" departDelay="0.00" arrival="74.00" arrivalLane="1341093416#0_1" arrivalPos="127.82" arrivalSpeed="15.92" duration="62.00" routeLength="202.15" waitingTime="30.00" waitingCount="1" stopTime="0.00" timeLoss="49.07" rerouteNo="0" devices="tripinfo_flow_route_61_duration_20250327_2110.1" vType="car" speedFactor="1.05" vaporized=""/>
    <tripinfo id="flow_route_60_duration_20250327_2110.2" depart="20.00" departLane="186407684#0_0" departPos="77.17" departSpeed="0.00" departDelay="0.00" arrival="74.00" arrivalLane="791826085_0" arrivalPos="86.27" arrivalSpeed="12.80" duration="54.00" routeLength="118.03" waitingTime="33.00" waitingCount="1" stopTime="0.00" timeLoss="46.01" rerouteNo="0" devices="tripinfo_flow_route_60_duration_20250327_2110.2" vType="car" speedFactor="0.94" vaporized=""/>
    <tripinfo id="flow_route_60_duration_20250327_2110.3" depart="32.00" departLane="186407684#0_0" departPos="34.95" departSpeed="0.00" departDelay="2.00" arrival="75.00" arrivalLane="791826085_1" arrivalPos="100.14" arrivalSpeed="13.79" duration="43.00" routeLength="174.12" waitingTime="13.00" waitingCount="1" stopTime="0.00" timeLoss="31.85" rerouteNo="0" devices="tripinfo_flow_route_60_duration_20250327_2110.3" vType="car" speedFactor="1.05" vaporized=""/>
    <tripinfo id="flow_route_60_duration_20250327_2110.4" depart="40.00" departLane="186407684#0_0" departPos="14.02" departSpeed="0.00" departDelay="0.00" arrival="76.00" arrivalLane="791826085_0" arrivalPos="98.41" arrivalSpeed="13.57" duration="36.00" routeLength="193.32" waitingTime="4.00" waitingCount="1" stopTime="0.00" timeLoss="23.47" rerouteNo="0" devices="tripinfo_flow_route_60_duration_20250327_2110.4" vType="car" speedFactor="0.93" vaporized=""/>
    <tripinfo id="flow_route_61_duration_20250327_2110.3" depart="36.00" departLane="186407684#0_0" departPos="20.86" departSpeed="0.00" departDelay="0.00" arrival="77.00" arrivalLane="1341093416#0_2" arrivalPos="149.25" arrivalSpeed="16.28" duration="41.00" routeLength="238.40" waitingTime="7.00" waitingCount="1" stopTime="0.00" timeLoss="26.06" rerouteNo="0" devices="tripinfo_flow_route_61_duration_20250327_2110.3" vType="car" speedFactor="1.12" vaporized=""/>
    <tripinfo id="flow_route_60_duration_20250327_2110.5" depart="50.00" departLane="186407684#0_0" departPos="29.20" departSpeed="0.00" departDelay="0.00" arrival="85.00" arrivalLane="791826085_1" arrivalPos="223.42" arrivalSpeed="15.26" duration="35.00" routeLength="303.15" waitingTime="0.00" waitingCount="0" stopTime="0.00" timeLoss="14.99" rerouteNo="0" devices="tripinfo_flow_route_60_duration_20250327_2110.5" vType="car" speedFactor="0.94" vaporized=""/>
    <tripinfo id="flow_route_61_duration_20250327_2110.4" depart="48.00" departLane="186407684#0_0" departPos="2.63" departSpeed="0.00" departDelay="0.00" arrival="86.00" arrivalLane="1341093416#0_2" arrivalPos="262.29" arrivalSpeed="16.39" duration="38.00" routeLength="369.68" waitingTime="0.00" waitingCount="0" stopTime="0.00" timeLoss="13.56" rerouteNo="0" devices="tripinfo_flow_route_61_duration_20250327_2110.4" vType="car" speedFactor="0.88" vaporized=""/>
</tripinfos>
