<?xml version="1.0" encoding="UTF-8"?>

<!-- generated on 2025-05-06 21:08:31 by Eclipse SUMO sumo Version 1.20.0
<configuration xmlns:xsi="http://www.w3.org/2001/XMLSchema-instance" xsi:noNamespaceSchemaLocation="http://sumo.dlr.de/xsd/sumoConfiguration.xsd">

    <input>
        <net-file value="osm.net.xml"/>
        <route-files value="xml/route_rl_cluster10852700972_12154751993_5.rou.xml"/>
    </input>

    <output>
        <tripinfo-output value="xml/tripinfo_rl_cluster10852700972_12154751993_5.xml"/>
    </output>

    <traci_server>
        <remote-port value="36847"/>
    </traci_server>

</configuration>
-->

<tripinfos xmlns:xsi="http://www.w3.org/2001/XMLSchema-instance" xsi:noNamespaceSchemaLocation="http://sumo.dlr.de/xsd/tripinfo_file.xsd">
    <tripinfo id="flow_route_60_duration_20250327_1930.1" depart="4.00" departLane="186407684#0_0" departPos="41.08" departSpeed="0.00" departDelay="1.00" arrival="17.00" arrivalLane="791826085_0" arrivalPos="1.97" arrivalSpeed="10.31" duration="13.00" routeLength="69.82" waitingTime="0.00" waitingCount="0" stopTime="0.00" timeLoss="7.96" rerouteNo="0" devices="tripinfo_flow_route_60_duration_20250327_1930.1" vType="car" speedFactor="0.83" vaporized=""/>
    <tripinfo id="flow_route_61_duration_20250327_1930.0" depart="0.00" departLane="186407684#0_0" departPos="65.67" departSpeed="0.00" departDelay="0.00" arrival="24.00" arrivalLane="1341093416#0_1" arrivalPos="161.76" arrivalSpeed="16.27" duration="24.00" routeLength="210.27" waitingTime="0.00" waitingCount="0" stopTime="0.00" timeLoss="10.10" rerouteNo="0" devices="tripinfo_flow_route_61_duration_20250327_1930.0" vType="car" speedFactor="1.03" vaporized=""/>
    <tripinfo id="flow_route_60_duration_20250327_1930.0" depart="0.00" departLane="186407684#0_0" departPos="48.06" departSpeed="0.00" departDelay="0.00" arrival="25.00" arrivalLane="791826085_0" arrivalPos="160.28" arrivalSpeed="16.26" duration="25.00" routeLength="221.15" waitingTime="0.00" waitingCount="0" stopTime="0.00" timeLoss="10.86" rerouteNo="0" devices="tripinfo_flow_route_60_duration_20250327_1930.0" vType="car" speedFactor="1.08" vaporized=""/>
    <tripinfo id="flow_route_60_duration_20250327_1930.5" depart="15.00" departLane="186407684#0_0" departPos="67.38" departSpeed="0.00" departDelay="0.00" arrival="27.00" arrivalLane="791826085_0" arrivalPos="10.57" arrivalSpeed="9.10" duration="12.00" routeLength="52.13" waitingTime="0.00" waitingCount="0" stopTime="0.00" timeLoss="8.33" rerouteNo="0" devices="tripinfo_flow_route_60_duration_20250327_1930.5" vType="car" speedFactor="1.05" vaporized=""/>
    <tripinfo id="flow_route_60_duration_20250327_1930.3" depart="11.00" departLane="186407684#0_0" departPos="45.21" departSpeed="0.00" departDelay="2.00" arrival="30.00" arrivalLane="791826085_0" arrivalPos="19.65" arrivalSpeed="10.26" duration="19.00" routeLength="83.37" waitingTime="0.00" waitingCount="0" stopTime="0.00" timeLoss="13.00" rerouteNo="0" devices="tripinfo_flow_route_60_duration_20250327_1930.3" vType="car" speedFactor="0.89" vaporized=""/>
    <tripinfo id="flow_route_60_duration_20250327_1930.2" depart="7.00" departLane="186407684#0_0" departPos="23.31" departSpeed="0.00" departDelay="1.00" arrival="34.00" arrivalLane="791826085_1" arrivalPos="147.45" arrivalSpeed="16.12" duration="27.00" routeLength="233.07" waitingTime="0.00" waitingCount="0" stopTime="0.00" timeLoss="12.14" rerouteNo="0" devices="tripinfo_flow_route_60_duration_20250327_1930.2" vType="car" speedFactor="1.05" vaporized=""/>
    <tripinfo id="flow_route_61_duration_20250327_1930.1" depart="15.00" departLane="186407684#0_0" departPos="14.02" departSpeed="0.00" departDelay="0.00" arrival="37.00" arrivalLane="1341093416#0_2" arrivalPos="82.74" arrivalSpeed="16.35" duration="22.00" routeLength="178.74" waitingTime="0.00" waitingCount="0" stopTime="0.00" timeLoss="10.74" rerouteNo="0" devices="tripinfo_flow_route_61_duration_20250327_1930.1" vType="car" speedFactor="1.12" vaporized=""/>
    <tripinfo id="flow_route_56_duration_20250327_1930.0" depart="0.00" departLane="1341093415#0_0" departPos="44.11" departSpeed="0.00" departDelay="0.00" arrival="46.00" arrivalLane="409155823_0" arrivalPos="4.00" arrivalSpeed="6.40" duration="46.00" routeLength="164.73" waitingTime="18.00" waitingCount="1" stopTime="0.00" timeLoss="35.22" rerouteNo="0" devices="tripinfo_flow_route_56_duration_20250327_1930.0" vType="car" speedFactor="1.01" vaporized=""/>
    <tripinfo id="flow_route_60_duration_20250327_1930.4" depart="14.00" departLane="186407684#0_0" departPos="20.86" departSpeed="0.00" departDelay="2.00" arrival="50.00" arrivalLane="791826085_1" arrivalPos="306.25" arrivalSpeed="16.48" duration="36.00" routeLength="394.32" waitingTime="0.00" waitingCount="0" stopTime="0.00" timeLoss="11.36" rerouteNo="0" devices="tripinfo_flow_route_60_duration_20250327_1930.4" vType="car" speedFactor="1.03" vaporized=""/>
    <tripinfo id="flow_route_56_duration_20250327_1930.1" depart="10.00" departLane="1341093415#0_0" departPos="8.23" departSpeed="0.00" departDelay="0.00" arrival="52.00" arrivalLane="409155823_0" arrivalPos="28.34" arrivalSpeed="9.49" duration="42.00" routeLength="224.95" waitingTime="4.00" waitingCount="1" stopTime="0.00" timeLoss="26.82" rerouteNo="0" devices="tripinfo_flow_route_56_duration_20250327_1930.1" vType="car" speedFactor="0.94" vaporized=""/>
    <tripinfo id="flow_route_54_duration_20250327_1930.1" depart="12.00" departLane="1341093415#0_0" departPos="146.92" departSpeed="0.00" departDelay="0.00" arrival="55.00" arrivalLane="1341093416#0_0" arrivalPos="84.19" arrivalSpeed="12.79" duration="43.00" routeLength="144.09" waitingTime="16.00" waitingCount="1" stopTime="0.00" timeLoss="33.87" rerouteNo="0" devices="tripinfo_flow_route_54_duration_20250327_1930.1" vType="car" speedFactor="0.86" vaporized=""/>
    <tripinfo id="flow_route_60_duration_20250327_1930.6" depart="18.00" departLane="186407684#0_0" departPos="2.63" departSpeed="0.00" departDelay="0.00" arrival="55.00" arrivalLane="791826085_1" arrivalPos="311.97" arrivalSpeed="16.08" duration="37.00" routeLength="418.27" waitingTime="0.00" waitingCount="0" stopTime="0.00" timeLoss="10.99" rerouteNo="0" devices="tripinfo_flow_route_60_duration_20250327_1930.6" vType="car" speedFactor="0.99" vaporized=""/>
    <tripinfo id="flow_route_56_duration_20250327_1930.2" depart="20.00" departLane="1341093415#0_0" departPos="59.05" departSpeed="0.00" departDelay="0.00" arrival="56.00" arrivalLane="409155823_0" arrivalPos="60.31" arrivalSpeed="11.67" duration="36.00" routeLength="206.09" waitingTime="1.00" waitingCount="1" stopTime="0.00" timeLoss="22.30" rerouteNo="0" devices="tripinfo_flow_route_56_duration_20250327_1930.2" vType="car" speedFactor="0.93" vaporized=""/>
    <tripinfo id="flow_route_55_duration_20250327_1930.2" depart="24.00" departLane="1341093415#0_0" departPos="101.88" departSpeed="0.00" departDelay="0.00" arrival="57.00" arrivalLane="791826085_0" arrivalPos="86.12" arrivalSpeed="13.36" duration="33.00" routeLength="173.95" waitingTime="1.00" waitingCount="1" stopTime="0.00" timeLoss="20.62" rerouteNo="0" devices="tripinfo_flow_route_55_duration_20250327_1930.2" vType="car" speedFactor="0.94" vaporized=""/>
    <tripinfo id="flow_route_56_duration_20250327_1930.3" depart="31.00" departLane="1341093415#0_0" departPos="103.39" departSpeed="0.00" departDelay="1.00" arrival="58.00" arrivalLane="409155823_0" arrivalPos="52.49" arrivalSpeed="11.76" duration="27.00" routeLength="153.93" waitingTime="0.00" waitingCount="0" stopTime="0.00" timeLoss="16.32" rerouteNo="0" devices="tripinfo_flow_route_56_duration_20250327_1930.3" vType="car" speedFactor="1.01" vaporized=""/>
    <tripinfo id="flow_route_55_duration_20250327_1930.0" depart="0.00" departLane="1341093415#0_0" departPos="132.48" departSpeed="0.00" departDelay="0.00" arrival="63.00" arrivalLane="791826085_0" arrivalPos="232.37" arrivalSpeed="15.26" duration="63.00" routeLength="289.60" waitingTime="24.00" waitingCount="1" stopTime="0.00" timeLoss="43.34" rerouteNo="0" devices="tripinfo_flow_route_55_duration_20250327_1930.0" vType="car" speedFactor="0.94" vaporized=""/>
    <tripinfo id="flow_route_55_duration_20250327_1930.1" depart="12.00" departLane="1341093415#0_0" departPos="158.21" departSpeed="0.00" departDelay="0.00" arrival="63.00" arrivalLane="791826085_0" arrivalPos="206.60" arrivalSpeed="16.28" duration="51.00" routeLength="238.10" waitingTime="21.00" waitingCount="1" stopTime="0.00" timeLoss="35.51" rerouteNo="0" devices="tripinfo_flow_route_55_duration_20250327_1930.1" vType="car" speedFactor="1.09" vaporized=""/>
    <tripinfo id="flow_route_54_duration_20250327_1930.2" depart="24.00" departLane="1341093415#0_0" departPos="29.94" departSpeed="0.00" departDelay="0.00" arrival="63.00" arrivalLane="1341093416#0_2" arrivalPos="264.47" arrivalSpeed="16.39" duration="39.00" routeLength="441.35" waitingTime="0.00" waitingCount="0" stopTime="0.00" timeLoss="12.31" rerouteNo="0" devices="tripinfo_flow_route_54_duration_20250327_1930.2" vType="car" speedFactor="0.94" vaporized=""/>
    <tripinfo id="flow_route_56_duration_20250327_1930.4" depart="40.00" departLane="1341093415#0_0" departPos="32.20" departSpeed="0.00" departDelay="0.00" arrival="63.00" arrivalLane="409155823_0" arrivalPos="7.57" arrivalSpeed="9.95" duration="23.00" routeLength="180.21" waitingTime="0.00" waitingCount="0" stopTime="0.00" timeLoss="10.93" rerouteNo="0" devices="tripinfo_flow_route_56_duration_20250327_1930.4" vType="car" speedFactor="0.93" vaporized=""/>
    <tripinfo id="flow_route_54_duration_20250327_1930.0" depart="0.00" departLane="1341093415#0_0" departPos="7.77" departSpeed="0.00" departDelay="0.00" arrival="65.00" arrivalLane="1341093416#0_1" arrivalPos="244.31" arrivalSpeed="16.50" duration="65.00" routeLength="443.35" waitingTime="14.00" waitingCount="1" stopTime="0.00" timeLoss="38.23" rerouteNo="0" devices="tripinfo_flow_route_54_duration_20250327_1930.0" vType="car" speedFactor="1.06" vaporized=""/>
    <tripinfo id="flow_route_55_duration_20250327_1930.3" depart="37.00" departLane="1341093415#0_0" departPos="11.94" departSpeed="0.00" departDelay="1.00" arrival="66.00" arrivalLane="791826085_0" arrivalPos="49.52" arrivalSpeed="11.31" duration="29.00" routeLength="227.29" waitingTime="0.00" waitingCount="0" stopTime="0.00" timeLoss="13.81" rerouteNo="0" devices="tripinfo_flow_route_55_duration_20250327_1930.3" vType="car" speedFactor="0.92" vaporized=""/>
    <tripinfo id="flow_route_54_duration_20250327_1930.3" depart="36.00" departLane="1341093415#0_0" departPos="49.70" departSpeed="0.00" departDelay="0.00" arrival="68.00" arrivalLane="1341093416#0_0" arrivalPos="175.93" arrivalSpeed="16.37" duration="32.00" routeLength="333.05" waitingTime="0.00" waitingCount="0" stopTime="0.00" timeLoss="11.76" rerouteNo="0" devices="tripinfo_flow_route_54_duration_20250327_1930.3" vType="car" speedFactor="0.87" vaporized=""/>
    <tripinfo id="flow_route_56_duration_20250327_1930.5" depart="50.00" departLane="1341093415#0_0" departPos="111.44" departSpeed="0.00" departDelay="0.00" arrival="75.00" arrivalLane="409155823_0" arrivalPos="85.99" arrivalSpeed="14.86" duration="25.00" routeLength="179.39" waitingTime="0.00" waitingCount="0" stopTime="0.00" timeLoss="12.13" rerouteNo="0" devices="tripinfo_flow_route_56_duration_20250327_1930.5" vType="car" speedFactor="0.97" vaporized=""/>
    <tripinfo id="flow_route_54_duration_20250327_1930.4" depart="50.00" departLane="1341093415#0_0" departPos="53.96" departSpeed="0.00" departDelay="2.00" arrival="80.00" arrivalLane="1341093416#0_0" arrivalPos="168.66" arrivalSpeed="16.14" duration="30.00" routeLength="321.52" waitingTime="0.00" waitingCount="0" stopTime="0.00" timeLoss="10.56" rerouteNo="0" devices="tripinfo_flow_route_54_duration_20250327_1930.4" vType="car" speedFactor="1.17" vaporized=""/>
    <tripinfo id="flow_route_55_duration_20250327_1930.4" depart="50.00" departLane="1341093415#0_0" departPos="18.66" departSpeed="0.00" departDelay="2.00" arrival="83.00" arrivalLane="791826085_0" arrivalPos="127.11" arrivalSpeed="16.36" duration="33.00" routeLength="298.15" waitingTime="0.00" waitingCount="0" stopTime="0.00" timeLoss="13.64" rerouteNo="0" devices="tripinfo_flow_route_55_duration_20250327_1930.4" vType="car" speedFactor="0.99" vaporized=""/>
    <tripinfo id="flow_route_60_duration_20250327_1930.7" depart="22.00" departLane="186407684#0_0" departPos="36.25" departSpeed="0.00" departDelay="1.00" arrival="88.00" arrivalLane="791826085_1" arrivalPos="42.19" arrivalSpeed="9.42" duration="66.00" routeLength="114.87" waitingTime="36.00" waitingCount="1" stopTime="0.00" timeLoss="57.90" rerouteNo="0" devices="tripinfo_flow_route_60_duration_20250327_1930.7" vType="car" speedFactor="0.88" vaporized=""/>
    <tripinfo id="flow_route_60_duration_20250327_1930.12" depart="40.00" departLane="186407684#0_0" departPos="49.98" departSpeed="0.00" departDelay="4.00" arrival="88.00" arrivalLane="791826085_0" arrivalPos="9.08" arrivalSpeed="7.83" duration="48.00" routeLength="68.03" waitingTime="28.00" waitingCount="1" stopTime="0.00" timeLoss="43.67" rerouteNo="0" devices="tripinfo_flow_route_60_duration_20250327_1930.12" vType="car" speedFactor="0.95" vaporized=""/>
    <tripinfo id="flow_route_60_duration_20250327_1930.8" depart="26.00" departLane="186407684#0_0" departPos="7.85" departSpeed="0.00" departDelay="2.00" arrival="93.00" arrivalLane="791826085_1" arrivalPos="72.77" arrivalSpeed="12.39" duration="67.00" routeLength="173.85" waitingTime="32.00" waitingCount="1" stopTime="0.00" timeLoss="56.52" rerouteNo="0" devices="tripinfo_flow_route_60_duration_20250327_1930.8" vType="car" speedFactor="1.16" vaporized=""/>
    <tripinfo id="flow_route_60_duration_20250327_1930.14" depart="42.00" departLane="186407684#0_0" departPos="7.05" departSpeed="0.00" departDelay="0.00" arrival="93.00" arrivalLane="791826085_0" arrivalPos="15.28" arrivalSpeed="9.83" duration="51.00" routeLength="117.16" waitingTime="25.00" waitingCount="1" stopTime="0.00" timeLoss="43.79" rerouteNo="0" devices="tripinfo_flow_route_60_duration_20250327_1930.14" vType="car" speedFactor="1.18" vaporized=""/>
    <tripinfo id="flow_route_60_duration_20250327_1930.11" depart="34.00" departLane="186407684#0_0" departPos="16.16" departSpeed="0.00" departDelay="1.00" arrival="94.00" arrivalLane="791826085_1" arrivalPos="54.92" arrivalSpeed="10.83" duration="60.00" routeLength="147.69" waitingTime="29.00" waitingCount="1" stopTime="0.00" timeLoss="48.99" rerouteNo="0" devices="tripinfo_flow_route_60_duration_20250327_1930.11" vType="car" speedFactor="0.83" vaporized=""/>
    <tripinfo id="flow_route_61_duration_20250327_1930.3" depart="50.00" departLane="186407684#0_0" departPos="2.10" departSpeed="0.00" departDelay="5.00" arrival="95.00" arrivalLane="1341093416#0_2" arrivalPos="96.47" arrivalSpeed="14.59" duration="45.00" routeLength="204.39" waitingTime="9.00" waitingCount="1" stopTime="0.00" timeLoss="31.10" rerouteNo="0" devices="tripinfo_flow_route_61_duration_20250327_1930.3" vType="car" speedFactor="1.01" vaporized=""/>
    <tripinfo id="flow_route_60_duration_20250327_1930.9" depart="27.00" departLane="186407684#0_0" departPos="63.06" departSpeed="0.00" departDelay="0.00" arrival="100.00" arrivalLane="791826085_0" arrivalPos="217.90" arrivalSpeed="16.27" duration="73.00" routeLength="263.76" waitingTime="38.00" waitingCount="1" stopTime="0.00" timeLoss="56.71" rerouteNo="0" devices="tripinfo_flow_route_60_duration_20250327_1930.9" vType="car" speedFactor="1.02" vaporized=""/>
    <tripinfo id="flow_route_60_duration_20250327_1930.13" depart="40.00" departLane="186407684#0_0" departPos="18.26" departSpeed="0.00" departDelay="1.00" arrival="100.00" arrivalLane="791826085_1" arrivalPos="102.36" arrivalSpeed="13.94" duration="60.00" routeLength="193.03" waitingTime="25.00" waitingCount="1" stopTime="0.00" timeLoss="47.85" rerouteNo="0" devices="tripinfo_flow_route_60_duration_20250327_1930.13" vType="car" speedFactor="1.13" vaporized=""/>
    <tripinfo id="flow_route_60_duration_20250327_1930.10" depart="30.00" departLane="186407684#0_0" departPos="27.13" departSpeed="0.00" departDelay="0.00" arrival="102.00" arrivalLane="791826085_0" arrivalPos="225.55" arrivalSpeed="16.00" duration="72.00" routeLength="307.36" waitingTime="34.00" waitingCount="1" stopTime="0.00" timeLoss="52.85" rerouteNo="0" devices="tripinfo_flow_route_60_duration_20250327_1930.10" vType="car" speedFactor="0.97" vaporized=""/>
    <tripinfo id="flow_route_61_duration_20250327_1930.2" depart="30.00" departLane="186407684#0_0" departPos="43.41" departSpeed="0.00" departDelay="0.00" arrival="103.00" arrivalLane="1341093416#0_1" arrivalPos="256.38" arrivalSpeed="16.14" duration="73.00" routeLength="322.99" waitingTime="33.00" waitingCount="1" stopTime="0.00" timeLoss="51.69" rerouteNo="0" devices="tripinfo_flow_route_61_duration_20250327_1930.2" vType="car" speedFactor="0.89" vaporized=""/>
    <tripinfo id="flow_route_60_duration_20250327_1930.16" depart="52.00" departLane="186407684#0_0" departPos="37.46" departSpeed="0.00" departDelay="4.00" arrival="106.00" arrivalLane="791826085_1" arrivalPos="167.25" arrivalSpeed="16.35" duration="54.00" routeLength="238.71" waitingTime="19.00" waitingCount="1" stopTime="0.00" timeLoss="38.90" rerouteNo="0" devices="tripinfo_flow_route_60_duration_20250327_1930.16" vType="car" speedFactor="1.02" vaporized=""/>
    <tripinfo id="flow_route_60_duration_20250327_1930.19" depart="59.00" departLane="186407684#0_0" departPos="8.95" departSpeed="0.00" departDelay="2.00" arrival="106.00" arrivalLane="791826085_0" arrivalPos="134.07" arrivalSpeed="14.84" duration="47.00" routeLength="234.05" waitingTime="12.00" waitingCount="1" stopTime="0.00" timeLoss="31.40" rerouteNo="0" devices="tripinfo_flow_route_60_duration_20250327_1930.19" vType="car" speedFactor="0.90" vaporized=""/>
    <tripinfo id="flow_route_60_duration_20250327_1930.15" depart="47.00" departLane="186407684#0_0" departPos="59.81" departSpeed="0.00" departDelay="2.00" arrival="107.00" arrivalLane="791826085_0" arrivalPos="235.43" arrivalSpeed="16.58" duration="60.00" routeLength="284.54" waitingTime="27.00" waitingCount="1" stopTime="0.00" timeLoss="42.05" rerouteNo="0" devices="tripinfo_flow_route_60_duration_20250327_1930.15" vType="car" speedFactor="1.15" vaporized=""/>
    <tripinfo id="flow_route_60_duration_20250327_1930.17" depart="53.00" departLane="186407684#0_0" departPos="40.17" departSpeed="0.00" departDelay="2.00" arrival="114.00" arrivalLane="791826085_0" arrivalPos="301.64" arrivalSpeed="16.31" duration="61.00" routeLength="370.40" waitingTime="20.00" waitingCount="1" stopTime="0.00" timeLoss="38.13" rerouteNo="0" devices="tripinfo_flow_route_60_duration_20250327_1930.17" vType="car" speedFactor="1.18" vaporized=""/>
    <tripinfo id="flow_route_60_duration_20250327_1930.18" depart="56.00" departLane="186407684#0_0" departPos="26.11" departSpeed="0.00" departDelay="2.00" arrival="115.00" arrivalLane="791826085_1" arrivalPos="284.98" arrivalSpeed="16.59" duration="59.00" routeLength="367.80" waitingTime="14.00" waitingCount="1" stopTime="0.00" timeLoss="35.94" rerouteNo="0" devices="tripinfo_flow_route_60_duration_20250327_1930.18" vType="car" speedFactor="1.10" vaporized=""/>
</tripinfos>
