<?xml version="1.0" encoding="UTF-8"?>

<!-- generated on 2025-05-06 16:33:52 by Eclipse SUMO sumo Version 1.20.0
<configuration xmlns:xsi="http://www.w3.org/2001/XMLSchema-instance" xsi:noNamespaceSchemaLocation="http://sumo.dlr.de/xsd/sumoConfiguration.xsd">

    <input>
        <net-file value="osm.net.xml"/>
        <route-files value="xml/routes_ddpg_cluster_11648745684_256036885_3839031483.rou.xml"/>
    </input>

    <output>
        <tripinfo-output value="xml/tripinfo_42373.xml"/>
    </output>

    <traci_server>
        <remote-port value="55917"/>
    </traci_server>

</configuration>
-->

<tripinfos xmlns:xsi="http://www.w3.org/2001/XMLSchema-instance" xsi:noNamespaceSchemaLocation="http://sumo.dlr.de/xsd/tripinfo_file.xsd">
    <tripinfo id="flow_route_72_duration_20250327_2240.0" depart="0.00" departLane="1369578052#0_0" departPos="161.40" departSpeed="0.00" departDelay="0.00" arrival="15.00" arrivalLane="133342692#0_0" arrivalPos="42.43" arrivalSpeed="11.65" duration="15.00" routeLength="81.12" waitingTime="0.00" waitingCount="0" stopTime="0.00" timeLoss="8.08" rerouteNo="0" devices="tripinfo_flow_route_72_duration_20250327_2240.0" vType="car" speedFactor="0.89" vaporized=""/>
    <tripinfo id="flow_route_68_duration_20250327_2240.0" depart="0.00" departLane="1253209803#0_0" departPos="143.52" departSpeed="0.00" departDelay="0.00" arrival="29.00" arrivalLane="-138002002#2_1" arrivalPos="90.53" arrivalSpeed="16.38" duration="29.00" routeLength="298.33" waitingTime="0.00" waitingCount="0" stopTime="0.00" timeLoss="10.92" rerouteNo="0" devices="tripinfo_flow_route_68_duration_20250327_2240.0" vType="car" speedFactor="1.08" vaporized=""/>
    <tripinfo id="flow_route_68_duration_20250327_2240.1" depart="15.00" departLane="1253209803#0_0" departPos="303.67" departSpeed="0.00" departDelay="0.00" arrival="32.00" arrivalLane="-138002002#2_0" arrivalPos="55.59" arrivalSpeed="12.40" duration="17.00" routeLength="103.24" waitingTime="0.00" waitingCount="0" stopTime="0.00" timeLoss="10.16" rerouteNo="0" devices="tripinfo_flow_route_68_duration_20250327_2240.1" vType="car" speedFactor="1.05" vaporized=""/>
    <tripinfo id="flow_route_65_duration_20250327_2240.0" depart="8.00" departLane="133131666#1_0" departPos="5.26" departSpeed="0.00" departDelay="8.00" arrival="34.00" arrivalLane="138002016#0_2" arrivalPos="14.48" arrivalSpeed="9.80" duration="26.00" routeLength="193.68" waitingTime="0.00" waitingCount="0" stopTime="0.00" timeLoss="13.40" rerouteNo="0" devices="tripinfo_flow_route_65_duration_20250327_2240.0" vType="car" speedFactor="1.01" vaporized=""/>
    <tripinfo id="flow_route_69_duration_20250327_2240.0" depart="0.00" departLane="1253209803#0_0" departPos="179.76" departSpeed="0.00" departDelay="0.00" arrival="38.00" arrivalLane="380585337#0_0" arrivalPos="14.31" arrivalSpeed="16.15" duration="38.00" routeLength="299.43" waitingTime="0.00" waitingCount="0" stopTime="0.00" timeLoss="19.02" rerouteNo="0" devices="tripinfo_flow_route_69_duration_20250327_2240.0" vType="car" speedFactor="1.03" vaporized=""/>
    <tripinfo id="flow_route_63_duration_20250327_2240.1" depart="15.00" departLane="133131666#1_0" departPos="3.53" departSpeed="0.00" departDelay="0.00" arrival="38.00" arrivalLane="133342692#0_0" arrivalPos="5.56" arrivalSpeed="11.27" duration="23.00" routeLength="185.75" waitingTime="0.00" waitingCount="0" stopTime="0.00" timeLoss="11.49" rerouteNo="0" devices="tripinfo_flow_route_63_duration_20250327_2240.1" vType="car" speedFactor="1.03" vaporized=""/>
    <tripinfo id="flow_route_63_duration_20250327_2240.0" depart="0.00" departLane="133131666#1_0" departPos="14.94" departSpeed="0.00" departDelay="0.00" arrival="48.00" arrivalLane="133342692#0_0" arrivalPos="152.76" arrivalSpeed="16.41" duration="48.00" routeLength="321.54" waitingTime="5.00" waitingCount="1" stopTime="0.00" timeLoss="27.83" rerouteNo="0" devices="tripinfo_flow_route_63_duration_20250327_2240.0" vType="car" speedFactor="1.06" vaporized=""/>
    <tripinfo id="flow_route_64_duration_20250327_2240.0" depart="2.00" departLane="133131666#1_0" departPos="6.82" departSpeed="0.00" departDelay="2.00" arrival="48.00" arrivalLane="-138002002#2_0" arrivalPos="131.25" arrivalSpeed="14.55" duration="46.00" routeLength="289.98" waitingTime="4.00" waitingCount="1" stopTime="0.00" timeLoss="25.87" rerouteNo="0" devices="tripinfo_flow_route_64_duration_20250327_2240.0" vType="car" speedFactor="0.94" vaporized=""/>
    <tripinfo id="flow_route_64_duration_20250327_2240.1" depart="20.00" departLane="133131666#1_0" departPos="2.87" departSpeed="0.00" departDelay="0.00" arrival="54.00" arrivalLane="-138002002#2_0" arrivalPos="126.20" arrivalSpeed="15.29" duration="34.00" routeLength="288.87" waitingTime="0.00" waitingCount="0" stopTime="0.00" timeLoss="15.21" rerouteNo="0" devices="tripinfo_flow_route_64_duration_20250327_2240.1" vType="car" speedFactor="0.99" vaporized=""/>
    <tripinfo id="flow_route_63_duration_20250327_2240.2" depart="30.00" departLane="133131666#1_0" departPos="13.24" departSpeed="0.00" departDelay="0.00" arrival="58.00" arrivalLane="133342692#0_0" arrivalPos="98.00" arrivalSpeed="14.28" duration="28.00" routeLength="268.49" waitingTime="0.00" waitingCount="0" stopTime="0.00" timeLoss="9.37" rerouteNo="0" devices="tripinfo_flow_route_63_duration_20250327_2240.2" vType="car" speedFactor="0.88" vaporized=""/>
    <tripinfo id="flow_route_65_duration_20250327_2240.1" depart="25.00" departLane="133131666#1_0" departPos="3.73" departSpeed="0.00" departDelay="5.00" arrival="60.00" arrivalLane="138002016#0_2" arrivalPos="105.47" arrivalSpeed="15.23" duration="35.00" routeLength="286.20" waitingTime="0.00" waitingCount="0" stopTime="0.00" timeLoss="15.37" rerouteNo="0" devices="tripinfo_flow_route_65_duration_20250327_2240.1" vType="car" speedFactor="0.93" vaporized=""/>
    <tripinfo id="flow_route_64_duration_20250327_2240.2" depart="40.00" departLane="133131666#1_0" departPos="4.07" departSpeed="0.00" departDelay="0.00" arrival="67.00" arrivalLane="-138002002#2_0" arrivalPos="31.02" arrivalSpeed="8.94" duration="27.00" routeLength="192.50" waitingTime="0.00" waitingCount="0" stopTime="0.00" timeLoss="13.65" rerouteNo="0" devices="tripinfo_flow_route_64_duration_20250327_2240.2" vType="car" speedFactor="0.97" vaporized=""/>
    <tripinfo id="flow_route_63_duration_20250327_2240.3" depart="46.00" departLane="133131666#1_0" departPos="3.97" departSpeed="0.00" departDelay="1.00" arrival="69.00" arrivalLane="133342692#0_0" arrivalPos="26.03" arrivalSpeed="13.33" duration="23.00" routeLength="205.78" waitingTime="0.00" waitingCount="0" stopTime="0.00" timeLoss="7.97" rerouteNo="0" devices="tripinfo_flow_route_63_duration_20250327_2240.3" vType="car" speedFactor="0.83" vaporized=""/>
    <tripinfo id="flow_route_65_duration_20250327_2240.2" depart="40.00" departLane="133131666#1_0" departPos="14.24" departSpeed="0.00" departDelay="0.00" arrival="88.00" arrivalLane="138002016#0_1" arrivalPos="303.99" arrivalSpeed="14.62" duration="48.00" routeLength="474.21" waitingTime="0.00" waitingCount="0" stopTime="0.00" timeLoss="14.77" rerouteNo="0" devices="tripinfo_flow_route_65_duration_20250327_2240.2" vType="car" speedFactor="0.89" vaporized=""/>
    <tripinfo id="flow_route_75_duration_20250327_2240.0" depart="0.00" departLane="380593307#0_0" departPos="8.02" departSpeed="0.00" departDelay="0.00" arrival="98.00" arrivalLane="-138002002#2_1" arrivalPos="1.11" arrivalSpeed="6.63" duration="98.00" routeLength="196.85" waitingTime="66.00" waitingCount="1" stopTime="0.00" timeLoss="85.44" rerouteNo="0" devices="tripinfo_flow_route_75_duration_20250327_2240.0" vType="car" speedFactor="1.09" vaporized=""/>
    <tripinfo id="flow_route_73_duration_20250327_2240.0" depart="0.00" departLane="380593307#0_0" departPos="55.90" departSpeed="0.00" departDelay="0.00" arrival="111.00" arrivalLane="380585337#0_1" arrivalPos="13.23" arrivalSpeed="15.40" duration="111.00" routeLength="294.01" waitingTime="69.00" waitingCount="1" stopTime="0.00" timeLoss="91.29" rerouteNo="0" devices="tripinfo_flow_route_73_duration_20250327_2240.0" vType="car" speedFactor="0.94" vaporized=""/>
    <tripinfo id="flow_route_74_duration_20250327_2240.3" depart="45.00" departLane="380593307#0_0" departPos="11.63" departSpeed="0.00" departDelay="0.00" arrival="112.00" arrivalLane="138002016#0_0" arrivalPos="88.77" arrivalSpeed="13.26" duration="67.00" routeLength="259.83" waitingTime="27.00" waitingCount="1" stopTime="0.00" timeLoss="48.79" rerouteNo="0" devices="tripinfo_flow_route_74_duration_20250327_2240.3" vType="car" speedFactor="0.92" vaporized=""/>
    <tripinfo id="flow_route_73_duration_20250327_2240.1" depart="30.00" departLane="380593307#0_0" departPos="53.43" departSpeed="0.00" departDelay="0.00" arrival="114.00" arrivalLane="380585337#0_1" arrivalPos="16.21" arrivalSpeed="16.45" duration="84.00" routeLength="299.45" waitingTime="42.00" waitingCount="1" stopTime="0.00" timeLoss="65.30" rerouteNo="0" devices="tripinfo_flow_route_73_duration_20250327_2240.1" vType="car" speedFactor="1.02" vaporized=""/>
    <tripinfo id="flow_route_74_duration_20250327_2240.0" depart="0.00" departLane="380593307#0_0" departPos="118.68" departSpeed="0.00" departDelay="0.00" arrival="116.00" arrivalLane="138002016#0_0" arrivalPos="237.21" arrivalSpeed="14.24" duration="116.00" routeLength="301.22" waitingTime="76.00" waitingCount="1" stopTime="0.00" timeLoss="93.23" rerouteNo="0" devices="tripinfo_flow_route_74_duration_20250327_2240.0" vType="car" speedFactor="0.86" vaporized=""/>
    <tripinfo id="flow_route_74_duration_20250327_2240.1" depart="15.00" departLane="380593307#0_0" departPos="5.18" departSpeed="0.00" departDelay="0.00" arrival="117.00" arrivalLane="138002016#0_1" arrivalPos="243.38" arrivalSpeed="16.13" duration="102.00" routeLength="420.89" waitingTime="53.00" waitingCount="1" stopTime="0.00" timeLoss="75.75" rerouteNo="0" devices="tripinfo_flow_route_74_duration_20250327_2240.1" vType="car" speedFactor="1.12" vaporized=""/>
    <tripinfo id="flow_route_74_duration_20250327_2240.2" depart="30.00" departLane="380593307#0_0" departPos="85.52" departSpeed="0.00" departDelay="0.00" arrival="118.00" arrivalLane="138002016#0_0" arrivalPos="227.80" arrivalSpeed="16.29" duration="88.00" routeLength="324.97" waitingTime="46.00" waitingCount="1" stopTime="0.00" timeLoss="67.03" rerouteNo="0" devices="tripinfo_flow_route_74_duration_20250327_2240.2" vType="car" speedFactor="1.01" vaporized=""/>
    <tripinfo id="flow_route_68_duration_20250327_2240.3" depart="45.00" departLane="1253209803#0_0" departPos="294.63" departSpeed="0.00" departDelay="0.00" arrival="160.00" arrivalLane="-138002002#2_1" arrivalPos="5.13" arrivalSpeed="7.83" duration="115.00" routeLength="61.82" waitingTime="97.00" waitingCount="1" stopTime="0.00" timeLoss="110.87" rerouteNo="0" devices="tripinfo_flow_route_68_duration_20250327_2240.3" vType="car" speedFactor="0.87" vaporized=""/>
    <tripinfo id="flow_route_71_duration_20250327_2240.1" depart="31.00" departLane="1369578052#0_0" departPos="106.92" departSpeed="0.00" departDelay="1.00" arrival="163.00" arrivalLane="138002016#0_1" arrivalPos="28.34" arrivalSpeed="9.20" duration="132.00" routeLength="139.10" waitingTime="102.00" waitingCount="1" stopTime="0.00" timeLoss="123.35" rerouteNo="0" devices="tripinfo_flow_route_71_duration_20250327_2240.1" vType="car" speedFactor="1.16" vaporized=""/>
    <tripinfo id="flow_route_68_duration_20250327_2240.2" depart="30.00" departLane="1253209803#0_0" departPos="219.55" departSpeed="0.00" departDelay="0.00" arrival="165.00" arrivalLane="-138002002#2_0" arrivalPos="44.47" arrivalSpeed="10.85" duration="135.00" routeLength="176.24" waitingTime="103.00" waitingCount="1" stopTime="0.00" timeLoss="123.61" rerouteNo="0" devices="tripinfo_flow_route_68_duration_20250327_2240.2" vType="car" speedFactor="0.94" vaporized=""/>
    <tripinfo id="flow_route_70_duration_20250327_2240.0" depart="0.00" departLane="1253209803#0_0" departPos="83.97" departSpeed="0.00" departDelay="0.00" arrival="166.00" arrivalLane="133342692#0_2" arrivalPos="7.48" arrivalSpeed="6.84" duration="166.00" routeLength="271.18" waitingTime="126.00" waitingCount="2" stopTime="0.00" timeLoss="148.15" rerouteNo="0" devices="tripinfo_flow_route_70_duration_20250327_2240.0" vType="car" speedFactor="0.83" vaporized=""/>
    <tripinfo id="flow_route_71_duration_20250327_2240.0" depart="0.00" departLane="1369578052#0_0" departPos="11.11" departSpeed="0.00" departDelay="0.00" arrival="178.00" arrivalLane="138002016#0_0" arrivalPos="236.62" arrivalSpeed="16.16" duration="178.00" routeLength="443.19" waitingTime="127.00" waitingCount="1" stopTime="0.00" timeLoss="150.86" rerouteNo="0" devices="tripinfo_flow_route_71_duration_20250327_2240.0" vType="car" speedFactor="1.05" vaporized=""/>
    <tripinfo id="flow_route_70_duration_20250327_2240.1" depart="30.00" departLane="1253209803#0_0" departPos="296.83" departSpeed="0.00" departDelay="0.00" arrival="180.00" arrivalLane="133342692#0_2" arrivalPos="139.17" arrivalSpeed="15.43" duration="150.00" routeLength="190.00" waitingTime="117.00" waitingCount="2" stopTime="0.00" timeLoss="136.62" rerouteNo="0" devices="tripinfo_flow_route_70_duration_20250327_2240.1" vType="car" speedFactor="0.94" vaporized=""/>
</tripinfos>
