<?xml version="1.0" encoding="UTF-8"?>

<!-- generated on 2025-05-06 21:08:56 by Eclipse SUMO sumo Version 1.20.0
<configuration xmlns:xsi="http://www.w3.org/2001/XMLSchema-instance" xsi:noNamespaceSchemaLocation="http://sumo.dlr.de/xsd/sumoConfiguration.xsd">

    <input>
        <net-file value="osm.net.xml"/>
        <route-files value="xml/route_static_cluster_11657899598_353811979_6712514804_7.rou.xml"/>
    </input>

    <output>
        <tripinfo-output value="xml/tripinfo_static_cluster_11657899598_353811979_6712514804_7.xml"/>
    </output>

    <traci_server>
        <remote-port value="39189"/>
    </traci_server>

</configuration>
-->

<tripinfos xmlns:xsi="http://www.w3.org/2001/XMLSchema-instance" xsi:noNamespaceSchemaLocation="http://sumo.dlr.de/xsd/tripinfo_file.xsd">
    <tripinfo id="flow_route_136_duration_20250327_2230.0" depart="0.00" departLane="688883939#0_0" departPos="70.95" departSpeed="0.00" departDelay="0.00" arrival="22.00" arrivalLane="186410975#0_1" arrivalPos="11.74" arrivalSpeed="11.21" duration="22.00" routeLength="133.80" waitingTime="1.00" waitingCount="1" stopTime="0.00" timeLoss="11.77" rerouteNo="0" devices="tripinfo_flow_route_136_duration_20250327_2230.0" vType="car" speedFactor="1.01" vaporized=""/>
    <tripinfo id="flow_route_137_duration_20250327_2230.0" depart="0.00" departLane="1310781056_0" departPos="52.86" departSpeed="0.00" departDelay="0.00" arrival="22.00" arrivalLane="714011134#0_0" arrivalPos="51.79" arrivalSpeed="16.36" duration="22.00" routeLength="192.73" waitingTime="0.00" waitingCount="0" stopTime="0.00" timeLoss="9.85" rerouteNo="0" devices="tripinfo_flow_route_137_duration_20250327_2230.0" vType="car" speedFactor="1.08" vaporized=""/>
    <tripinfo id="flow_route_134_duration_20250327_2230.0" depart="0.00" departLane="688883939#0_0" departPos="78.56" departSpeed="0.00" departDelay="0.00" arrival="28.00" arrivalLane="809719540#0_0" arrivalPos="239.32" arrivalSpeed="16.14" duration="28.00" routeLength="300.42" waitingTime="0.00" waitingCount="0" stopTime="0.00" timeLoss="9.69" rerouteNo="0" devices="tripinfo_flow_route_134_duration_20250327_2230.0" vType="car" speedFactor="1.06" vaporized=""/>
    <tripinfo id="flow_route_139_duration_20250327_2230.0" depart="1.00" departLane="1310781056_0" departPos="36.51" departSpeed="0.00" departDelay="1.00" arrival="28.00" arrivalLane="1254157399#1_1" arrivalPos="26.95" arrivalSpeed="10.22" duration="27.00" routeLength="180.27" waitingTime="0.00" waitingCount="0" stopTime="0.00" timeLoss="13.60" rerouteNo="0" devices="tripinfo_flow_route_139_duration_20250327_2230.0" vType="car" speedFactor="0.83" vaporized=""/>
    <tripinfo id="flow_route_138_duration_20250327_2230.0" depart="1.00" departLane="1310781056_0" departPos="99.29" departSpeed="0.00" departDelay="1.00" arrival="35.00" arrivalLane="186410975#0_0" arrivalPos="152.27" arrivalSpeed="11.40" duration="34.00" routeLength="305.80" waitingTime="0.00" waitingCount="0" stopTime="0.00" timeLoss="11.06" rerouteNo="0" devices="tripinfo_flow_route_138_duration_20250327_2230.0" vType="car" speedFactor="1.03" vaporized=""/>
    <tripinfo id="flow_route_135_duration_20250327_2230.0" depart="0.00" departLane="688883939#0_0" departPos="0.64" departSpeed="0.00" departDelay="0.00" arrival="45.00" arrivalLane="1254157399#1_0" arrivalPos="440.36" arrivalSpeed="16.28" duration="45.00" routeLength="573.44" waitingTime="0.00" waitingCount="0" stopTime="0.00" timeLoss="9.40" rerouteNo="0" devices="tripinfo_flow_route_135_duration_20250327_2230.0" vType="car" speedFactor="0.94" vaporized=""/>
    <tripinfo id="flow_route_152_duration_20250327_2230.3" depart="30.00" departLane="31861355#0_0" departPos="594.82" departSpeed="0.00" departDelay="0.00" arrival="47.00" arrivalLane="714011134#0_1" arrivalPos="31.80" arrivalSpeed="11.93" duration="17.00" routeLength="97.87" waitingTime="0.00" waitingCount="0" stopTime="0.00" timeLoss="10.19" rerouteNo="0" devices="tripinfo_flow_route_152_duration_20250327_2230.3" vType="car" speedFactor="0.93" vaporized=""/>
    <tripinfo id="flow_route_152_duration_20250327_2230.0" depart="0.00" departLane="31861355#0_0" departPos="164.48" departSpeed="0.00" departDelay="0.00" arrival="48.00" arrivalLane="714011134#0_1" arrivalPos="26.08" arrivalSpeed="11.58" duration="48.00" routeLength="522.49" waitingTime="0.00" waitingCount="0" stopTime="0.00" timeLoss="12.45" rerouteNo="0" devices="tripinfo_flow_route_152_duration_20250327_2230.0" vType="car" speedFactor="0.89" vaporized=""/>
    <tripinfo id="flow_route_136_duration_20250327_2230.1" depart="15.00" departLane="688883939#0_0" departPos="32.37" departSpeed="0.00" departDelay="0.00" arrival="49.00" arrivalLane="186410975#0_1" arrivalPos="132.40" arrivalSpeed="11.86" duration="34.00" routeLength="293.05" waitingTime="0.00" waitingCount="0" stopTime="0.00" timeLoss="11.54" rerouteNo="0" devices="tripinfo_flow_route_136_duration_20250327_2230.1" vType="car" speedFactor="1.09" vaporized=""/>
    <tripinfo id="flow_route_152_duration_20250327_2230.2" depart="22.00" departLane="31861355#0_0" departPos="338.46" departSpeed="0.00" departDelay="2.00" arrival="58.00" arrivalLane="714011134#0_1" arrivalPos="98.97" arrivalSpeed="16.12" duration="36.00" routeLength="421.39" waitingTime="0.00" waitingCount="0" stopTime="0.00" timeLoss="10.56" rerouteNo="0" devices="tripinfo_flow_route_152_duration_20250327_2230.2" vType="car" speedFactor="1.05" vaporized=""/>
    <tripinfo id="flow_route_151_duration_20250327_2230.0" depart="0.00" departLane="31861355#0_0" departPos="352.12" departSpeed="0.00" departDelay="0.00" arrival="68.00" arrivalLane="186410975#0_0" arrivalPos="191.84" arrivalSpeed="11.23" duration="68.00" routeLength="566.94" waitingTime="5.00" waitingCount="1" stopTime="0.00" timeLoss="28.08" rerouteNo="0" devices="tripinfo_flow_route_151_duration_20250327_2230.0" vType="car" speedFactor="1.05" vaporized=""/>
    <tripinfo id="flow_route_153_duration_20250327_2230.0" depart="0.00" departLane="31861355#0_0" departPos="37.47" departSpeed="0.00" departDelay="0.00" arrival="69.00" arrivalLane="809719540#0_0" arrivalPos="146.46" arrivalSpeed="15.29" duration="69.00" routeLength="740.10" waitingTime="0.00" waitingCount="0" stopTime="0.00" timeLoss="19.96" rerouteNo="0" devices="tripinfo_flow_route_153_duration_20250327_2230.0" vType="car" speedFactor="0.94" vaporized=""/>
    <tripinfo id="flow_route_138_duration_20250327_2230.2" depart="40.00" departLane="1310781056_0" departPos="37.57" departSpeed="0.00" departDelay="0.00" arrival="82.00" arrivalLane="186410975#0_0" arrivalPos="7.70" arrivalSpeed="9.43" duration="42.00" routeLength="222.95" waitingTime="6.00" waitingCount="1" stopTime="0.00" timeLoss="27.74" rerouteNo="0" devices="tripinfo_flow_route_138_duration_20250327_2230.2" vType="car" speedFactor="0.88" vaporized=""/>
    <tripinfo id="flow_route_136_duration_20250327_2230.2" depart="30.00" departLane="688883939#0_0" departPos="80.60" departSpeed="0.00" departDelay="0.00" arrival="83.00" arrivalLane="186410975#0_1" arrivalPos="61.10" arrivalSpeed="12.06" duration="53.00" routeLength="173.52" waitingTime="24.00" waitingCount="1" stopTime="0.00" timeLoss="39.96" rerouteNo="0" devices="tripinfo_flow_route_136_duration_20250327_2230.2" vType="car" speedFactor="1.12" vaporized=""/>
    <tripinfo id="flow_route_136_duration_20250327_2230.3" depart="45.00" departLane="688883939#0_0" departPos="43.37" departSpeed="0.00" departDelay="0.00" arrival="84.00" arrivalLane="186410975#0_1" arrivalPos="32.36" arrivalSpeed="10.40" duration="39.00" routeLength="182.01" waitingTime="6.00" waitingCount="1" stopTime="0.00" timeLoss="24.29" rerouteNo="0" devices="tripinfo_flow_route_136_duration_20250327_2230.3" vType="car" speedFactor="0.94" vaporized=""/>
    <tripinfo id="flow_route_138_duration_20250327_2230.1" depart="20.00" departLane="1310781056_0" departPos="93.48" departSpeed="0.00" departDelay="0.00" arrival="94.00" arrivalLane="186410975#0_0" arrivalPos="163.51" arrivalSpeed="11.20" duration="74.00" routeLength="322.85" waitingTime="28.00" waitingCount="1" stopTime="0.00" timeLoss="48.96" rerouteNo="0" devices="tripinfo_flow_route_138_duration_20250327_2230.1" vType="car" speedFactor="1.03" vaporized=""/>
    <tripinfo id="flow_route_152_duration_20250327_2230.1" depart="10.00" departLane="31861355#0_0" departPos="28.73" departSpeed="0.00" departDelay="0.00" arrival="115.00" arrivalLane="714011134#0_1" arrivalPos="72.05" arrivalSpeed="13.20" duration="105.00" routeLength="704.20" waitingTime="35.00" waitingCount="1" stopTime="0.00" timeLoss="55.09" rerouteNo="0" devices="tripinfo_flow_route_152_duration_20250327_2230.1" vType="car" speedFactor="0.86" vaporized=""/>
    <tripinfo id="flow_route_151_duration_20250327_2230.1" depart="30.00" departLane="31861355#0_0" departPos="98.93" departSpeed="0.00" departDelay="0.00" arrival="116.00" arrivalLane="186410975#0_0" arrivalPos="8.37" arrivalSpeed="10.92" duration="86.00" routeLength="636.64" waitingTime="21.00" waitingCount="1" stopTime="0.00" timeLoss="46.66" rerouteNo="0" devices="tripinfo_flow_route_151_duration_20250327_2230.1" vType="car" speedFactor="0.99" vaporized=""/>
    <tripinfo id="flow_route_152_duration_20250327_2230.4" depart="40.00" departLane="31861355#0_0" departPos="80.45" departSpeed="0.00" departDelay="0.00" arrival="117.00" arrivalLane="714011134#0_1" arrivalPos="72.20" arrivalSpeed="12.57" duration="77.00" routeLength="652.63" waitingTime="13.00" waitingCount="1" stopTime="0.00" timeLoss="34.97" rerouteNo="0" devices="tripinfo_flow_route_152_duration_20250327_2230.4" vType="car" speedFactor="0.94" vaporized=""/>
    <tripinfo id="flow_route_152_duration_20250327_2230.5" depart="50.00" departLane="31861355#0_0" departPos="164.20" departSpeed="0.00" departDelay="0.00" arrival="121.00" arrivalLane="714011134#0_1" arrivalPos="101.65" arrivalSpeed="15.60" duration="71.00" routeLength="598.33" waitingTime="11.00" waitingCount="1" stopTime="0.00" timeLoss="34.12" rerouteNo="0" devices="tripinfo_flow_route_152_duration_20250327_2230.5" vType="car" speedFactor="1.16" vaporized=""/>
</tripinfos>
