<?xml version="1.0" encoding="UTF-8"?>

<!-- generated on 2025-05-06 21:07:45 by Eclipse SUMO sumo Version 1.20.0
<configuration xmlns:xsi="http://www.w3.org/2001/XMLSchema-instance" xsi:noNamespaceSchemaLocation="http://sumo.dlr.de/xsd/sumoConfiguration.xsd">

    <input>
        <net-file value="osm.net.xml"/>
        <route-files value="xml/route_static_cluster_11644940323_11644940324_3828703845_0.rou.xml"/>
    </input>

    <output>
        <tripinfo-output value="xml/tripinfo_static_cluster_11644940323_11644940324_3828703845_0.xml"/>
    </output>

    <traci_server>
        <remote-port value="60463"/>
    </traci_server>

</configuration>
-->

<tripinfos xmlns:xsi="http://www.w3.org/2001/XMLSchema-instance" xsi:noNamespaceSchemaLocation="http://sumo.dlr.de/xsd/tripinfo_file.xsd">
    <tripinfo id="flow_route_3_duration_20250327_1910.0" depart="0.00" departLane="1318793173#0_0" departPos="80.53" departSpeed="0.00" departDelay="0.00" arrival="19.00" arrivalLane="291974733#0_1" arrivalPos="66.76" arrivalSpeed="13.99" duration="19.00" routeLength="123.20" waitingTime="0.00" waitingCount="0" stopTime="0.00" timeLoss="10.27" rerouteNo="0" devices="tripinfo_flow_route_3_duration_20250327_1910.0" vType="car" speedFactor="0.94" vaporized=""/>
    <tripinfo id="flow_route_16_duration_20250327_1910.0" depart="0.00" departLane="137406408#0_0" departPos="52.27" departSpeed="0.00" departDelay="0.00" arrival="20.00" arrivalLane="133126040#0_0" arrivalPos="80.39" arrivalSpeed="14.88" duration="20.00" routeLength="149.31" waitingTime="0.00" waitingCount="0" stopTime="0.00" timeLoss="10.66" rerouteNo="0" devices="tripinfo_flow_route_16_duration_20250327_1910.0" vType="car" speedFactor="1.05" vaporized=""/>
    <tripinfo id="flow_route_2_duration_20250327_1910.2" depart="4.00" departLane="1318793173#0_0" departPos="95.93" departSpeed="0.00" departDelay="2.67" arrival="21.00" arrivalLane="189835257_0" arrivalPos="36.00" arrivalSpeed="13.65" duration="17.00" routeLength="120.01" waitingTime="0.00" waitingCount="0" stopTime="0.00" timeLoss="7.87" rerouteNo="0" devices="tripinfo_flow_route_2_duration_20250327_1910.2" vType="car" speedFactor="0.86" vaporized=""/>
    <tripinfo id="flow_route_17_duration_20250327_1910.0" depart="0.00" departLane="137406408#0_0" departPos="24.41" departSpeed="0.00" departDelay="0.00" arrival="23.00" arrivalLane="1254771874#0_0" arrivalPos="63.27" arrivalSpeed="16.26" duration="23.00" routeLength="182.06" waitingTime="0.00" waitingCount="0" stopTime="0.00" timeLoss="10.29" rerouteNo="0" devices="tripinfo_flow_route_17_duration_20250327_1910.0" vType="car" speedFactor="0.89" vaporized=""/>
    <tripinfo id="flow_route_2_duration_20250327_1910.1" depart="1.00" departLane="1318793173#0_0" departPos="34.79" departSpeed="0.00" departDelay="0.33" arrival="23.00" arrivalLane="189835257_0" arrivalPos="3.17" arrivalSpeed="12.11" duration="22.00" routeLength="148.32" waitingTime="0.00" waitingCount="0" stopTime="0.00" timeLoss="11.12" rerouteNo="0" devices="tripinfo_flow_route_2_duration_20250327_1910.1" vType="car" speedFactor="0.94" vaporized=""/>
    <tripinfo id="flow_route_2_duration_20250327_1910.0" depart="0.00" departLane="1318793173#0_0" departPos="58.93" departSpeed="0.00" departDelay="0.00" arrival="24.00" arrivalLane="189835257_0" arrivalPos="46.92" arrivalSpeed="13.41" duration="24.00" routeLength="167.93" waitingTime="0.00" waitingCount="0" stopTime="0.00" timeLoss="13.08" rerouteNo="0" devices="tripinfo_flow_route_2_duration_20250327_1910.0" vType="car" speedFactor="1.06" vaporized=""/>
    <tripinfo id="flow_route_2_duration_20250327_1910.3" depart="5.00" departLane="1318793173#0_0" departPos="25.58" departSpeed="0.00" departDelay="3.00" arrival="26.00" arrivalLane="189835257_0" arrivalPos="2.43" arrivalSpeed="14.27" duration="21.00" routeLength="156.79" waitingTime="0.00" waitingCount="0" stopTime="0.00" timeLoss="10.60" rerouteNo="0" devices="tripinfo_flow_route_2_duration_20250327_1910.3" vType="car" speedFactor="1.09" vaporized=""/>
    <tripinfo id="flow_route_16_duration_20250327_1910.1" depart="7.00" departLane="137406408#0_0" departPos="11.94" departSpeed="0.00" departDelay="0.33" arrival="28.00" arrivalLane="133126040#0_0" arrivalPos="74.10" arrivalSpeed="15.11" duration="21.00" routeLength="183.35" waitingTime="0.00" waitingCount="0" stopTime="0.00" timeLoss="9.21" rerouteNo="0" devices="tripinfo_flow_route_16_duration_20250327_1910.1" vType="car" speedFactor="0.94" vaporized=""/>
    <tripinfo id="flow_route_2_duration_20250327_1910.4" depart="5.00" departLane="1318793173#0_0" departPos="3.50" departSpeed="0.00" departDelay="2.34" arrival="29.00" arrivalLane="189835257_0" arrivalPos="16.17" arrivalSpeed="14.40" duration="24.00" routeLength="192.61" waitingTime="0.00" waitingCount="0" stopTime="0.00" timeLoss="11.56" rerouteNo="0" devices="tripinfo_flow_route_2_duration_20250327_1910.4" vType="car" speedFactor="1.03" vaporized=""/>
    <tripinfo id="flow_route_9_duration_20250327_1910.0" depart="0.00" departLane="1318793173#0_0" departPos="0.65" departSpeed="0.00" departDelay="0.00" arrival="35.00" arrivalLane="1254771874#0_1" arrivalPos="11.63" arrivalSpeed="8.90" duration="35.00" routeLength="169.44" waitingTime="5.00" waitingCount="1" stopTime="0.00" timeLoss="23.55" rerouteNo="0" devices="tripinfo_flow_route_9_duration_20250327_1910.0" vType="car" speedFactor="1.01" vaporized=""/>
    <tripinfo id="flow_route_15_duration_20250327_1910.0" depart="1.00" departLane="1252820503#0_0" departPos="129.63" departSpeed="0.00" departDelay="1.00" arrival="41.00" arrivalLane="133126040#0_1" arrivalPos="4.72" arrivalSpeed="6.93" duration="40.00" routeLength="54.27" waitingTime="22.00" waitingCount="1" stopTime="0.00" timeLoss="35.93" rerouteNo="0" devices="tripinfo_flow_route_15_duration_20250327_1910.0" vType="car" speedFactor="0.83" vaporized=""/>
    <tripinfo id="flow_route_2_duration_20250327_1910.9" depart="25.00" departLane="1318793173#0_0" departPos="94.62" departSpeed="0.00" departDelay="19.01" arrival="41.00" arrivalLane="189835257_0" arrivalPos="8.38" arrivalSpeed="11.67" duration="16.00" routeLength="93.70" waitingTime="0.00" waitingCount="0" stopTime="0.00" timeLoss="8.25" rerouteNo="0" devices="tripinfo_flow_route_2_duration_20250327_1910.9" vType="car" speedFactor="0.88" vaporized=""/>
    <tripinfo id="flow_route_13_duration_20250327_1910.0" depart="0.00" departLane="1252820503#0_0" departPos="99.64" departSpeed="0.00" departDelay="0.00" arrival="43.00" arrivalLane="291974733#0_0" arrivalPos="46.05" arrivalSpeed="9.13" duration="43.00" routeLength="103.57" waitingTime="20.00" waitingCount="1" stopTime="0.00" timeLoss="35.55" rerouteNo="0" devices="tripinfo_flow_route_13_duration_20250327_1910.0" vType="car" speedFactor="1.08" vaporized=""/>
    <tripinfo id="flow_route_13_duration_20250327_1910.1" depart="9.00" departLane="1252820503#0_0" departPos="84.63" departSpeed="0.00" departDelay="0.43" arrival="44.00" arrivalLane="291974733#0_0" arrivalPos="20.91" arrivalSpeed="7.82" duration="35.00" routeLength="93.44" waitingTime="11.00" waitingCount="1" stopTime="0.00" timeLoss="28.69" rerouteNo="0" devices="tripinfo_flow_route_13_duration_20250327_1910.1" vType="car" speedFactor="0.97" vaporized=""/>
    <tripinfo id="flow_route_2_duration_20250327_1910.8" depart="21.00" departLane="1318793173#0_0" departPos="66.48" departSpeed="0.00" departDelay="15.67" arrival="45.00" arrivalLane="189835257_0" arrivalPos="40.26" arrivalSpeed="14.31" duration="24.00" routeLength="153.72" waitingTime="0.00" waitingCount="0" stopTime="0.00" timeLoss="12.67" rerouteNo="0" devices="tripinfo_flow_route_2_duration_20250327_1910.8" vType="car" speedFactor="0.93" vaporized=""/>
    <tripinfo id="flow_route_2_duration_20250327_1910.7" depart="15.00" departLane="1318793173#0_0" departPos="30.13" departSpeed="0.00" departDelay="10.34" arrival="46.00" arrivalLane="189835257_0" arrivalPos="28.66" arrivalSpeed="14.14" duration="31.00" routeLength="178.47" waitingTime="0.00" waitingCount="0" stopTime="0.00" timeLoss="18.97" rerouteNo="0" devices="tripinfo_flow_route_2_duration_20250327_1910.7" vType="car" speedFactor="0.99" vaporized=""/>
    <tripinfo id="flow_route_2_duration_20250327_1910.5" depart="15.00" departLane="1318793173#0_0" departPos="16.41" departSpeed="0.00" departDelay="11.67" arrival="49.00" arrivalLane="189835257_0" arrivalPos="49.45" arrivalSpeed="15.46" duration="34.00" routeLength="212.98" waitingTime="0.00" waitingCount="0" stopTime="0.00" timeLoss="19.88" rerouteNo="0" devices="tripinfo_flow_route_2_duration_20250327_1910.5" vType="car" speedFactor="1.05" vaporized=""/>
    <tripinfo id="flow_route_2_duration_20250327_1910.6" depart="15.00" departLane="1318793173#0_0" departPos="3.01" departSpeed="0.00" departDelay="11.00" arrival="50.00" arrivalLane="189835257_0" arrivalPos="43.41" arrivalSpeed="15.53" duration="35.00" routeLength="220.34" waitingTime="0.00" waitingCount="0" stopTime="0.00" timeLoss="20.70" rerouteNo="0" devices="tripinfo_flow_route_2_duration_20250327_1910.6" vType="car" speedFactor="1.12" vaporized=""/>
    <tripinfo id="flow_route_13_duration_20250327_1910.2" depart="18.00" departLane="1252820503#0_0" departPos="26.75" departSpeed="0.00" departDelay="0.86" arrival="50.00" arrivalLane="291974733#0_0" arrivalPos="53.14" arrivalSpeed="11.04" duration="32.00" routeLength="183.55" waitingTime="0.00" waitingCount="0" stopTime="0.00" timeLoss="19.49" rerouteNo="0" devices="tripinfo_flow_route_13_duration_20250327_1910.2" vType="car" speedFactor="1.10" vaporized=""/>
    <tripinfo id="flow_route_13_duration_20250327_1910.3" depart="27.00" departLane="1252820503#0_0" departPos="43.87" departSpeed="0.00" departDelay="1.29" arrival="52.00" arrivalLane="291974733#0_0" arrivalPos="39.83" arrivalSpeed="10.33" duration="25.00" routeLength="153.12" waitingTime="0.00" waitingCount="0" stopTime="0.00" timeLoss="14.60" rerouteNo="0" devices="tripinfo_flow_route_13_duration_20250327_1910.3" vType="car" speedFactor="1.02" vaporized=""/>
    <tripinfo id="flow_route_15_duration_20250327_1910.1" depart="31.00" departLane="1252820503#0_0" departPos="22.73" departSpeed="0.00" departDelay="1.00" arrival="53.00" arrivalLane="133126040#0_1" arrivalPos="15.27" arrivalSpeed="15.72" duration="22.00" routeLength="171.71" waitingTime="0.00" waitingCount="0" stopTime="0.00" timeLoss="10.72" rerouteNo="0" devices="tripinfo_flow_route_15_duration_20250327_1910.1" vType="car" speedFactor="1.02" vaporized=""/>
    <tripinfo id="flow_route_14_duration_20250327_1910.0" depart="0.00" departLane="1252820503#0_0" departPos="69.02" departSpeed="0.00" departDelay="0.00" arrival="57.00" arrivalLane="1254771874#0_0" arrivalPos="150.80" arrivalSpeed="16.51" duration="57.00" routeLength="291.67" waitingTime="17.00" waitingCount="1" stopTime="0.00" timeLoss="38.77" rerouteNo="0" devices="tripinfo_flow_route_14_duration_20250327_1910.0" vType="car" speedFactor="1.03" vaporized=""/>
    <tripinfo id="flow_route_2_duration_20250327_1910.16" depart="41.00" departLane="1318793173#0_0" departPos="107.72" departSpeed="0.00" departDelay="30.34" arrival="58.00" arrivalLane="189835257_0" arrivalPos="35.18" arrivalSpeed="12.93" duration="17.00" routeLength="107.41" waitingTime="0.00" waitingCount="0" stopTime="0.00" timeLoss="8.48" rerouteNo="0" devices="tripinfo_flow_route_2_duration_20250327_1910.16" vType="car" speedFactor="0.87" vaporized=""/>
    <tripinfo id="flow_route_2_duration_20250327_1910.13" depart="40.00" departLane="1318793173#0_0" departPos="98.25" departSpeed="0.00" departDelay="31.34" arrival="59.00" arrivalLane="189835257_0" arrivalPos="13.91" arrivalSpeed="11.37" duration="19.00" routeLength="95.59" waitingTime="0.00" waitingCount="0" stopTime="0.00" timeLoss="11.97" rerouteNo="0" devices="tripinfo_flow_route_2_duration_20250327_1910.13" vType="car" speedFactor="1.01" vaporized=""/>
    <tripinfo id="flow_route_2_duration_20250327_1910.12" depart="34.00" departLane="1318793173#0_0" departPos="64.05" departSpeed="0.00" departDelay="26.01" arrival="61.00" arrivalLane="189835257_0" arrivalPos="21.66" arrivalSpeed="12.26" duration="27.00" routeLength="137.55" waitingTime="0.00" waitingCount="0" stopTime="0.00" timeLoss="18.09" rerouteNo="0" devices="tripinfo_flow_route_2_duration_20250327_1910.12" vType="car" speedFactor="1.02" vaporized=""/>
    <tripinfo id="flow_route_2_duration_20250327_1910.11" depart="30.00" departLane="1318793173#0_0" departPos="40.16" departSpeed="0.00" departDelay="22.67" arrival="62.00" arrivalLane="189835257_0" arrivalPos="6.60" arrivalSpeed="12.08" duration="32.00" routeLength="146.38" waitingTime="0.00" waitingCount="0" stopTime="0.00" timeLoss="22.49" rerouteNo="0" devices="tripinfo_flow_route_2_duration_20250327_1910.11" vType="car" speedFactor="1.16" vaporized=""/>
    <tripinfo id="flow_route_2_duration_20250327_1910.10" depart="28.00" departLane="1318793173#0_0" departPos="10.97" departSpeed="0.00" departDelay="21.34" arrival="63.00" arrivalLane="189835257_0" arrivalPos="1.57" arrivalSpeed="11.90" duration="35.00" routeLength="170.54" waitingTime="0.00" waitingCount="0" stopTime="0.00" timeLoss="23.12" rerouteNo="0" devices="tripinfo_flow_route_2_duration_20250327_1910.10" vType="car" speedFactor="0.94" vaporized=""/>
    <tripinfo id="flow_route_13_duration_20250327_1910.4" depart="38.00" departLane="1252820503#0_0" departPos="50.17" departSpeed="0.00" departDelay="3.72" arrival="64.00" arrivalLane="291974733#0_0" arrivalPos="60.07" arrivalSpeed="10.75" duration="26.00" routeLength="167.07" waitingTime="0.00" waitingCount="0" stopTime="0.00" timeLoss="14.80" rerouteNo="0" devices="tripinfo_flow_route_13_duration_20250327_1910.4" vType="car" speedFactor="0.94" vaporized=""/>
    <tripinfo id="flow_route_2_duration_20250327_1910.14" depart="40.00" departLane="1318793173#0_0" departPos="44.51" departSpeed="0.00" departDelay="30.68" arrival="66.00" arrivalLane="189835257_0" arrivalPos="12.71" arrivalSpeed="12.93" duration="26.00" routeLength="148.14" waitingTime="0.00" waitingCount="0" stopTime="0.00" timeLoss="15.08" rerouteNo="0" devices="tripinfo_flow_route_2_duration_20250327_1910.14" vType="car" speedFactor="0.89" vaporized=""/>
    <tripinfo id="flow_route_14_duration_20250327_1910.1" depart="30.00" departLane="1252820503#0_0" departPos="6.31" departSpeed="0.00" departDelay="0.00" arrival="67.00" arrivalLane="1254771874#0_0" arrivalPos="182.33" arrivalSpeed="16.54" duration="37.00" routeLength="385.90" waitingTime="0.00" waitingCount="0" stopTime="0.00" timeLoss="12.88" rerouteNo="0" devices="tripinfo_flow_route_14_duration_20250327_1910.1" vType="car" speedFactor="1.12" vaporized=""/>
    <tripinfo id="flow_route_2_duration_20250327_1910.17" depart="45.00" departLane="1318793173#0_0" departPos="39.61" departSpeed="0.00" departDelay="33.68" arrival="69.00" arrivalLane="189835257_0" arrivalPos="31.40" arrivalSpeed="14.26" duration="24.00" routeLength="171.73" waitingTime="0.00" waitingCount="0" stopTime="0.00" timeLoss="11.88" rerouteNo="0" devices="tripinfo_flow_route_2_duration_20250327_1910.17" vType="car" speedFactor="0.92" vaporized=""/>
    <tripinfo id="flow_route_16_duration_20250327_1910.2" depart="14.00" departLane="137406408#0_0" departPos="16.92" departSpeed="0.00" departDelay="0.67" arrival="70.00" arrivalLane="133126040#0_1" arrivalPos="18.21" arrivalSpeed="8.29" duration="56.00" routeLength="122.48" waitingTime="29.00" waitingCount="1" stopTime="0.00" timeLoss="48.49" rerouteNo="0" devices="tripinfo_flow_route_16_duration_20250327_1910.2" vType="car" speedFactor="1.15" vaporized=""/>
    <tripinfo id="flow_route_16_duration_20250327_1910.3" depart="20.00" departLane="137406408#0_0" departPos="62.64" departSpeed="0.00" departDelay="0.00" arrival="72.00" arrivalLane="133126040#0_0" arrivalPos="31.37" arrivalSpeed="9.36" duration="52.00" routeLength="89.92" waitingTime="30.00" waitingCount="1" stopTime="0.00" timeLoss="46.38" rerouteNo="0" devices="tripinfo_flow_route_16_duration_20250327_1910.3" vType="car" speedFactor="1.09" vaporized=""/>
    <tripinfo id="flow_route_16_duration_20250327_1910.7" depart="47.00" departLane="137406408#0_0" departPos="21.02" departSpeed="0.00" departDelay="0.34" arrival="72.00" arrivalLane="133126040#0_2" arrivalPos="10.57" arrivalSpeed="8.34" duration="25.00" routeLength="110.74" waitingTime="0.00" waitingCount="0" stopTime="0.00" timeLoss="17.43" rerouteNo="0" devices="tripinfo_flow_route_16_duration_20250327_1910.7" vType="car" speedFactor="0.92" vaporized=""/>
    <tripinfo id="flow_route_2_duration_20250327_1910.15" depart="40.00" departLane="1318793173#0_0" departPos="12.36" departSpeed="0.00" departDelay="30.01" arrival="73.00" arrivalLane="189835257_0" arrivalPos="42.74" arrivalSpeed="13.73" duration="33.00" routeLength="210.33" waitingTime="0.00" waitingCount="0" stopTime="0.00" timeLoss="16.18" rerouteNo="0" devices="tripinfo_flow_route_2_duration_20250327_1910.15" vType="car" speedFactor="0.83" vaporized=""/>
    <tripinfo id="flow_route_2_duration_20250327_1910.18" depart="46.00" departLane="1318793173#0_0" departPos="13.99" departSpeed="0.00" departDelay="34.01" arrival="74.00" arrivalLane="189835257_0" arrivalPos="36.42" arrivalSpeed="14.42" duration="28.00" routeLength="202.37" waitingTime="0.00" waitingCount="0" stopTime="0.00" timeLoss="14.03" rerouteNo="0" devices="tripinfo_flow_route_2_duration_20250327_1910.18" vType="car" speedFactor="0.95" vaporized=""/>
    <tripinfo id="flow_route_16_duration_20250327_1910.4" depart="27.00" departLane="137406408#0_0" departPos="37.94" departSpeed="0.00" departDelay="0.34" arrival="74.00" arrivalLane="133126040#0_1" arrivalPos="62.05" arrivalSpeed="12.14" duration="47.00" routeLength="145.29" waitingTime="17.00" waitingCount="1" stopTime="0.00" timeLoss="38.04" rerouteNo="0" devices="tripinfo_flow_route_16_duration_20250327_1910.4" vType="car" speedFactor="1.00" vaporized=""/>
    <tripinfo id="flow_route_16_duration_20250327_1910.8" depart="54.00" departLane="137406408#0_0" departPos="0.68" departSpeed="0.00" departDelay="0.67" arrival="75.00" arrivalLane="133126040#0_1" arrivalPos="12.92" arrivalSpeed="12.15" duration="21.00" routeLength="133.43" waitingTime="0.00" waitingCount="0" stopTime="0.00" timeLoss="12.44" rerouteNo="0" devices="tripinfo_flow_route_16_duration_20250327_1910.8" vType="car" speedFactor="1.01" vaporized=""/>
    <tripinfo id="flow_route_16_duration_20250327_1910.6" depart="40.00" departLane="137406408#0_0" departPos="75.63" departSpeed="0.00" departDelay="0.00" arrival="76.00" arrivalLane="133126040#0_1" arrivalPos="52.61" arrivalSpeed="11.83" duration="36.00" routeLength="98.17" waitingTime="14.00" waitingCount="1" stopTime="0.00" timeLoss="29.41" rerouteNo="0" devices="tripinfo_flow_route_16_duration_20250327_1910.6" vType="car" speedFactor="1.00" vaporized=""/>
    <tripinfo id="flow_route_2_duration_20250327_1910.21" depart="59.00" departLane="1318793173#0_0" departPos="62.59" departSpeed="0.00" departDelay="45.01" arrival="78.00" arrivalLane="189835257_0" arrivalPos="30.55" arrivalSpeed="14.72" duration="19.00" routeLength="147.89" waitingTime="0.00" waitingCount="0" stopTime="0.00" timeLoss="9.33" rerouteNo="0" devices="tripinfo_flow_route_2_duration_20250327_1910.21" vType="car" speedFactor="1.18" vaporized=""/>
    <tripinfo id="flow_route_16_duration_20250327_1910.5" depart="34.00" departLane="137406408#0_0" departPos="9.50" departSpeed="0.00" departDelay="0.67" arrival="79.00" arrivalLane="133126040#0_0" arrivalPos="73.64" arrivalSpeed="13.25" duration="45.00" routeLength="185.34" waitingTime="14.00" waitingCount="1" stopTime="0.00" timeLoss="33.67" rerouteNo="0" devices="tripinfo_flow_route_16_duration_20250327_1910.5" vType="car" speedFactor="1.02" vaporized=""/>
    <tripinfo id="flow_route_2_duration_20250327_1910.20" depart="57.00" departLane="1318793173#0_0" departPos="20.60" departSpeed="0.00" departDelay="43.68" arrival="81.00" arrivalLane="189835257_0" arrivalPos="25.94" arrivalSpeed="14.62" duration="24.00" routeLength="185.28" waitingTime="0.00" waitingCount="0" stopTime="0.00" timeLoss="10.45" rerouteNo="0" devices="tripinfo_flow_route_2_duration_20250327_1910.20" vType="car" speedFactor="0.93" vaporized=""/>
    <tripinfo id="flow_route_2_duration_20250327_1910.19" depart="53.00" departLane="1318793173#0_0" departPos="3.74" departSpeed="0.00" departDelay="40.35" arrival="84.00" arrivalLane="189835257_0" arrivalPos="50.55" arrivalSpeed="16.54" duration="31.00" routeLength="226.75" waitingTime="0.00" waitingCount="0" stopTime="0.00" timeLoss="16.01" rerouteNo="0" devices="tripinfo_flow_route_2_duration_20250327_1910.19" vType="car" speedFactor="1.13" vaporized=""/>
    <tripinfo id="flow_route_2_duration_20250327_1910.22" depart="65.00" departLane="1318793173#0_0" departPos="20.32" departSpeed="0.00" departDelay="50.35" arrival="89.00" arrivalLane="189835257_0" arrivalPos="33.79" arrivalSpeed="15.35" duration="24.00" routeLength="193.41" waitingTime="0.00" waitingCount="0" stopTime="0.00" timeLoss="11.06" rerouteNo="0" devices="tripinfo_flow_route_2_duration_20250327_1910.22" vType="car" speedFactor="1.01" vaporized=""/>
    <tripinfo id="flow_route_17_duration_20250327_1910.1" depart="30.00" departLane="137406408#0_0" departPos="62.33" departSpeed="0.00" departDelay="0.00" arrival="89.00" arrivalLane="1254771874#0_0" arrivalPos="225.46" arrivalSpeed="16.35" duration="59.00" routeLength="306.33" waitingTime="21.00" waitingCount="1" stopTime="0.00" timeLoss="40.06" rerouteNo="0" devices="tripinfo_flow_route_17_duration_20250327_1910.1" vType="car" speedFactor="0.99" vaporized=""/>
    <tripinfo id="flow_route_2_duration_20250327_1910.24" depart="74.00" departLane="1318793173#0_0" departPos="22.88" departSpeed="0.00" departDelay="58.02" arrival="99.00" arrivalLane="189835257_0" arrivalPos="3.53" arrivalSpeed="12.61" duration="25.00" routeLength="160.59" waitingTime="0.00" waitingCount="0" stopTime="0.00" timeLoss="14.67" rerouteNo="0" devices="tripinfo_flow_route_2_duration_20250327_1910.24" vType="car" speedFactor="0.99" vaporized=""/>
    <tripinfo id="flow_route_2_duration_20250327_1910.26" depart="82.00" departLane="1318793173#0_0" departPos="85.92" departSpeed="0.00" departDelay="64.68" arrival="99.00" arrivalLane="189835257_0" arrivalPos="17.85" arrivalSpeed="13.55" duration="17.00" routeLength="111.88" waitingTime="0.00" waitingCount="0" stopTime="0.00" timeLoss="8.69" rerouteNo="0" devices="tripinfo_flow_route_2_duration_20250327_1910.26" vType="car" speedFactor="0.97" vaporized=""/>
    <tripinfo id="flow_route_13_duration_20250327_1910.5" depart="43.00" departLane="1252820503#0_0" departPos="22.70" departSpeed="0.00" departDelay="0.15" arrival="101.00" arrivalLane="291974733#0_0" arrivalPos="31.19" arrivalSpeed="7.85" duration="58.00" routeLength="165.64" waitingTime="28.00" waitingCount="1" stopTime="0.00" timeLoss="46.90" rerouteNo="0" devices="tripinfo_flow_route_13_duration_20250327_1910.5" vType="car" speedFactor="1.00" vaporized=""/>
    <tripinfo id="flow_route_2_duration_20250327_1910.23" depart="74.00" departLane="1318793173#0_0" departPos="1.44" departSpeed="0.00" departDelay="58.68" arrival="104.00" arrivalLane="189835257_0" arrivalPos="48.87" arrivalSpeed="15.03" duration="30.00" routeLength="227.38" waitingTime="0.00" waitingCount="0" stopTime="0.00" timeLoss="15.78" rerouteNo="0" devices="tripinfo_flow_route_2_duration_20250327_1910.23" vType="car" speedFactor="1.17" vaporized=""/>
    <tripinfo id="flow_route_13_duration_20250327_1910.6" depart="52.00" departLane="1252820503#0_0" departPos="12.52" departSpeed="0.00" departDelay="0.57" arrival="108.00" arrivalLane="291974733#0_0" arrivalPos="74.30" arrivalSpeed="12.01" duration="56.00" routeLength="218.94" waitingTime="20.00" waitingCount="1" stopTime="0.00" timeLoss="41.31" rerouteNo="0" devices="tripinfo_flow_route_13_duration_20250327_1910.6" vType="car" speedFactor="0.97" vaporized=""/>
    <tripinfo id="flow_route_2_duration_20250327_1910.30" depart="95.00" departLane="1318793173#0_0" departPos="107.48" departSpeed="0.00" departDelay="75.02" arrival="110.00" arrivalLane="189835257_0" arrivalPos="18.53" arrivalSpeed="11.59" duration="15.00" routeLength="90.98" waitingTime="0.00" waitingCount="0" stopTime="0.00" timeLoss="8.58" rerouteNo="0" devices="tripinfo_flow_route_2_duration_20250327_1910.30" vType="car" speedFactor="0.96" vaporized=""/>
    <tripinfo id="flow_route_2_duration_20250327_1910.31" depart="95.00" departLane="1318793173#0_0" departPos="96.57" departSpeed="0.00" departDelay="74.35" arrival="112.00" arrivalLane="189835257_0" arrivalPos="22.29" arrivalSpeed="12.20" duration="17.00" routeLength="105.66" waitingTime="0.00" waitingCount="0" stopTime="0.00" timeLoss="10.16" rerouteNo="0" devices="tripinfo_flow_route_2_duration_20250327_1910.31" vType="car" speedFactor="1.04" vaporized=""/>
    <tripinfo id="flow_route_2_duration_20250327_1910.27" depart="88.00" departLane="1318793173#0_0" departPos="51.77" departSpeed="0.00" departDelay="70.02" arrival="113.00" arrivalLane="189835257_0" arrivalPos="4.53" arrivalSpeed="10.86" duration="25.00" routeLength="132.70" waitingTime="0.00" waitingCount="0" stopTime="0.00" timeLoss="16.54" rerouteNo="0" devices="tripinfo_flow_route_2_duration_20250327_1910.27" vType="car" speedFactor="1.18" vaporized=""/>
    <tripinfo id="flow_route_2_duration_20250327_1910.28" depart="88.00" departLane="1318793173#0_0" departPos="41.60" departSpeed="0.00" departDelay="69.35" arrival="115.00" arrivalLane="189835257_0" arrivalPos="2.47" arrivalSpeed="11.12" duration="27.00" routeLength="140.81" waitingTime="0.00" waitingCount="0" stopTime="0.00" timeLoss="16.51" rerouteNo="0" devices="tripinfo_flow_route_2_duration_20250327_1910.28" vType="car" speedFactor="0.90" vaporized=""/>
    <tripinfo id="flow_route_2_duration_20250327_1910.25" depart="82.00" departLane="1318793173#0_0" departPos="4.27" departSpeed="0.00" departDelay="65.35" arrival="121.00" arrivalLane="189835257_0" arrivalPos="52.25" arrivalSpeed="14.91" duration="39.00" routeLength="227.92" waitingTime="0.00" waitingCount="0" stopTime="0.00" timeLoss="23.75" rerouteNo="0" devices="tripinfo_flow_route_2_duration_20250327_1910.25" vType="car" speedFactor="1.02" vaporized=""/>
    <tripinfo id="flow_route_2_duration_20250327_1910.29" depart="91.00" departLane="1318793173#0_0" departPos="16.60" departSpeed="0.00" departDelay="71.69" arrival="121.00" arrivalLane="189835257_0" arrivalPos="38.01" arrivalSpeed="13.73" duration="30.00" routeLength="201.36" waitingTime="0.00" waitingCount="0" stopTime="0.00" timeLoss="17.11" rerouteNo="0" devices="tripinfo_flow_route_2_duration_20250327_1910.29" vType="car" speedFactor="1.03" vaporized=""/>
    <tripinfo id="flow_route_2_duration_20250327_1910.37" depart="110.00" departLane="1318793173#0_0" departPos="96.86" departSpeed="0.00" departDelay="85.36" arrival="126.00" arrivalLane="189835257_0" arrivalPos="5.51" arrivalSpeed="10.87" duration="16.00" routeLength="88.60" waitingTime="0.00" waitingCount="0" stopTime="0.00" timeLoss="8.71" rerouteNo="0" devices="tripinfo_flow_route_2_duration_20250327_1910.37" vType="car" speedFactor="0.85" vaporized=""/>
    <tripinfo id="flow_route_2_duration_20250327_1910.34" depart="104.00" departLane="1318793173#0_0" departPos="62.30" departSpeed="0.00" departDelay="81.36" arrival="129.00" arrivalLane="189835257_0" arrivalPos="21.97" arrivalSpeed="12.16" duration="25.00" routeLength="139.61" waitingTime="0.00" waitingCount="0" stopTime="0.00" timeLoss="15.65" rerouteNo="0" devices="tripinfo_flow_route_2_duration_20250327_1910.34" vType="car" speedFactor="1.00" vaporized=""/>
    <tripinfo id="flow_route_2_duration_20250327_1910.32" depart="96.00" departLane="1318793173#0_0" departPos="5.24" departSpeed="0.00" departDelay="74.69" arrival="133.00" arrivalLane="189835257_0" arrivalPos="27.01" arrivalSpeed="13.90" duration="37.00" routeLength="201.70" waitingTime="0.00" waitingCount="0" stopTime="0.00" timeLoss="23.72" rerouteNo="0" devices="tripinfo_flow_route_2_duration_20250327_1910.32" vType="car" speedFactor="1.04" vaporized=""/>
    <tripinfo id="flow_route_2_duration_20250327_1910.35" depart="104.00" departLane="1318793173#0_0" departPos="50.63" departSpeed="0.00" departDelay="80.69" arrival="133.00" arrivalLane="189835257_0" arrivalPos="51.44" arrivalSpeed="14.57" duration="29.00" routeLength="180.75" waitingTime="0.00" waitingCount="0" stopTime="0.00" timeLoss="15.88" rerouteNo="0" devices="tripinfo_flow_route_2_duration_20250327_1910.35" vType="car" speedFactor="0.90" vaporized=""/>
    <tripinfo id="flow_route_2_duration_20250327_1910.36" depart="105.00" departLane="1318793173#0_0" departPos="19.85" departSpeed="0.00" departDelay="81.02" arrival="133.00" arrivalLane="189835257_0" arrivalPos="1.26" arrivalSpeed="12.28" duration="28.00" routeLength="161.34" waitingTime="0.00" waitingCount="0" stopTime="0.00" timeLoss="15.59" rerouteNo="0" devices="tripinfo_flow_route_2_duration_20250327_1910.36" vType="car" speedFactor="0.88" vaporized=""/>
    <tripinfo id="flow_route_2_duration_20250327_1910.33" depart="104.00" departLane="1318793173#0_0" departPos="2.88" departSpeed="0.00" departDelay="82.02" arrival="138.00" arrivalLane="189835257_0" arrivalPos="43.47" arrivalSpeed="15.38" duration="34.00" routeLength="220.54" waitingTime="0.00" waitingCount="0" stopTime="0.00" timeLoss="19.48" rerouteNo="0" devices="tripinfo_flow_route_2_duration_20250327_1910.33" vType="car" speedFactor="1.09" vaporized=""/>