<?xml version="1.0" encoding="UTF-8"?>

<!-- generated on 2025-05-06 21:08:11 by Eclipse SUMO sumo Version 1.20.0
<configuration xmlns:xsi="http://www.w3.org/2001/XMLSchema-instance" xsi:noNamespaceSchemaLocation="http://sumo.dlr.de/xsd/sumoConfiguration.xsd">

    <input>
        <net-file value="osm.net.xml"/>
        <route-files value="xml/route_rl_cluster10852700972_12154751993_3.rou.xml"/>
    </input>

    <output>
        <tripinfo-output value="xml/tripinfo_rl_cluster10852700972_12154751993_3.xml"/>
    </output>

    <traci_server>
        <remote-port value="44783"/>
    </traci_server>

</configuration>
-->

<tripinfos xmlns:xsi="http://www.w3.org/2001/XMLSchema-instance" xsi:noNamespaceSchemaLocation="http://sumo.dlr.de/xsd/tripinfo_file.xsd">
    <tripinfo id="flow_route_61_duration_20250327_2000.0" depart="0.00" departLane="186407684#0_0" departPos="65.67" departSpeed="0.00" departDelay="0.00" arrival="24.00" arrivalLane="1341093416#0_1" arrivalPos="161.76" arrivalSpeed="16.42" duration="24.00" routeLength="210.27" waitingTime="0.00" waitingCount="0" stopTime="0.00" timeLoss="9.95" rerouteNo="0" devices="tripinfo_flow_route_61_duration_20250327_2000.0" vType="car" speedFactor="1.03" vaporized=""/>
    <tripinfo id="flow_route_60_duration_20250327_2000.0" depart="0.00" departLane="186407684#0_0" departPos="48.06" departSpeed="0.00" departDelay="0.00" arrival="25.00" arrivalLane="791826085_0" arrivalPos="160.28" arrivalSpeed="16.26" duration="25.00" routeLength="221.15" waitingTime="0.00" waitingCount="0" stopTime="0.00" timeLoss="11.04" rerouteNo="0" devices="tripinfo_flow_route_60_duration_20250327_2000.0" vType="car" speedFactor="1.08" vaporized=""/>
    <tripinfo id="flow_route_61_duration_20250327_2000.1" depart="16.00" departLane="186407684#0_0" departPos="27.06" departSpeed="0.00" departDelay="1.00" arrival="32.00" arrivalLane="1341093416#0_1" arrivalPos="12.67" arrivalSpeed="13.08" duration="16.00" routeLength="99.79" waitingTime="0.00" waitingCount="0" stopTime="0.00" timeLoss="8.80" rerouteNo="0" devices="tripinfo_flow_route_61_duration_20250327_2000.1" vType="car" speedFactor="1.09" vaporized=""/>
    <tripinfo id="flow_route_60_duration_20250327_2000.1" depart="9.00" departLane="186407684#0_0" departPos="23.31" departSpeed="0.00" departDelay="0.43" arrival="35.00" arrivalLane="791826085_1" arrivalPos="147.45" arrivalSpeed="14.56" duration="26.00" routeLength="233.07" waitingTime="0.00" waitingCount="0" stopTime="0.00" timeLoss="9.38" rerouteNo="0" devices="tripinfo_flow_route_60_duration_20250327_2000.1" vType="car" speedFactor="0.89" vaporized=""/>
    <tripinfo id="flow_route_56_duration_20250327_2000.0" depart="0.00" departLane="1341093415#0_0" departPos="44.11" departSpeed="0.00" departDelay="0.00" arrival="46.00" arrivalLane="409155823_0" arrivalPos="4.00" arrivalSpeed="6.65" duration="46.00" routeLength="164.73" waitingTime="17.00" waitingCount="1" stopTime="0.00" timeLoss="35.18" rerouteNo="0" devices="tripinfo_flow_route_56_duration_20250327_2000.0" vType="car" speedFactor="1.01" vaporized=""/>
    <tripinfo id="flow_route_55_duration_20250327_2000.1" depart="7.00" departLane="1341093415#0_0" departPos="119.96" departSpeed="0.00" departDelay="0.33" arrival="46.00" arrivalLane="791826085_0" arrivalPos="1.97" arrivalSpeed="5.49" duration="39.00" routeLength="71.72" waitingTime="18.00" waitingCount="1" stopTime="0.00" timeLoss="33.61" rerouteNo="0" devices="tripinfo_flow_route_55_duration_20250327_2000.1" vType="car" speedFactor="0.83" vaporized=""/>
    <tripinfo id="flow_route_54_duration_20250327_2000.1" depart="12.00" departLane="1341093415#0_0" departPos="156.06" departSpeed="0.00" departDelay="0.00" arrival="48.00" arrivalLane="1341093416#0_0" arrivalPos="16.52" arrivalSpeed="8.07" duration="36.00" routeLength="67.28" waitingTime="17.00" waitingCount="1" stopTime="0.00" timeLoss="31.73" rerouteNo="0" devices="tripinfo_flow_route_54_duration_20250327_2000.1" vType="car" speedFactor="0.94" vaporized=""/>
    <tripinfo id="flow_route_60_duration_20250327_2000.2" depart="18.00" departLane="186407684#0_0" departPos="78.23" departSpeed="0.00" departDelay="0.86" arrival="49.00" arrivalLane="791826085_0" arrivalPos="306.25" arrivalSpeed="16.28" duration="31.00" routeLength="336.95" waitingTime="0.00" waitingCount="0" stopTime="0.00" timeLoss="10.03" rerouteNo="0" devices="tripinfo_flow_route_60_duration_20250327_2000.2" vType="car" speedFactor="1.05" vaporized=""/>
    <tripinfo id="flow_route_56_duration_20250327_2000.1" depart="9.00" departLane="1341093415#0_0" departPos="100.93" departSpeed="0.00" departDelay="0.43" arrival="52.00" arrivalLane="409155823_0" arrivalPos="41.04" arrivalSpeed="10.18" duration="43.00" routeLength="144.94" waitingTime="15.00" waitingCount="1" stopTime="0.00" timeLoss="33.35" rerouteNo="0" devices="tripinfo_flow_route_56_duration_20250327_2000.1" vType="car" speedFactor="1.05" vaporized=""/>
    <tripinfo id="flow_route_54_duration_20250327_2000.2" depart="24.00" departLane="1341093415#0_0" departPos="5.78" departSpeed="0.00" departDelay="0.00" arrival="52.00" arrivalLane="1341093416#0_1" arrivalPos="64.91" arrivalSpeed="16.34" duration="28.00" routeLength="265.95" waitingTime="0.00" waitingCount="0" stopTime="0.00" timeLoss="11.74" rerouteNo="0" devices="tripinfo_flow_route_54_duration_20250327_2000.2" vType="car" speedFactor="0.99" vaporized=""/>
    <tripinfo id="flow_route_55_duration_20250327_2000.4" depart="28.00" departLane="1341093415#0_0" departPos="59.05" departSpeed="0.00" departDelay="1.34" arrival="54.00" arrivalLane="791826085_0" arrivalPos="9.73" arrivalSpeed="8.60" duration="26.00" routeLength="140.38" waitingTime="0.00" waitingCount="0" stopTime="0.00" timeLoss="16.16" rerouteNo="0" devices="tripinfo_flow_route_55_duration_20250327_2000.4" vType="car" speedFactor="0.94" vaporized=""/>
    <tripinfo id="flow_route_60_duration_20250327_2000.3" depart="26.00" departLane="186407684#0_0" departPos="84.30" departSpeed="0.00" departDelay="0.29" arrival="55.00" arrivalLane="791826085_0" arrivalPos="249.33" arrivalSpeed="14.62" duration="29.00" routeLength="273.95" waitingTime="0.00" waitingCount="0" stopTime="0.00" timeLoss="9.81" rerouteNo="0" devices="tripinfo_flow_route_60_duration_20250327_2000.3" vType="car" speedFactor="0.88" vaporized=""/>
    <tripinfo id="flow_route_56_duration_20250327_2000.4" depart="35.00" departLane="1341093415#0_0" departPos="101.88" departSpeed="0.00" departDelay="0.72" arrival="55.00" arrivalLane="409155823_0" arrivalPos="23.25" arrivalSpeed="10.75" duration="20.00" routeLength="126.20" waitingTime="0.00" waitingCount="0" stopTime="0.00" timeLoss="10.91" rerouteNo="0" devices="tripinfo_flow_route_56_duration_20250327_2000.4" vType="car" speedFactor="1.02" vaporized=""/>
    <tripinfo id="flow_route_56_duration_20250327_2000.2" depart="18.00" departLane="1341093415#0_0" departPos="146.92" departSpeed="0.00" departDelay="0.86" arrival="56.00" arrivalLane="409155823_0" arrivalPos="55.76" arrivalSpeed="11.68" duration="38.00" routeLength="113.68" waitingTime="14.00" waitingCount="1" stopTime="0.00" timeLoss="29.91" rerouteNo="0" devices="tripinfo_flow_route_56_duration_20250327_2000.2" vType="car" speedFactor="1.03" vaporized=""/>
    <tripinfo id="flow_route_56_duration_20250327_2000.3" depart="26.00" departLane="1341093415#0_0" departPos="28.36" departSpeed="0.00" departDelay="0.29" arrival="57.00" arrivalLane="409155823_0" arrivalPos="26.56" arrivalSpeed="11.84" duration="31.00" routeLength="203.04" waitingTime="0.00" waitingCount="0" stopTime="0.00" timeLoss="16.82" rerouteNo="0" devices="tripinfo_flow_route_56_duration_20250327_2000.3" vType="car" speedFactor="0.93" vaporized=""/>
    <tripinfo id="flow_route_55_duration_20250327_2000.2" depart="14.00" departLane="1341093415#0_0" departPos="121.85" departSpeed="0.00" departDelay="0.67" arrival="58.00" arrivalLane="791826085_0" arrivalPos="105.00" arrivalSpeed="14.06" duration="44.00" routeLength="172.87" waitingTime="13.00" waitingCount="1" stopTime="0.00" timeLoss="31.15" rerouteNo="0" devices="tripinfo_flow_route_55_duration_20250327_2000.2" vType="car" speedFactor="0.86" vaporized=""/>
    <tripinfo id="flow_route_55_duration_20250327_2000.3" depart="20.00" departLane="1341093415#0_0" departPos="97.02" departSpeed="0.00" departDelay="0.00" arrival="62.00" arrivalLane="791826085_0" arrivalPos="129.34" arrivalSpeed="16.00" duration="42.00" routeLength="222.03" waitingTime="6.00" waitingCount="1" stopTime="0.00" timeLoss="27.13" rerouteNo="0" devices="tripinfo_flow_route_55_duration_20250327_2000.3" vType="car" speedFactor="1.12" vaporized=""/>
    <tripinfo id="flow_route_55_duration_20250327_2000.0" depart="0.00" departLane="1341093415#0_0" departPos="132.48" departSpeed="0.00" departDelay="0.00" arrival="63.00" arrivalLane="791826085_0" arrivalPos="232.37" arrivalSpeed="15.20" duration="63.00" routeLength="289.60" waitingTime="25.00" waitingCount="1" stopTime="0.00" timeLoss="43.30" rerouteNo="0" devices="tripinfo_flow_route_55_duration_20250327_2000.0" vType="car" speedFactor="0.94" vaporized=""/>
    <tripinfo id="flow_route_54_duration_20250327_2000.0" depart="0.00" departLane="1341093415#0_0" departPos="7.77" departSpeed="0.00" departDelay="0.00" arrival="65.00" arrivalLane="1341093416#0_1" arrivalPos="244.31" arrivalSpeed="16.19" duration="65.00" routeLength="443.35" waitingTime="14.00" waitingCount="1" stopTime="0.00" timeLoss="37.66" rerouteNo="0" devices="tripinfo_flow_route_54_duration_20250327_2000.0" vType="car" speedFactor="1.06" vaporized=""/>
    <tripinfo id="flow_route_56_duration_20250327_2000.5" depart="44.00" departLane="1341093415#0_0" departPos="87.80" departSpeed="0.00" departDelay="1.15" arrival="69.00" arrivalLane="409155823_0" arrivalPos="60.88" arrivalSpeed="12.40" duration="25.00" routeLength="177.93" waitingTime="0.00" waitingCount="0" stopTime="0.00" timeLoss="11.50" rerouteNo="0" devices="tripinfo_flow_route_56_duration_20250327_2000.5" vType="car" speedFactor="0.83" vaporized=""/>
    <tripinfo id="flow_route_55_duration_20250327_2000.5" depart="35.00" departLane="1341093415#0_0" departPos="29.94" departSpeed="0.00" departDelay="1.67" arrival="70.00" arrivalLane="791826085_0" arrivalPos="134.15" arrivalSpeed="14.63" duration="35.00" routeLength="293.93" waitingTime="0.00" waitingCount="0" stopTime="0.00" timeLoss="16.48" rerouteNo="0" devices="tripinfo_flow_route_55_duration_20250327_2000.5" vType="car" speedFactor="1.16" vaporized=""/>
    <tripinfo id="flow_route_54_duration_20250327_2000.3" depart="36.00" departLane="1341093415#0_0" departPos="15.87" departSpeed="0.00" departDelay="0.00" arrival="72.00" arrivalLane="1341093416#0_1" arrivalPos="222.56" arrivalSpeed="16.21" duration="36.00" routeLength="413.51" waitingTime="0.00" waitingCount="0" stopTime="0.00" timeLoss="10.89" rerouteNo="0" devices="tripinfo_flow_route_54_duration_20250327_2000.3" vType="car" speedFactor="0.97" vaporized=""/>
    <tripinfo id="flow_route_55_duration_20250327_2000.6" depart="41.00" departLane="1341093415#0_0" departPos="106.27" departSpeed="0.00" departDelay="1.00" arrival="74.00" arrivalLane="791826085_0" arrivalPos="217.90" arrivalSpeed="14.65" duration="33.00" routeLength="301.33" waitingTime="0.00" waitingCount="0" stopTime="0.00" timeLoss="12.09" rerouteNo="0" devices="tripinfo_flow_route_55_duration_20250327_2000.6" vType="car" speedFactor="0.89" vaporized=""/>
    <tripinfo id="flow_route_56_duration_20250327_2000.6" depart="53.00" departLane="1341093415#0_0" departPos="31.90" departSpeed="0.00" departDelay="1.57" arrival="79.00" arrivalLane="409155823_0" arrivalPos="24.55" arrivalSpeed="11.88" duration="26.00" routeLength="197.49" waitingTime="0.00" waitingCount="0" stopTime="0.00" timeLoss="12.07" rerouteNo="0" devices="tripinfo_flow_route_56_duration_20250327_2000.6" vType="car" speedFactor="0.93" vaporized=""/>
    <tripinfo id="flow_route_54_duration_20250327_2000.4" depart="49.00" departLane="1341093415#0_0" departPos="4.96" departSpeed="0.00" departDelay="1.00" arrival="83.00" arrivalLane="1341093416#0_0" arrivalPos="175.93" arrivalSpeed="16.36" duration="34.00" routeLength="377.79" waitingTime="0.00" waitingCount="0" stopTime="0.00" timeLoss="11.08" rerouteNo="0" devices="tripinfo_flow_route_54_duration_20250327_2000.4" vType="car" speedFactor="1.13" vaporized=""/>
    <tripinfo id="flow_route_61_duration_20250327_2000.2" depart="30.00" departLane="186407684#0_0" departPos="11.05" departSpeed="0.00" departDelay="0.00" arrival="88.00" arrivalLane="1341093416#0_1" arrivalPos="35.47" arrivalSpeed="9.77" duration="58.00" routeLength="138.60" waitingTime="29.00" waitingCount="1" stopTime="0.00" timeLoss="48.24" rerouteNo="0" devices="tripinfo_flow_route_61_duration_20250327_2000.2" vType="car" speedFactor="0.94" vaporized=""/>
    <tripinfo id="flow_route_60_duration_20250327_2000.4" depart="35.00" departLane="186407684#0_0" departPos="21.27" departSpeed="0.00" departDelay="0.72" arrival="91.00" arrivalLane="791826085_0" arrivalPos="72.77" arrivalSpeed="12.08" duration="56.00" routeLength="160.43" waitingTime="25.00" waitingCount="1" stopTime="0.00" timeLoss="45.90" rerouteNo="0" devices="tripinfo_flow_route_60_duration_20250327_2000.4" vType="car" speedFactor="1.01" vaporized=""/>
    <tripinfo id="flow_route_55_duration_20250327_2000.7" depart="47.00" departLane="1341093415#0_0" departPos="32.68" departSpeed="0.00" departDelay="0.34" arrival="92.00" arrivalLane="791826085_0" arrivalPos="311.42" arrivalSpeed="15.45" duration="45.00" routeLength="468.45" waitingTime="0.00" waitingCount="0" stopTime="0.00" timeLoss="14.59" rerouteNo="0" devices="tripinfo_flow_route_55_duration_20250327_2000.7" vType="car" speedFactor="0.95" vaporized=""/>
    <tripinfo id="flow_route_61_duration_20250327_2000.3" depart="45.00" departLane="186407684#0_0" departPos="14.84" departSpeed="0.00" departDelay="0.00" arrival="97.00" arrivalLane="1341093416#0_1" arrivalPos="159.05" arrivalSpeed="16.32" duration="52.00" routeLength="254.23" waitingTime="15.00" waitingCount="1" stopTime="0.00" timeLoss="34.65" rerouteNo="0" devices="tripinfo_flow_route_61_duration_20250327_2000.3" vType="car" speedFactor="0.92" vaporized=""/>
    <tripinfo id="flow_route_60_duration_20250327_2000.6" depart="52.00" departLane="186407684#0_0" departPos="5.90" departSpeed="0.00" departDelay="0.57" arrival="100.00" arrivalLane="791826085_1" arrivalPos="178.32" arrivalSpeed="16.39" duration="48.00" routeLength="281.35" waitingTime="10.00" waitingCount="1" stopTime="0.00" timeLoss="30.57" rerouteNo="0" devices="tripinfo_flow_route_60_duration_20250327_2000.6" vType="car" speedFactor="1.18" vaporized=""/>
    <tripinfo id="flow_route_60_duration_20250327_2000.5" depart="43.00" departLane="186407684#0_0" departPos="27.13" departSpeed="0.00" departDelay="0.15" arrival="109.00" arrivalLane="791826085_0" arrivalPos="304.95" arrivalSpeed="14.43" duration="66.00" routeLength="386.75" waitingTime="21.00" waitingCount="1" stopTime="0.00" timeLoss="39.10" rerouteNo="0" devices="tripinfo_flow_route_60_duration_20250327_2000.5" vType="car" speedFactor="0.87" vaporized=""/>
    <tripinfo id="flow_route_55_duration_20250327_2000.8" depart="56.00" departLane="1341093415#0_0" departPos="15.33" departSpeed="0.00" departDelay="2.67" arrival="144.00" arrivalLane="791826085_0" arrivalPos="323.61" arrivalSpeed="16.53" duration="88.00" routeLength="497.99" waitingTime="35.00" waitingCount="1" stopTime="0.00" timeLoss="56.88" rerouteNo="0" devices="tripinfo_flow_route_55_duration_20250327_2000.8" vType="car" speedFactor="1.15" vaporized=""/>
</tripinfos>
