<?xml version="1.0" encoding="UTF-8"?>

<!-- generated on 2025-05-06 21:08:02 by Eclipse SUMO sumo Version 1.20.0
<configuration xmlns:xsi="http://www.w3.org/2001/XMLSchema-instance" xsi:noNamespaceSchemaLocation="http://sumo.dlr.de/xsd/sumoConfiguration.xsd">

    <input>
        <net-file value="osm.net.xml"/>
        <route-files value="xml/route_rl_cluster_11657899598_353811979_6712514804_2.rou.xml"/>
    </input>

    <output>
        <tripinfo-output value="xml/tripinfo_rl_cluster_11657899598_353811979_6712514804_2.xml"/>
    </output>

    <traci_server>
        <remote-port value="58745"/>
    </traci_server>

</configuration>
-->

<tripinfos xmlns:xsi="http://www.w3.org/2001/XMLSchema-instance" xsi:noNamespaceSchemaLocation="http://sumo.dlr.de/xsd/tripinfo_file.xsd">
    <tripinfo id="flow_route_136_duration_20250327_2000.0" depart="0.00" departLane="688883939#0_0" departPos="70.95" departSpeed="0.00" departDelay="0.00" arrival="22.00" arrivalLane="186410975#0_1" arrivalPos="11.74" arrivalSpeed="11.21" duration="22.00" routeLength="133.80" waitingTime="1.00" waitingCount="1" stopTime="0.00" timeLoss="11.77" rerouteNo="0" devices="tripinfo_flow_route_136_duration_20250327_2000.0" vType="car" speedFactor="1.01" vaporized=""/>
    <tripinfo id="flow_route_137_duration_20250327_2000.0" depart="0.00" departLane="1310781056_0" departPos="52.86" departSpeed="0.00" departDelay="0.00" arrival="22.00" arrivalLane="714011134#0_0" arrivalPos="51.79" arrivalSpeed="16.36" duration="22.00" routeLength="192.73" waitingTime="0.00" waitingCount="0" stopTime="0.00" timeLoss="9.73" rerouteNo="0" devices="tripinfo_flow_route_137_duration_20250327_2000.0" vType="car" speedFactor="1.08" vaporized=""/>
    <tripinfo id="flow_route_139_duration_20250327_2000.0" depart="1.00" departLane="1310781056_0" departPos="36.51" departSpeed="0.00" departDelay="1.00" arrival="28.00" arrivalLane="1254157399#1_1" arrivalPos="26.95" arrivalSpeed="9.96" duration="27.00" routeLength="180.27" waitingTime="0.00" waitingCount="0" stopTime="0.00" timeLoss="13.67" rerouteNo="0" devices="tripinfo_flow_route_139_duration_20250327_2000.0" vType="car" speedFactor="0.83" vaporized=""/>
    <tripinfo id="flow_route_134_duration_20250327_2000.0" depart="0.00" departLane="688883939#0_0" departPos="78.56" departSpeed="0.00" departDelay="0.00" arrival="29.00" arrivalLane="809719540#0_0" arrivalPos="239.32" arrivalSpeed="16.31" duration="29.00" routeLength="300.42" waitingTime="0.00" waitingCount="0" stopTime="0.00" timeLoss="9.94" rerouteNo="0" devices="tripinfo_flow_route_134_duration_20250327_2000.0" vType="car" speedFactor="1.06" vaporized=""/>
    <tripinfo id="flow_route_138_duration_20250327_2000.0" depart="1.00" departLane="1310781056_0" departPos="99.29" departSpeed="0.00" departDelay="1.00" arrival="35.00" arrivalLane="186410975#0_0" arrivalPos="152.27" arrivalSpeed="11.22" duration="34.00" routeLength="305.80" waitingTime="0.00" waitingCount="0" stopTime="0.00" timeLoss="10.71" rerouteNo="0" devices="tripinfo_flow_route_138_duration_20250327_2000.0" vType="car" speedFactor="1.03" vaporized=""/>
    <tripinfo id="flow_route_138_duration_20250327_2000.1" depart="15.00" departLane="1310781056_0" departPos="112.52" departSpeed="0.00" departDelay="0.00" arrival="35.00" arrivalLane="186410975#0_0" arrivalPos="7.19" arrivalSpeed="12.82" duration="20.00" routeLength="147.48" waitingTime="0.00" waitingCount="0" stopTime="0.00" timeLoss="10.62" rerouteNo="0" devices="tripinfo_flow_route_138_duration_20250327_2000.1" vType="car" speedFactor="1.15" vaporized=""/>
    <tripinfo id="flow_route_136_duration_20250327_2000.1" depart="9.00" departLane="688883939#0_0" departPos="60.26" departSpeed="0.00" departDelay="1.50" arrival="39.00" arrivalLane="186410975#0_1" arrivalPos="85.51" arrivalSpeed="10.12" duration="30.00" routeLength="218.27" waitingTime="0.00" waitingCount="0" stopTime="0.00" timeLoss="11.13" rerouteNo="0" devices="tripinfo_flow_route_136_duration_20250327_2000.1" vType="car" speedFactor="0.94" vaporized=""/>
    <tripinfo id="flow_route_139_duration_20250327_2000.2" depart="14.00" departLane="1310781056_0" departPos="72.76" departSpeed="0.00" departDelay="0.67" arrival="42.00" arrivalLane="1254157399#1_0" arrivalPos="104.08" arrivalSpeed="15.46" duration="28.00" routeLength="221.15" waitingTime="0.00" waitingCount="0" stopTime="0.00" timeLoss="13.12" rerouteNo="0" devices="tripinfo_flow_route_139_duration_20250327_2000.2" vType="car" speedFactor="1.13" vaporized=""/>
    <tripinfo id="flow_route_139_duration_20250327_2000.1" depart="7.00" departLane="1310781056_0" departPos="3.38" departSpeed="0.00" departDelay="0.33" arrival="44.00" arrivalLane="1254157399#1_0" arrivalPos="98.34" arrivalSpeed="14.27" duration="37.00" routeLength="284.78" waitingTime="0.00" waitingCount="0" stopTime="0.00" timeLoss="17.96" rerouteNo="0" devices="tripinfo_flow_route_139_duration_20250327_2000.1" vType="car" speedFactor="0.88" vaporized=""/>
    <tripinfo id="flow_route_136_duration_20250327_2000.3" depart="23.00" departLane="688883939#0_0" departPos="74.93" departSpeed="0.00" departDelay="0.50" arrival="44.00" arrivalLane="186410975#0_1" arrivalPos="27.03" arrivalSpeed="11.34" duration="21.00" routeLength="145.11" waitingTime="0.00" waitingCount="0" stopTime="0.00" timeLoss="9.70" rerouteNo="0" devices="tripinfo_flow_route_136_duration_20250327_2000.3" vType="car" speedFactor="1.04" vaporized=""/>
    <tripinfo id="flow_route_135_duration_20250327_2000.0" depart="0.00" departLane="688883939#0_0" departPos="0.64" departSpeed="0.00" departDelay="0.00" arrival="45.00" arrivalLane="1254157399#1_0" arrivalPos="440.36" arrivalSpeed="16.42" duration="45.00" routeLength="573.44" waitingTime="0.00" waitingCount="0" stopTime="0.00" timeLoss="9.31" rerouteNo="0" devices="tripinfo_flow_route_135_duration_20250327_2000.0" vType="car" speedFactor="0.94" vaporized=""/>
    <tripinfo id="flow_route_152_duration_20250327_2000.3" depart="6.00" departLane="31861355#0_0" departPos="475.38" departSpeed="0.00" departDelay="0.00" arrival="52.00" arrivalLane="714011134#0_1" arrivalPos="31.80" arrivalSpeed="10.17" duration="46.00" routeLength="217.31" waitingTime="5.00" waitingCount="2" stopTime="0.00" timeLoss="31.82" rerouteNo="0" devices="tripinfo_flow_route_152_duration_20250327_2000.3" vType="car" speedFactor="0.93" vaporized=""/>
    <tripinfo id="flow_route_152_duration_20250327_2000.10" depart="24.00" departLane="31861355#0_0" departPos="604.08" departSpeed="0.00" departDelay="4.00" arrival="58.00" arrivalLane="714011134#0_1" arrivalPos="64.83" arrivalSpeed="13.37" duration="34.00" routeLength="121.63" waitingTime="10.00" waitingCount="2" stopTime="0.00" timeLoss="26.06" rerouteNo="0" devices="tripinfo_flow_route_152_duration_20250327_2000.10" vType="car" speedFactor="1.03" vaporized=""/>
    <tripinfo id="flow_route_152_duration_20250327_2000.9" depart="23.00" departLane="31861355#0_0" departPos="575.12" departSpeed="0.00" departDelay="5.00" arrival="60.00" arrivalLane="714011134#0_1" arrivalPos="37.08" arrivalSpeed="12.29" duration="37.00" routeLength="122.85" waitingTime="5.00" waitingCount="2" stopTime="0.00" timeLoss="29.27" rerouteNo="0" devices="tripinfo_flow_route_152_duration_20250327_2000.9" vType="car" speedFactor="1.18" vaporized=""/>
    <tripinfo id="flow_route_152_duration_20250327_2000.0" depart="0.00" departLane="31861355#0_0" departPos="164.48" departSpeed="0.00" departDelay="0.00" arrival="65.00" arrivalLane="714011134#0_1" arrivalPos="26.08" arrivalSpeed="12.06" duration="65.00" routeLength="522.49" waitingTime="4.00" waitingCount="1" stopTime="0.00" timeLoss="29.47" rerouteNo="0" devices="tripinfo_flow_route_152_duration_20250327_2000.0" vType="car" speedFactor="0.89" vaporized=""/>
    <tripinfo id="flow_route_152_duration_20250327_2000.1" depart="2.00" departLane="31861355#0_0" departPos="190.94" departSpeed="0.00" departDelay="0.00" arrival="65.00" arrivalLane="714011134#0_1" arrivalPos="4.87" arrivalSpeed="10.92" duration="63.00" routeLength="474.81" waitingTime="4.00" waitingCount="1" stopTime="0.00" timeLoss="34.28" rerouteNo="0" devices="tripinfo_flow_route_152_duration_20250327_2000.1" vType="car" speedFactor="1.09" vaporized=""/>
    <tripinfo id="flow_route_152_duration_20250327_2000.5" depart="10.00" departLane="31861355#0_0" departPos="415.45" departSpeed="0.00" departDelay="0.00" arrival="66.00" arrivalLane="714011134#0_1" arrivalPos="85.55" arrivalSpeed="14.34" duration="56.00" routeLength="330.98" waitingTime="4.00" waitingCount="1" stopTime="0.00" timeLoss="32.86" rerouteNo="0" devices="tripinfo_flow_route_152_duration_20250327_2000.5" vType="car" speedFactor="0.89" vaporized=""/>
    <tripinfo id="flow_route_151_duration_20250327_2000.2" depart="4.00" departLane="31861355#0_0" departPos="551.93" departSpeed="0.00" departDelay="0.84" arrival="68.00" arrivalLane="186410975#0_0" arrivalPos="163.51" arrivalSpeed="11.10" duration="64.00" routeLength="338.78" waitingTime="16.00" waitingCount="1" stopTime="0.00" timeLoss="38.35" rerouteNo="0" devices="tripinfo_flow_route_151_duration_20250327_2000.2" vType="car" speedFactor="1.03" vaporized=""/>
    <tripinfo id="flow_route_152_duration_20250327_2000.2" depart="4.00" departLane="31861355#0_0" departPos="246.60" departSpeed="0.00" departDelay="0.00" arrival="69.00" arrivalLane="714011134#0_1" arrivalPos="98.97" arrivalSpeed="15.50" duration="65.00" routeLength="513.25" waitingTime="4.00" waitingCount="1" stopTime="0.00" timeLoss="33.64" rerouteNo="0" devices="tripinfo_flow_route_152_duration_20250327_2000.2" vType="car" speedFactor="1.05" vaporized=""/>
    <tripinfo id="flow_route_153_duration_20250327_2000.1" depart="4.00" departLane="31861355#0_0" departPos="338.46" departSpeed="0.00" departDelay="0.00" arrival="71.00" arrivalLane="809719540#0_0" arrivalPos="221.41" arrivalSpeed="16.57" duration="67.00" routeLength="514.06" waitingTime="6.00" waitingCount="1" stopTime="0.00" timeLoss="33.95" rerouteNo="0" devices="tripinfo_flow_route_153_duration_20250327_2000.1" vType="car" speedFactor="1.12" vaporized=""/>
    <tripinfo id="flow_route_152_duration_20250327_2000.6" depart="13.00" departLane="31861355#0_0" departPos="306.29" departSpeed="0.00" departDelay="1.00" arrival="73.00" arrivalLane="714011134#0_1" arrivalPos="62.84" arrivalSpeed="14.08" duration="60.00" routeLength="417.43" waitingTime="1.00" waitingCount="1" stopTime="0.00" timeLoss="31.01" rerouteNo="0" devices="tripinfo_flow_route_152_duration_20250327_2000.6" vType="car" speedFactor="0.87" vaporized=""/>
    <tripinfo id="flow_route_152_duration_20250327_2000.12" depart="26.00" departLane="31861355#0_0" departPos="442.86" departSpeed="0.00" departDelay="2.00" arrival="73.00" arrivalLane="714011134#0_1" arrivalPos="92.09" arrivalSpeed="14.74" duration="47.00" routeLength="310.11" waitingTime="2.00" waitingCount="1" stopTime="0.00" timeLoss="26.01" rerouteNo="0" devices="tripinfo_flow_route_152_duration_20250327_2000.12" vType="car" speedFactor="0.90" vaporized=""/>
    <tripinfo id="flow_route_151_duration_20250327_2000.17" depart="39.00" departLane="31861355#0_0" departPos="529.34" departSpeed="0.00" departDelay="12.17" arrival="73.00" arrivalLane="186410975#0_1" arrivalPos="36.43" arrivalSpeed="11.10" duration="34.00" routeLength="234.30" waitingTime="0.00" waitingCount="0" stopTime="0.00" timeLoss="18.52" rerouteNo="0" devices="tripinfo_flow_route_151_duration_20250327_2000.17" vType="car" speedFactor="1.02" vaporized=""/>
    <tripinfo id="flow_route_152_duration_20250327_2000.14" depart="39.00" departLane="31861355#0_0" departPos="509.48" departSpeed="0.00" departDelay="11.00" arrival="74.00" arrivalLane="714011134#0_1" arrivalPos="50.59" arrivalSpeed="15.53" duration="35.00" routeLength="201.99" waitingTime="0.00" waitingCount="0" stopTime="0.00" timeLoss="22.63" rerouteNo="0" devices="tripinfo_flow_route_152_duration_20250327_2000.14" vType="car" speedFactor="1.10" vaporized=""/>
    <tripinfo id="flow_route_151_duration_20250327_2000.8" depart="15.00" departLane="31861355#0_0" departPos="577.11" departSpeed="0.00" departDelay="2.38" arrival="77.00" arrivalLane="186410975#0_1" arrivalPos="247.77" arrivalSpeed="10.29" duration="62.00" routeLength="397.87" waitingTime="9.00" waitingCount="1" stopTime="0.00" timeLoss="28.96" rerouteNo="0" devices="tripinfo_flow_route_151_duration_20250327_2000.8" vType="car" speedFactor="0.95" vaporized=""/>
    <tripinfo id="flow_route_151_duration_20250327_2000.0" depart="0.00" departLane="31861355#0_0" departPos="352.12" departSpeed="0.00" departDelay="0.00" arrival="78.00" arrivalLane="186410975#0_1" arrivalPos="191.84" arrivalSpeed="11.59" duration="78.00" routeLength="566.94" waitingTime="5.00" waitingCount="2" stopTime="0.00" timeLoss="38.00" rerouteNo="0" devices="tripinfo_flow_route_151_duration_20250327_2000.0" vType="car" speedFactor="1.05" vaporized=""/>
    <tripinfo id="flow_route_152_duration_20250327_2000.11" depart="26.00" departLane="31861355#0_0" departPos="411.52" departSpeed="0.00" departDelay="4.00" arrival="80.00" arrivalLane="714011134#0_1" arrivalPos="102.95" arrivalSpeed="16.58" duration="54.00" routeLength="352.30" waitingTime="0.00" waitingCount="0" stopTime="0.00" timeLoss="32.14" rerouteNo="0" devices="tripinfo_flow_route_152_duration_20250327_2000.11" vType="car" speedFactor="1.04" vaporized=""/>
    <tripinfo id="flow_route_153_duration_20250327_2000.0" depart="0.00" departLane="31861355#0_0" departPos="37.47" departSpeed="0.00" departDelay="0.00" arrival="82.00" arrivalLane="809719540#0_0" arrivalPos="146.46" arrivalSpeed="15.49" duration="82.00" routeLength="740.10" waitingTime="0.00" waitingCount="0" stopTime="0.00" timeLoss="32.53" rerouteNo="0" devices="tripinfo_flow_route_153_duration_20250327_2000.0" vType="car" speedFactor="0.94" vaporized=""/>
    <tripinfo id="flow_route_153_duration_20250327_2000.3" depart="15.00" departLane="31861355#0_0" departPos="339.99" departSpeed="0.00" departDelay="3.00" arrival="82.00" arrivalLane="809719540#0_0" arrivalPos="185.77" arrivalSpeed="15.28" duration="67.00" routeLength="476.89" waitingTime="0.00" waitingCount="0" stopTime="0.00" timeLoss="34.28" rerouteNo="0" devices="tripinfo_flow_route_153_duration_20250327_2000.3" vType="car" speedFactor="0.92" vaporized=""/>
    <tripinfo id="flow_route_151_duration_20250327_2000.1" depart="2.00" departLane="31861355#0_0" departPos="318.97" departSpeed="0.00" departDelay="0.42" arrival="84.00" arrivalLane="186410975#0_0" arrivalPos="176.45" arrivalSpeed="9.32" duration="82.00" routeLength="584.69" waitingTime="5.00" waitingCount="1" stopTime="0.00" timeLoss="35.03" rerouteNo="0" devices="tripinfo_flow_route_151_duration_20250327_2000.1" vType="car" speedFactor="0.86" vaporized=""/>
    <tripinfo id="flow_route_151_duration_20250327_2000.4" depart="7.00" departLane="31861355#0_0" departPos="425.98" departSpeed="0.00" departDelay="0.69" arrival="84.00" arrivalLane="186410975#0_0" arrivalPos="246.91" arrivalSpeed="10.41" duration="77.00" routeLength="548.13" waitingTime="6.00" waitingCount="1" stopTime="0.00" timeLoss="33.58" rerouteNo="0" devices="tripinfo_flow_route_151_duration_20250327_2000.4" vType="car" speedFactor="0.94" vaporized=""/>
    <tripinfo id="flow_route_153_duration_20250327_2000.6" depart="32.00" departLane="31861355#0_0" departPos="398.66" departSpeed="0.00" departDelay="8.00" arrival="85.00" arrivalLane="809719540#0_0" arrivalPos="154.08" arrivalSpeed="14.40" duration="53.00" routeLength="386.54" waitingTime="0.00" waitingCount="0" stopTime="0.00" timeLoss="25.12" rerouteNo="0" devices="tripinfo_flow_route_153_duration_20250327_2000.6" vType="car" speedFactor="0.88" vaporized=""/>
    <tripinfo id="flow_route_151_duration_20250327_2000.16" depart="34.00" departLane="31861355#0_0" departPos="551.68" departSpeed="0.00" departDelay="8.75" arrival="86.00" arrivalLane="186410975#0_1" arrivalPos="180.54" arrivalSpeed="8.98" duration="52.00" routeLength="356.08" waitingTime="1.00" waitingCount="1" stopTime="0.00" timeLoss="20.86" rerouteNo="0" devices="tripinfo_flow_route_151_duration_20250327_2000.16" vType="car" speedFactor="0.85" vaporized=""/>
    <tripinfo id="flow_route_151_duration_20250327_2000.12" depart="23.00" departLane="31861355#0_0" departPos="306.35" departSpeed="0.00" departDelay="4.06" arrival="88.00" arrivalLane="186410975#0_0" arrivalPos="54.81" arrivalSpeed="12.20" duration="65.00" routeLength="475.67" waitingTime="0.00" waitingCount="0" stopTime="0.00" timeLoss="34.46" rerouteNo="0" devices="tripinfo_flow_route_151_duration_20250327_2000.12" vType="car" speedFactor="1.10" vaporized=""/>
    <tripinfo id="flow_route_151_duration_20250327_2000.14" depart="26.00" departLane="31861355#0_0" departPos="485.63" departSpeed="0.00" departDelay="3.91" arrival="90.00" arrivalLane="186410975#0_0" arrivalPos="225.99" arrivalSpeed="11.87" duration="64.00" routeLength="467.56" waitingTime="0.00" waitingCount="0" stopTime="0.00" timeLoss="29.81" rerouteNo="0" devices="tripinfo_flow_route_151_duration_20250327_2000.14" vType="car" speedFactor="1.09" vaporized=""/>
    <tripinfo id="flow_route_136_duration_20250327_2000.2" depart="15.00" departLane="688883939#0_0" departPos="18.87" departSpeed="0.00" departDelay="0.00" arrival="92.00" arrivalLane="186410975#0_1" arrivalPos="39.19" arrivalSpeed="13.07" duration="77.00" routeLength="213.34" waitingTime="38.00" waitingCount="1" stopTime="0.00" timeLoss="62.21" rerouteNo="0" devices="tripinfo_flow_route_136_duration_20250327_2000.2" vType="car" speedFactor="1.18" vaporized=""/>
    <tripinfo id="flow_route_136_duration_20250327_2000.4" depart="30.00" departLane="688883939#0_0" departPos="29.23" departSpeed="0.00" departDelay="0.00" arrival="94.00" arrivalLane="186410975#0_1" arrivalPos="39.64" arrivalSpeed="12.64" duration="64.00" routeLength="203.42" waitingTime="29.00" waitingCount="1" stopTime="0.00" timeLoss="49.78" rerouteNo="0" devices="tripinfo_flow_route_136_duration_20250327_2000.4" vType="car" speedFactor="1.14" vaporized=""/>
    <tripinfo id="flow_route_151_duration_20250327_2000.11" depart="23.00" departLane="31861355#0_0" departPos="388.77" departSpeed="0.00" departDelay="5.64" arrival="97.00" arrivalLane="186410975#0_0" arrivalPos="186.32" arrivalSpeed="10.43" duration="74.00" routeLength="524.76" waitingTime="0.00" waitingCount="0" stopTime="0.00" timeLoss="35.71" rerouteNo="0" devices="tripinfo_flow_route_151_duration_20250327_2000.11" vType="car" speedFactor="0.97" vaporized=""/>
    <tripinfo id="flow_route_138_duration_20250327_2000.3" depart="45.00" departLane="1310781056_0" departPos="96.48" departSpeed="0.00" departDelay="0.00" arrival="97.00" arrivalLane="186410975#0_0" arrivalPos="50.42" arrivalSpeed="11.75" duration="52.00" routeLength="206.76" waitingTime="16.00" waitingCount="1" stopTime="0.00" timeLoss="37.84" rerouteNo="0" devices="tripinfo_flow_route_138_duration_20250327_2000.3" vType="car" speedFactor="1.15" vaporized=""/>
    <tripinfo id="flow_route_136_duration_20250327_2000.6" depart="45.00" departLane="688883939#0_0" departPos="26.41" departSpeed="0.00" departDelay="0.00" arrival="101.00" arrivalLane="186410975#0_1" arrivalPos="58.78" arrivalSpeed="10.65" duration="56.00" routeLength="225.39" waitingTime="18.00" waitingCount="1" stopTime="0.00" timeLoss="38.45" rerouteNo="0" devices="tripinfo_flow_route_136_duration_20250327_2000.6" vType="car" speedFactor="0.97" vaporized=""/>
    <tripinfo id="flow_route_139_duration_20250327_2000.3" depart="20.00" departLane="1310781056_0" departPos="93.62" departSpeed="0.00" departDelay="0.00" arrival="102.00" arrivalLane="1254157399#1_1" arrivalPos="261.57" arrivalSpeed="16.58" duration="82.00" routeLength="357.79" waitingTime="35.00" waitingCount="1" stopTime="0.00" timeLoss="58.76" rerouteNo="0" devices="tripinfo_flow_route_139_duration_20250327_2000.3" vType="car" speedFactor="0.90" vaporized=""/>
    <tripinfo id="flow_route_139_duration_20250327_2000.8" depart="54.00" departLane="1310781056_0" departPos="25.17" departSpeed="0.00" departDelay="0.67" arrival="108.00" arrivalLane="1254157399#1_0" arrivalPos="142.37" arrivalSpeed="16.17" duration="54.00" routeLength="307.03" waitingTime="6.00" waitingCount="1" stopTime="0.00" timeLoss="33.69" rerouteNo="0" devices="tripinfo_flow_route_139_duration_20250327_2000.8" vType="car" speedFactor="1.10" vaporized=""/>
    <tripinfo id="flow_route_139_duration_20250327_2000.5" depart="34.00" departLane="1310781056_0" departPos="102.44" departSpeed="0.00" departDelay="0.67" arrival="109.00" arrivalLane="1254157399#1_1" arrivalPos="339.46" arrivalSpeed="16.17" duration="75.00" routeLength="426.85" waitingTime="28.00" waitingCount="1" stopTime="0.00" timeLoss="47.23" rerouteNo="0" devices="tripinfo_flow_route_139_duration_20250327_2000.5" vType="car" speedFactor="0.94" vaporized=""/>
    <tripinfo id="flow_route_136_duration_20250327_2000.7" depart="53.00" departLane="688883939#0_0" departPos="61.06" departSpeed="0.00" departDelay="0.50" arrival="109.00" arrivalLane="186410975#0_0" arrivalPos="101.81" arrivalSpeed="9.86" duration="56.00" routeLength="233.77" waitingTime="16.00" waitingCount="1" stopTime="0.00" timeLoss="35.94" rerouteNo="0" devices="tripinfo_flow_route_136_duration_20250327_2000.7" vType="car" speedFactor="0.91" vaporized=""/>
    <tripinfo id="flow_route_138_duration_20250327_2000.2" depart="31.00" departLane="1310781056_0" departPos="67.21" departSpeed="0.00" departDelay="1.00" arrival="111.00" arrivalLane="186410975#0_0" arrivalPos="233.44" arrivalSpeed="11.24" duration="80.00" routeLength="419.05" waitingTime="26.00" waitingCount="1" stopTime="0.00" timeLoss="47.84" rerouteNo="0" devices="tripinfo_flow_route_138_duration_20250327_2000.2" vType="car" speedFactor="1.02" vaporized=""/>
    <tripinfo id="flow_route_136_duration_20250327_2000.5" depart="38.00" departLane="688883939#0_0" departPos="43.42" departSpeed="0.00" departDelay="0.50" arrival="116.00" arrivalLane="186410975#0_0" arrivalPos="237.11" arrivalSpeed="10.58" duration="78.00" routeLength="386.70" waitingTime="26.00" waitingCount="1" stopTime="0.00" timeLoss="45.21" rerouteNo="0" devices="tripinfo_flow_route_136_duration_20250327_2000.5" vType="car" speedFactor="0.97" vaporized=""/>
    <tripinfo id="flow_route_139_duration_20250327_2000.4" depart="27.00" departLane="1310781056_0" departPos="42.14" departSpeed="0.00" departDelay="0.34" arrival="117.00" arrivalLane="1254157399#1_0" arrivalPos="440.84" arrivalSpeed="16.28" duration="90.00" routeLength="588.53" waitingTime="27.00" waitingCount="1" stopTime="0.00" timeLoss="53.32" rerouteNo="0" devices="tripinfo_flow_route_139_duration_20250327_2000.4" vType="car" speedFactor="1.17" vaporized=""/>
    <tripinfo id="flow_route_135_duration_20250327_2000.1" depart="30.00" departLane="688883939#0_0" departPos="62.11" departSpeed="0.00" departDelay="0.00" arrival="118.00" arrivalLane="1254157399#1_0" arrivalPos="522.55" arrivalSpeed="16.40" duration="88.00" routeLength="594.17" waitingTime="31.00" waitingCount="1" stopTime="0.00" timeLoss="51.31" rerouteNo="0" devices="tripinfo_flow_route_135_duration_20250327_2000.1" vType="car" speedFactor="0.90" vaporized=""/>
    <tripinfo id="flow_route_152_duration_20250327_2000.4" depart="8.00" departLane="31861355#0_0" departPos="138.75" departSpeed="0.00" departDelay="0.00" arrival="124.00" arrivalLane="714011134#0_1" arrivalPos="13.21" arrivalSpeed="9.18" duration="116.00" routeLength="535.35" waitingTime="35.00" waitingCount="1" stopTime="0.00" timeLoss="83.69" rerouteNo="0" devices="tripinfo_flow_route_152_duration_20250327_2000.4" vType="car" speedFactor="1.02" vaporized=""/>
    <tripinfo id="flow_route_152_duration_20250327_2000.8" depart="21.00" departLane="31861355#0_0" departPos="259.40" departSpeed="0.00" departDelay="5.00" arrival="129.00" arrivalLane="714011134#0_1" arrivalPos="9.07" arrivalSpeed="10.09" duration="108.00" routeLength="410.54" waitingTime="34.00" waitingCount="1" stopTime="0.00" timeLoss="82.94" rerouteNo="0" devices="tripinfo_flow_route_152_duration_20250327_2000.8" vType="car" speedFactor="0.99" vaporized=""/>
    <tripinfo id="flow_route_151_duration_20250327_2000.5" depart="8.00" departLane="31861355#0_0" departPos="164.20" departSpeed="0.00" departDelay="0.11" arrival="130.00" arrivalLane="186410975#0_0" arrivalPos="33.39" arrivalSpeed="12.47" duration="122.00" routeLength="596.40" waitingTime="36.00" waitingCount="1" stopTime="0.00" timeLoss="85.19" rerouteNo="0" devices="tripinfo_flow_route_151_duration_20250327_2000.5" vType="car" speedFactor="1.16" vaporized=""/>
    <tripinfo id="flow_route_153_duration_20250327_2000.2" depart="8.00" departLane="31861355#0_0" departPos="104.43" departSpeed="0.00" departDelay="0.00" arrival="132.00" arrivalLane="809719540#0_0" arrivalPos="110.49" arrivalSpeed="13.17" duration="124.00" routeLength="637.16" waitingTime="35.00" waitingCount="1" stopTime="0.00" timeLoss="84.22" rerouteNo="0" devices="tripinfo_flow_route_153_duration_20250327_2000.2" vType="car" speedFactor="1.01" vaporized=""/>
    <tripinfo id="flow_route_139_duration_20250327_2000.6" depart="41.00" departLane="1310781056_0" departPos="36.68" departSpeed="0.00" departDelay="1.00" arrival="132.00" arrivalLane="1254157399#1_0" arrivalPos="616.04" arrivalSpeed="16.42" duration="91.00" routeLength="769.19" waitingTime="18.00" waitingCount="1" stopTime="0.00" timeLoss="42.47" rerouteNo="0" devices="tripinfo_flow_route_139_duration_20250327_2000.6" vType="car" speedFactor="0.96" vaporized=""/>
    <tripinfo id="flow_route_139_duration_20250327_2000.7" depart="48.00" departLane="1310781056_0" departPos="3.93" departSpeed="0.00" departDelay="1.34" arrival="132.00" arrivalLane="1254157399#1_0" arrivalPos="581.40" arrivalSpeed="16.12" duration="84.00" routeLength="767.31" waitingTime="11.00" waitingCount="1" stopTime="0.00" timeLoss="35.47" rerouteNo="0" devices="tripinfo_flow_route_139_duration_20250327_2000.7" vType="car" speedFactor="1.01" vaporized=""/>
    <tripinfo id="flow_route_153_duration_20250327_2000.5" depart="24.00" departLane="31861355#0_0" departPos="184.25" departSpeed="0.00" departDelay="4.00" arrival="134.00" arrivalLane="809719540#0_0" arrivalPos="104.69" arrivalSpeed="13.58" duration="110.00" routeLength="551.54" waitingTime="35.00" waitingCount="1" stopTime="0.00" timeLoss="73.48" rerouteNo="0" devices="tripinfo_flow_route_153_duration_20250327_2000.5" vType="car" speedFactor="0.96" vaporized=""/>
    <tripinfo id="flow_route_152_duration_20250327_2000.22" depart="70.00" departLane="31861355#0_0" departPos="495.27" departSpeed="0.00" departDelay="26.00" arrival="137.00" arrivalLane="714011134#0_1" arrivalPos="13.65" arrivalSpeed="12.25" duration="67.00" routeLength="179.26" waitingTime="33.00" waitingCount="1" stopTime="0.00" timeLoss="55.66" rerouteNo="0" devices="tripinfo_flow_route_152_duration_20250327_2000.22" vType="car" speedFactor="1.00" vaporized=""/>
    <tripinfo id="flow_route_151_duration_20250327_2000.3" depart="5.00" departLane="31861355#0_0" departPos="20.16" departSpeed="0.00" departDelay="0.27" arrival="138.00" arrivalLane="186410975#0_1" arrivalPos="61.10" arrivalSpeed="10.88" duration="133.00" routeLength="768.15" waitingTime="35.00" waitingCount="1" stopTime="0.00" timeLoss="83.94" rerouteNo="0" devices="tripinfo_flow_route_151_duration_20250327_2000.3" vType="car" speedFactor="0.99" vaporized=""/>
    <tripinfo id="flow_route_152_duration_20250327_2000.7" depart="15.00" departLane="31861355#0_0" departPos="41.64" departSpeed="0.00" departDelay="1.00" arrival="138.00" arrivalLane="714011134#0_1" arrivalPos="100.64" arrivalSpeed="15.18" duration="123.00" routeLength="719.87" waitingTime="33.00" waitingCount="1" stopTime="0.00" timeLoss="76.26" rerouteNo="0" devices="tripinfo_flow_route_152_duration_20250327_2000.7" vType="car" speedFactor="0.93" vaporized=""/>
    <tripinfo id="flow_route_153_duration_20250327_2000.7" depart="41.00" departLane="31861355#0_0" departPos="206.96" departSpeed="0.00" departDelay="13.00" arrival="139.00" arrivalLane="809719540#0_0" arrivalPos="11.44" arrivalSpeed="6.86" duration="98.00" routeLength="435.59" waitingTime="33.00" waitingCount="1" stopTime="0.00" timeLoss="70.19" rerouteNo="0" devices="tripinfo_flow_route_153_duration_20250327_2000.7" vType="car" speedFactor="1.00" vaporized=""/>
    <tripinfo id="flow_route_152_duration_20250327_2000.18" depart="50.00" departLane="31861355#0_0" departPos="365.91" departSpeed="0.00" departDelay="14.00" arrival="140.00" arrivalLane="714011134#0_1" arrivalPos="84.10" arrivalSpeed="16.08" duration="90.00" routeLength="379.07" waitingTime="35.00" waitingCount="1" stopTime="0.00" timeLoss="66.34" rerouteNo="0" devices="tripinfo_flow_route_152_duration_20250327_2000.18" vType="car" speedFactor="1.04" vaporized=""/>
    <tripinfo id="flow_route_152_duration_20250327_2000.15" depart="42.00" departLane="31861355#0_0" departPos="227.90" departSpeed="0.00" departDelay="12.00" arrival="142.00" arrivalLane="714011134#0_1" arrivalPos="69.91" arrivalSpeed="16.18" duration="100.00" routeLength="502.89" waitingTime="31.00" waitingCount="2" stopTime="0.00" timeLoss="69.44" rerouteNo="0" devices="tripinfo_flow_route_152_duration_20250327_2000.15" vType="car" speedFactor="1.08" vaporized=""/>
    <tripinfo id="flow_route_151_duration_20250327_2000.23" depart="53.00" departLane="31861355#0_0" departPos="328.52" departSpeed="0.00" departDelay="16.71" arrival="142.00" arrivalLane="186410975#0_0" arrivalPos="0.22" arrivalSpeed="11.16" duration="89.00" routeLength="398.91" waitingTime="34.00" waitingCount="1" stopTime="0.00" timeLoss="64.28" rerouteNo="0" devices="tripinfo_flow_route_151_duration_20250327_2000.23" vType="car" speedFactor="1.02" vaporized=""/>