<?xml version="1.0" encoding="UTF-8"?>

<!-- generated on 2025-05-06 21:09:03 by Eclipse SUMO sumo Version 1.20.0
<configuration xmlns:xsi="http://www.w3.org/2001/XMLSchema-instance" xsi:noNamespaceSchemaLocation="http://sumo.dlr.de/xsd/sumoConfiguration.xsd">

    <input>
        <net-file value="osm.net.xml"/>
        <route-files value="xml/route_rl_cluster7571105647_7571105653_cluster_1141265322_11869698130_256036890_4227138136_#4more_8.rou.xml"/>
    </input>

    <output>
        <tripinfo-output value="xml/tripinfo_rl_cluster7571105647_7571105653_cluster_1141265322_11869698130_256036890_4227138136_#4more_8.xml"/>
    </output>

    <traci_server>
        <remote-port value="38477"/>
    </traci_server>

</configuration>
-->

<tripinfos xmlns:xsi="http://www.w3.org/2001/XMLSchema-instance" xsi:noNamespaceSchemaLocation="http://sumo.dlr.de/xsd/tripinfo_file.xsd">
    <tripinfo id="flow_route_143_duration_20250327_1950.1" depart="4.00" departLane="1253222187#0_0" departPos="197.99" departSpeed="0.00" departDelay="0.47" arrival="25.00" arrivalLane="1310781056_0" arrivalPos="5.24" arrivalSpeed="15.55" duration="21.00" routeLength="175.75" waitingTime="0.00" waitingCount="0" stopTime="0.00" timeLoss="10.33" rerouteNo="0" devices="tripinfo_flow_route_143_duration_20250327_1950.1" vType="car" speedFactor="1.09" vaporized=""/>
    <tripinfo id="flow_route_143_duration_20250327_1950.0" depart="0.00" departLane="1253222187#0_0" departPos="157.10" departSpeed="0.00" departDelay="0.00" arrival="30.00" arrivalLane="1310781056_0" arrivalPos="55.73" arrivalSpeed="16.37" duration="30.00" routeLength="267.13" waitingTime="0.00" waitingCount="0" stopTime="0.00" timeLoss="13.81" rerouteNo="0" devices="tripinfo_flow_route_143_duration_20250327_1950.0" vType="car" speedFactor="1.08" vaporized=""/>
    <tripinfo id="flow_route_143_duration_20250327_1950.4" depart="19.00" departLane="1253222187#0_0" departPos="195.01" departSpeed="0.00" departDelay="4.88" arrival="41.00" arrivalLane="1310781056_0" arrivalPos="20.49" arrivalSpeed="16.17" duration="22.00" routeLength="193.98" waitingTime="0.00" waitingCount="0" stopTime="0.00" timeLoss="10.15" rerouteNo="0" devices="tripinfo_flow_route_143_duration_20250327_1950.4" vType="car" speedFactor="0.93" vaporized=""/>
    <tripinfo id="flow_route_143_duration_20250327_1950.2" depart="8.00" departLane="1253222187#0_0" departPos="55.68" departSpeed="0.00" departDelay="0.94" arrival="45.00" arrivalLane="1310781056_0" arrivalPos="14.67" arrivalSpeed="16.14" duration="37.00" routeLength="327.49" waitingTime="0.00" waitingCount="0" stopTime="0.00" timeLoss="15.48" rerouteNo="0" devices="tripinfo_flow_route_143_duration_20250327_1950.2" vType="car" speedFactor="0.88" vaporized=""/>
    <tripinfo id="flow_route_143_duration_20250327_1950.5" depart="24.00" departLane="1253222187#0_0" departPos="178.26" departSpeed="0.00" departDelay="6.36" arrival="49.00" arrivalLane="1310781056_0" arrivalPos="41.41" arrivalSpeed="16.48" duration="25.00" routeLength="231.65" waitingTime="0.00" waitingCount="0" stopTime="0.00" timeLoss="10.30" rerouteNo="0" devices="tripinfo_flow_route_143_duration_20250327_1950.5" vType="car" speedFactor="0.99" vaporized=""/>
    <tripinfo id="flow_route_142_duration_20250327_1950.0" depart="0.00" departLane="1253222187#0_0" departPos="114.97" departSpeed="0.00" departDelay="0.00" arrival="53.00" arrivalLane="683079388#0_0" arrivalPos="1.17" arrivalSpeed="16.23" duration="53.00" routeLength="684.52" waitingTime="0.00" waitingCount="0" stopTime="0.00" timeLoss="11.67" rerouteNo="0" devices="tripinfo_flow_route_142_duration_20250327_1950.0" vType="car" speedFactor="1.01" vaporized=""/>
    <tripinfo id="flow_route_140_duration_20250327_1950.2" depart="8.00" departLane="809719540#0_0" departPos="259.08" departSpeed="0.00" departDelay="0.50" arrival="54.00" arrivalLane="-809772643#1_0" arrivalPos="68.50" arrivalSpeed="12.85" duration="46.00" routeLength="116.87" waitingTime="24.00" waitingCount="1" stopTime="0.00" timeLoss="37.94" rerouteNo="0" devices="tripinfo_flow_route_140_duration_20250327_1950.2" vType="car" speedFactor="0.93" vaporized=""/>
    <tripinfo id="flow_route_140_duration_20250327_1950.1" depart="5.00" departLane="809719540#0_0" departPos="106.52" departSpeed="0.00" departDelay="1.25" arrival="56.00" arrivalLane="-809772643#1_0" arrivalPos="66.57" arrivalSpeed="13.60" duration="51.00" routeLength="267.50" waitingTime="11.00" waitingCount="1" stopTime="0.00" timeLoss="33.11" rerouteNo="0" devices="tripinfo_flow_route_140_duration_20250327_1950.1" vType="car" speedFactor="0.94" vaporized=""/>
    <tripinfo id="flow_route_140_duration_20250327_1950.6" depart="25.00" departLane="809719540#0_0" departPos="159.20" departSpeed="0.00" departDelay="2.50" arrival="59.00" arrivalLane="-809772643#1_1" arrivalPos="76.83" arrivalSpeed="14.91" duration="34.00" routeLength="227.92" waitingTime="2.00" waitingCount="1" stopTime="0.00" timeLoss="19.62" rerouteNo="0" devices="tripinfo_flow_route_140_duration_20250327_1950.6" vType="car" speedFactor="1.09" vaporized=""/>
    <tripinfo id="flow_route_142_duration_20250327_1950.3" depart="5.00" departLane="1253222187#0_0" departPos="114.76" departSpeed="0.00" departDelay="0.14" arrival="60.00" arrivalLane="683079388#0_0" arrivalPos="21.28" arrivalSpeed="16.39" duration="55.00" routeLength="704.83" waitingTime="0.00" waitingCount="0" stopTime="0.00" timeLoss="11.73" rerouteNo="0" devices="tripinfo_flow_route_142_duration_20250327_1950.3" vType="car" speedFactor="1.03" vaporized=""/>
    <tripinfo id="flow_route_142_duration_20250327_1950.1" depart="2.00" departLane="1253222187#0_0" departPos="55.77" departSpeed="0.00" departDelay="0.38" arrival="61.00" arrivalLane="683079388#0_2" arrivalPos="11.67" arrivalSpeed="16.26" duration="59.00" routeLength="754.21" waitingTime="0.00" waitingCount="0" stopTime="0.00" timeLoss="13.00" rerouteNo="0" devices="tripinfo_flow_route_142_duration_20250327_1950.1" vType="car" speedFactor="1.05" vaporized=""/>
    <tripinfo id="flow_route_140_duration_20250327_1950.4" depart="15.00" departLane="809719540#0_0" departPos="94.51" departSpeed="0.00" departDelay="0.00" arrival="61.00" arrivalLane="-809772643#1_0" arrivalPos="117.26" arrivalSpeed="15.66" duration="46.00" routeLength="330.21" waitingTime="0.00" waitingCount="0" stopTime="0.00" timeLoss="24.27" rerouteNo="0" devices="tripinfo_flow_route_140_duration_20250327_1950.4" vType="car" speedFactor="0.95" vaporized=""/>
    <tripinfo id="flow_route_140_duration_20250327_1950.0" depart="0.00" departLane="809719540#0_0" departPos="199.64" departSpeed="0.00" departDelay="0.00" arrival="62.00" arrivalLane="-809772643#1_1" arrivalPos="184.22" arrivalSpeed="16.55" duration="62.00" routeLength="294.87" waitingTime="24.00" waitingCount="1" stopTime="0.00" timeLoss="43.95" rerouteNo="0" devices="tripinfo_flow_route_140_duration_20250327_1950.0" vType="car" speedFactor="1.06" vaporized=""/>
    <tripinfo id="flow_route_142_duration_20250327_1950.2" depart="4.00" departLane="1253222187#0_0" departPos="133.56" departSpeed="0.00" departDelay="0.76" arrival="62.00" arrivalLane="683079388#0_0" arrivalPos="17.65" arrivalSpeed="13.92" duration="58.00" routeLength="682.40" waitingTime="0.00" waitingCount="0" stopTime="0.00" timeLoss="10.09" rerouteNo="0" devices="tripinfo_flow_route_142_duration_20250327_1950.2" vType="car" speedFactor="0.86" vaporized=""/>
    <tripinfo id="flow_route_140_duration_20250327_1950.3" depart="12.00" departLane="809719540#0_0" departPos="7.48" departSpeed="0.00" departDelay="0.75" arrival="63.00" arrivalLane="-809772643#1_1" arrivalPos="119.93" arrivalSpeed="14.75" duration="51.00" routeLength="422.74" waitingTime="0.00" waitingCount="0" stopTime="0.00" timeLoss="22.32" rerouteNo="0" devices="tripinfo_flow_route_140_duration_20250327_1950.3" vType="car" speedFactor="0.89" vaporized=""/>
    <tripinfo id="flow_route_142_duration_20250327_1950.4" depart="8.00" departLane="1253222187#0_0" departPos="86.73" departSpeed="0.00" departDelay="1.52" arrival="64.00" arrivalLane="683079388#0_2" arrivalPos="24.70" arrivalSpeed="16.37" duration="56.00" routeLength="736.28" waitingTime="0.00" waitingCount="0" stopTime="0.00" timeLoss="11.35" rerouteNo="0" devices="tripinfo_flow_route_142_duration_20250327_1950.4" vType="car" speedFactor="0.99" vaporized=""/>
    <tripinfo id="flow_route_142_duration_20250327_1950.6" depart="13.00" departLane="1253222187#0_0" departPos="195.68" departSpeed="0.00" departDelay="3.27" arrival="64.00" arrivalLane="683079388#0_0" arrivalPos="20.96" arrivalSpeed="15.91" duration="51.00" routeLength="623.59" waitingTime="0.00" waitingCount="0" stopTime="0.00" timeLoss="12.97" rerouteNo="0" devices="tripinfo_flow_route_142_duration_20250327_1950.6" vType="car" speedFactor="1.16" vaporized=""/>
    <tripinfo id="flow_route_140_duration_20250327_1950.5" depart="21.00" departLane="809719540#0_0" departPos="177.76" departSpeed="0.00" departDelay="2.25" arrival="64.00" arrivalLane="-809772643#1_1" arrivalPos="181.03" arrivalSpeed="16.35" duration="43.00" routeLength="313.54" waitingTime="0.00" waitingCount="0" stopTime="0.00" timeLoss="23.44" rerouteNo="0" devices="tripinfo_flow_route_140_duration_20250327_1950.5" vType="car" speedFactor="1.02" vaporized=""/>
    <tripinfo id="flow_route_140_duration_20250327_1950.8" depart="30.00" departLane="809719540#0_0" departPos="105.69" departSpeed="0.00" departDelay="0.00" arrival="67.00" arrivalLane="-809772643#1_0" arrivalPos="187.98" arrivalSpeed="16.43" duration="37.00" routeLength="389.74" waitingTime="0.00" waitingCount="0" stopTime="0.00" timeLoss="12.62" rerouteNo="0" devices="tripinfo_flow_route_140_duration_20250327_1950.8" vType="car" speedFactor="1.10" vaporized=""/>
    <tripinfo id="flow_route_142_duration_20250327_1950.10" depart="20.00" departLane="1253222187#0_0" departPos="204.83" departSpeed="0.00" departDelay="3.79" arrival="68.00" arrivalLane="683079388#0_0" arrivalPos="10.93" arrivalSpeed="16.11" duration="48.00" routeLength="604.41" waitingTime="0.00" waitingCount="0" stopTime="0.00" timeLoss="11.31" rerouteNo="0" devices="tripinfo_flow_route_142_duration_20250327_1950.10" vType="car" speedFactor="1.15" vaporized=""/>
    <tripinfo id="flow_route_140_duration_20250327_1950.7" depart="27.00" departLane="809719540#0_0" departPos="44.99" departSpeed="0.00" departDelay="0.75" arrival="68.00" arrivalLane="-809772643#1_1" arrivalPos="169.77" arrivalSpeed="14.51" duration="41.00" routeLength="435.06" waitingTime="0.00" waitingCount="0" stopTime="0.00" timeLoss="11.15" rerouteNo="0" devices="tripinfo_flow_route_140_duration_20250327_1950.7" vType="car" speedFactor="0.88" vaporized=""/>
    <tripinfo id="flow_route_140_duration_20250327_1950.13" depart="49.00" departLane="809719540#0_0" departPos="175.42" departSpeed="0.00" departDelay="0.25" arrival="73.00" arrivalLane="-809772643#1_0" arrivalPos="79.59" arrivalSpeed="16.19" duration="24.00" routeLength="211.62" waitingTime="0.00" waitingCount="0" stopTime="0.00" timeLoss="10.11" rerouteNo="0" devices="tripinfo_flow_route_140_duration_20250327_1950.13" vType="car" speedFactor="0.98" vaporized=""/>
    <tripinfo id="flow_route_142_duration_20250327_1950.14" depart="27.00" departLane="1253222187#0_0" departPos="206.82" departSpeed="0.00" departDelay="4.31" arrival="74.00" arrivalLane="683079388#0_0" arrivalPos="12.39" arrivalSpeed="16.13" duration="47.00" routeLength="603.88" waitingTime="0.00" waitingCount="0" stopTime="0.00" timeLoss="10.62" rerouteNo="0" devices="tripinfo_flow_route_142_duration_20250327_1950.14" vType="car" speedFactor="1.04" vaporized=""/>
    <tripinfo id="flow_route_140_duration_20250327_1950.10" depart="40.00" departLane="809719540#0_0" departPos="22.85" departSpeed="0.00" departDelay="2.50" arrival="74.00" arrivalLane="-809772643#1_1" arrivalPos="45.62" arrivalSpeed="14.99" duration="34.00" routeLength="333.05" waitingTime="0.00" waitingCount="0" stopTime="0.00" timeLoss="11.65" rerouteNo="0" devices="tripinfo_flow_route_140_duration_20250327_1950.10" vType="car" speedFactor="0.91" vaporized=""/>
    <tripinfo id="flow_route_140_duration_20250327_1950.12" depart="47.00" departLane="809719540#0_0" departPos="127.92" departSpeed="0.00" departDelay="2.00" arrival="74.00" arrivalLane="-809772643#1_0" arrivalPos="75.58" arrivalSpeed="16.29" duration="27.00" routeLength="255.11" waitingTime="0.00" waitingCount="0" stopTime="0.00" timeLoss="11.31" rerouteNo="0" devices="tripinfo_flow_route_140_duration_20250327_1950.12" vType="car" speedFactor="1.03" vaporized=""/>
    <tripinfo id="flow_route_140_duration_20250327_1950.11" depart="46.00" departLane="809719540#0_0" departPos="76.48" departSpeed="0.00" departDelay="4.75" arrival="77.00" arrivalLane="-809772643#1_0" arrivalPos="81.55" arrivalSpeed="15.71" duration="31.00" routeLength="312.52" waitingTime="0.00" waitingCount="0" stopTime="0.00" timeLoss="10.47" rerouteNo="0" devices="tripinfo_flow_route_140_duration_20250327_1950.11" vType="car" speedFactor="0.96" vaporized=""/>
    <tripinfo id="flow_route_142_duration_20250327_1950.7" depart="14.00" departLane="1253222187#0_0" departPos="71.48" departSpeed="0.00" departDelay="2.65" arrival="78.00" arrivalLane="683079388#0_0" arrivalPos="4.35" arrivalSpeed="13.72" duration="64.00" routeLength="731.18" waitingTime="0.00" waitingCount="0" stopTime="0.00" timeLoss="10.30" rerouteNo="0" devices="tripinfo_flow_route_142_duration_20250327_1950.7" vType="car" speedFactor="0.83" vaporized=""/>
    <tripinfo id="flow_route_140_duration_20250327_1950.9" depart="34.00" departLane="809719540#0_0" departPos="26.24" departSpeed="0.00" departDelay="0.25" arrival="80.00" arrivalLane="-809772643#1_1" arrivalPos="165.77" arrivalSpeed="16.11" duration="46.00" routeLength="449.81" waitingTime="0.00" waitingCount="0" stopTime="0.00" timeLoss="18.01" rerouteNo="0" devices="tripinfo_flow_route_140_duration_20250327_1950.9" vType="car" speedFactor="1.12" vaporized=""/>
    <tripinfo id="flow_route_146_duration_20250327_1950.1" depart="10.00" departLane="683079387#1_0" departPos="0.91" departSpeed="0.00" departDelay="7.27" arrival="87.00" arrivalLane="-809772643#1_1" arrivalPos="12.46" arrivalSpeed="9.98" duration="77.00" routeLength="624.52" waitingTime="13.00" waitingCount="1" stopTime="0.00" timeLoss="34.54" rerouteNo="0" devices="tripinfo_flow_route_146_duration_20250327_1950.1" vType="car" speedFactor="0.89" vaporized=""/>
    <tripinfo id="flow_route_146_duration_20250327_1950.2" depart="15.00" departLane="683079387#1_0" departPos="0.48" departSpeed="0.00" departDelay="9.55" arrival="89.00" arrivalLane="-809772643#1_1" arrivalPos="6.70" arrivalSpeed="10.27" duration="74.00" routeLength="619.19" waitingTime="13.00" waitingCount="1" stopTime="0.00" timeLoss="36.52" rerouteNo="0" devices="tripinfo_flow_route_146_duration_20250327_1950.2" vType="car" speedFactor="1.12" vaporized=""/>
    <tripinfo id="flow_route_141_duration_20250327_1950.0" depart="0.00" departLane="809719540#0_0" departPos="66.48" departSpeed="0.00" departDelay="0.00" arrival="93.00" arrivalLane="683079387#1_1" arrivalPos="7.27" arrivalSpeed="6.50" duration="93.00" routeLength="836.36" waitingTime="12.00" waitingCount="1" stopTime="0.00" timeLoss="36.44" rerouteNo="0" devices="tripinfo_flow_route_141_duration_20250327_1950.0" vType="car" speedFactor="0.94" vaporized=""/>
    <tripinfo id="flow_route_146_duration_20250327_1950.3" depart="21.00" departLane="683079387#1_0" departPos="3.50" departSpeed="0.00" departDelay="12.82" arrival="93.00" arrivalLane="-809772643#1_0" arrivalPos="34.73" arrivalSpeed="12.79" duration="72.00" routeLength="644.20" waitingTime="9.00" waitingCount="1" stopTime="0.00" timeLoss="30.33" rerouteNo="0" devices="tripinfo_flow_route_146_duration_20250327_1950.3" vType="car" speedFactor="0.94" vaporized=""/>
    <tripinfo id="flow_route_147_duration_20250327_1950.0" depart="6.00" departLane="683079387#1_0" departPos="3.08" departSpeed="0.00" departDelay="6.00" arrival="94.00" arrivalLane="1310781056_0" arrivalPos="4.95" arrivalSpeed="13.74" duration="88.00" routeLength="681.69" waitingTime="18.00" waitingCount="1" stopTime="0.00" timeLoss="38.43" rerouteNo="0" devices="tripinfo_flow_route_147_duration_20250327_1950.0" vType="car" speedFactor="0.83" vaporized=""/>
    <tripinfo id="flow_route_146_duration_20250327_1950.0" depart="0.00" departLane="683079387#1_0" departPos="0.06" departSpeed="0.00" departDelay="0.00" arrival="95.00" arrivalLane="-809772643#1_0" arrivalPos="121.98" arrivalSpeed="16.22" duration="95.00" routeLength="734.89" waitingTime="29.00" waitingCount="1" stopTime="0.00" timeLoss="50.37" rerouteNo="0" devices="tripinfo_flow_route_146_duration_20250327_1950.0" vType="car" speedFactor="1.03" vaporized=""/>
    <tripinfo id="flow_route_141_duration_20250327_1950.1" depart="6.00" departLane="809719540#0_0" departPos="42.74" departSpeed="0.00" departDelay="0.55" arrival="95.00" arrivalLane="683079387#1_1" arrivalPos="2.42" arrivalSpeed="6.63" duration="89.00" routeLength="855.24" waitingTime="6.00" waitingCount="1" stopTime="0.00" timeLoss="34.69" rerouteNo="0" devices="tripinfo_flow_route_141_duration_20250327_1950.1" vType="car" speedFactor="1.05" vaporized=""/>
    <tripinfo id="flow_route_146_duration_20250327_1950.8" depart="44.00" departLane="683079387#1_0" departPos="4.56" departSpeed="0.00" departDelay="22.18" arrival="97.00" arrivalLane="-809772643#1_1" arrivalPos="25.70" arrivalSpeed="13.49" duration="53.00" routeLength="634.11" waitingTime="0.00" waitingCount="0" stopTime="0.00" timeLoss="12.70" rerouteNo="0" devices="tripinfo_flow_route_146_duration_20250327_1950.8" vType="car" speedFactor="0.96" vaporized=""/>
    <tripinfo id="flow_route_141_duration_20250327_1950.5" depart="28.00" departLane="809719540#0_0" departPos="176.91" departSpeed="0.00" departDelay="0.73" arrival="98.00" arrivalLane="683079387#1_1" arrivalPos="3.53" arrivalSpeed="5.86" duration="70.00" routeLength="729.20" waitingTime="1.00" waitingCount="1" stopTime="0.00" timeLoss="15.55" rerouteNo="0" devices="tripinfo_flow_route_141_duration_20250327_1950.5" vType="car" speedFactor="0.85" vaporized=""/>
    <tripinfo id="flow_route_141_duration_20250327_1950.2" depart="12.00" departLane="809719540#0_0" departPos="40.78" departSpeed="0.00" departDelay="1.09" arrival="101.00" arrivalLane="683079387#1_1" arrivalPos="6.09" arrivalSpeed="6.84" duration="89.00" routeLength="860.87" waitingTime="1.00" waitingCount="1" stopTime="0.00" timeLoss="34.27" rerouteNo="0" devices="tripinfo_flow_route_141_duration_20250327_1950.2" vType="car" speedFactor="1.02" vaporized=""/>
    <tripinfo id="flow_route_146_duration_20250327_1950.6" depart="34.00" departLane="683079387#1_0" departPos="1.61" departSpeed="0.00" departDelay="17.64" arrival="102.00" arrivalLane="-809772643#1_1" arrivalPos="127.18" arrivalSpeed="16.48" duration="68.00" routeLength="738.54" waitingTime="0.00" waitingCount="0" stopTime="0.00" timeLoss="22.97" rerouteNo="0" devices="tripinfo_flow_route_146_duration_20250327_1950.6" vType="car" speedFactor="1.01" vaporized=""/>
    <tripinfo id="flow_route_141_duration_20250327_1950.3" depart="19.00" departLane="809719540#0_0" departPos="132.33" departSpeed="0.00" departDelay="2.64" arrival="103.00" arrivalLane="683079387#1_1" arrivalPos="6.93" arrivalSpeed="6.84" duration="84.00" routeLength="770.16" waitingTime="0.00" waitingCount="0" stopTime="0.00" timeLoss="35.82" rerouteNo="0" devices="tripinfo_flow_route_141_duration_20250327_1950.3" vType="car" speedFactor="1.18" vaporized=""/>
    <tripinfo id="flow_route_146_duration_20250327_1950.9" depart="50.00" departLane="683079387#1_0" departPos="6.69" departSpeed="0.00" departDelay="25.46" arrival="103.00" arrivalLane="-809772643#1_0" arrivalPos="89.08" arrivalSpeed="16.32" duration="53.00" routeLength="695.36" waitingTime="0.00" waitingCount="0" stopTime="0.00" timeLoss="10.96" rerouteNo="0" devices="tripinfo_flow_route_146_duration_20250327_1950.9" vType="car" speedFactor="1.00" vaporized=""/>
    <tripinfo id="flow_route_146_duration_20250327_1950.4" depart="26.00" departLane="683079387#1_0" departPos="1.05" departSpeed="0.00" departDelay="15.09" arrival="104.00" arrivalLane="-809772643#1_1" arrivalPos="193.33" arrivalSpeed="16.23" duration="78.00" routeLength="805.25" waitingTime="3.00" waitingCount="1" stopTime="0.00" timeLoss="28.28" rerouteNo="0" devices="tripinfo_flow_route_146_duration_20250327_1950.4" vType="car" speedFactor="0.97" vaporized=""/>
    <tripinfo id="flow_route_141_duration_20250327_1950.4" depart="25.00" departLane="809719540#0_0" departPos="101.92" departSpeed="0.00" departDelay="3.18" arrival="106.00" arrivalLane="683079387#1_1" arrivalPos="7.97" arrivalSpeed="8.23" duration="81.00" routeLength="801.61" waitingTime="0.00" waitingCount="0" stopTime="0.00" timeLoss="30.59" rerouteNo="0" devices="tripinfo_flow_route_141_duration_20250327_1950.4" vType="car" speedFactor="1.10" vaporized=""/>
    <tripinfo id="flow_route_146_duration_20250327_1950.5" depart="31.00" departLane="683079387#1_0" departPos="4.98" departSpeed="0.00" departDelay="17.37" arrival="107.00" arrivalLane="-809772643#1_0" arrivalPos="205.16" arrivalSpeed="15.16" duration="76.00" routeLength="813.15" waitingTime="0.00" waitingCount="0" stopTime="0.00" timeLoss="22.52" rerouteNo="0" devices="tripinfo_flow_route_146_duration_20250327_1950.5" vType="car" speedFactor="0.92" vaporized=""/>
    <tripinfo id="flow_route_146_duration_20250327_1950.7" depart="40.00" departLane="683079387#1_0" departPos="4.65" departSpeed="0.00" departDelay="20.91" arrival="107.00" arrivalLane="-809772643#1_0" arrivalPos="180.67" arrivalSpeed="15.18" duration="67.00" routeLength="788.99" waitingTime="0.00" waitingCount="0" stopTime="0.00" timeLoss="19.17" rerouteNo="0" devices="tripinfo_flow_route_146_duration_20250327_1950.7" vType="car" speedFactor="1.18" vaporized=""/>
    <tripinfo id="flow_route_146_duration_20250327_1950.11" depart="58.00" departLane="683079387#1_0" departPos="3.56" departSpeed="0.00" departDelay="28.00" arrival="107.00" arrivalLane="-809772643#1_0" arrivalPos="23.64" arrivalSpeed="16.10" duration="49.00" routeLength="633.05" waitingTime="0.00" waitingCount="0" stopTime="0.00" timeLoss="10.37" rerouteNo="0" devices="tripinfo_flow_route_146_duration_20250327_1950.11" vType="car" speedFactor="1.00" vaporized=""/>
    <tripinfo id="flow_route_141_duration_20250327_1950.6" depart="33.00" departLane="809719540#0_0" departPos="98.44" departSpeed="0.00" departDelay="0.28" arrival="108.00" arrivalLane="683079387#1_1" arrivalPos="2.12" arrivalSpeed="5.98" duration="75.00" routeLength="799.23" waitingTime="0.00" waitingCount="0" stopTime="0.00" timeLoss="23.85" rerouteNo="0" devices="tripinfo_flow_route_141_duration_20250327_1950.6" vType="car" speedFactor="1.02" vaporized=""/>
    <tripinfo id="flow_route_146_duration_20250327_1950.10" depart="54.00" departLane="683079387#1_0" departPos="5.17" departSpeed="0.00" departDelay="26.73" arrival="109.00" arrivalLane="-809772643#1_0" arrivalPos="97.24" arrivalSpeed="16.18" duration="55.00" routeLength="705.04" waitingTime="0.00" waitingCount="0" stopTime="0.00" timeLoss="12.51" rerouteNo="0" devices="tripinfo_flow_route_146_duration_20250327_1950.10" vType="car" speedFactor="1.17" vaporized=""/>
    <tripinfo id="flow_route_141_duration_20250327_1950.10" depart="55.00" departLane="809719540#0_0" departPos="261.74" departSpeed="0.00" departDelay="0.46" arrival="111.00" arrivalLane="683079387#1_1" arrivalPos="9.74" arrivalSpeed="6.39" duration="56.00" routeLength="650.58" waitingTime="0.00" waitingCount="0" stopTime="0.00" timeLoss="14.20" rerouteNo="0" devices="tripinfo_flow_route_141_duration_20250327_1950.10" vType="car" speedFactor="1.01" vaporized=""/>
    <tripinfo id="flow_route_141_duration_20250327_1950.9" depart="50.00" departLane="809719540#0_0" departPos="198.59" departSpeed="0.00" departDelay="0.91" arrival="113.00" arrivalLane="683079387#1_1" arrivalPos="2.47" arrivalSpeed="6.38" duration="63.00" routeLength="706.46" waitingTime="0.00" waitingCount="0" stopTime="0.00" timeLoss="17.70" rerouteNo="0" devices="tripinfo_flow_route_141_duration_20250327_1950.9" vType="car" speedFactor="1.04" vaporized=""/>
    <tripinfo id="flow_route_141_duration_20250327_1950.8" depart="47.00" departLane="809719540#0_0" departPos="136.16" departSpeed="0.00" departDelay="3.37" arrival="115.00" arrivalLane="683079387#1_1" arrivalPos="1.92" arrivalSpeed="5.62" duration="68.00" routeLength="761.32" waitingTime="0.00" waitingCount="0" stopTime="0.00" timeLoss="17.98" rerouteNo="0" devices="tripinfo_flow_route_141_duration_20250327_1950.8" vType="car" speedFactor="0.98" vaporized=""/>
    <tripinfo id="flow_route_146_duration_20250327_1950.12" depart="63.00" departLane="683079387#1_0" departPos="2.25" departSpeed="0.00" departDelay="30.28" arrival="116.00" arrivalLane="-809772643#1_0" arrivalPos="92.32" arrivalSpeed="16.26" duration="53.00" routeLength="703.04" waitingTime="0.00" waitingCount="0" stopTime="0.00" timeLoss="10.62" rerouteNo="0" devices="tripinfo_flow_route_146_duration_20250327_1950.12" vType="car" speedFactor="1.08" vaporized=""/>
    <tripinfo id="flow_route_141_duration_20250327_1950.7" depart="45.00" departLane="809719540#0_0" departPos="13.15" departSpeed="0.00" departDelay="6.82" arrival="117.00" arrivalLane="683079387#1_1" arrivalPos="0.86" arrivalSpeed="5.69" duration="72.00" routeLength="890.29" waitingTime="0.00" waitingCount="0" stopTime="0.00" timeLoss="15.83" rerouteNo="0" devices="tripinfo_flow_route_141_duration_20250327_1950.7" vType="car" speedFactor="1.04" vaporized=""/>
    <tripinfo id="flow_route_142_duration_20250327_1950.15" depart="27.00" departLane="1253222187#0_0" departPos="187.06" departSpeed="0.00" departDelay="2.69" arrival="121.00" arrivalLane="683079388#0_0" arrivalPos="8.90" arrivalSpeed="16.58" duration="94.00" routeLength="620.15" waitingTime="39.00" waitingCount="1" stopTime="0.00" timeLoss="56.50" rerouteNo="0" devices="tripinfo_flow_route_142_duration_20250327_1950.15" vType="car" speedFactor="1.04" vaporized=""/>
    <tripinfo id="flow_route_142_duration_20250327_1950.5" depart="12.00" departLane="1253222187#0_0" departPos="38.66" departSpeed="0.00" departDelay="3.90" arrival="122.00" arrivalLane="683079388#0_1" arrivalPos="5.76" arrivalSpeed="15.51" duration="110.00" routeLength="765.41" waitingTime="37.00" waitingCount="1" stopTime="0.00" timeLoss="61.09" rerouteNo="0" devices="tripinfo_flow_route_142_duration_20250327_1950.5" vType="car" speedFactor="0.94" vaporized=""/>
    <tripinfo id="flow_route_140_duration_20250327_1950.15" depart="57.00" departLane="809719540#0_0" departPos="21.06" departSpeed="0.00" departDelay="0.75" arrival="122.00" arrivalLane="-809772643#1_1" arrivalPos="3.39" arrivalSpeed="7.72" duration="65.00" routeLength="292.61" waitingTime="26.00" waitingCount="1" stopTime="0.00" timeLoss="47.38" rerouteNo="0" devices="tripinfo_flow_route_140_duration_20250327_1950.15" vType="car" speedFactor="1.10" vaporized=""/>
    <tripinfo id="flow_route_142_duration_20250327_1950.13" depart="27.00" departLane="1253222187#0_0" departPos="115.80" departSpeed="0.00" departDelay="5.93" arrival="126.00" arrivalLane="683079388#0_0" arrivalPos="7.26" arrivalSpeed="14.82" duration="99.00" routeLength="689.77" waitingTime="30.00" waitingCount="1" stopTime="0.00" timeLoss="52.66" rerouteNo="0" devices="tripinfo_flow_route_142_duration_20250327_1950.13" vType="car" speedFactor="0.90" vaporized=""/>
    <tripinfo id="flow_route_142_duration_20250327_1950.9" depart="18.00" departLane="1253222187#0_0" departPos="5.03" departSpeed="0.00" departDelay="3.41" arrival="127.00" arrivalLane="683079388#0_2" arrivalPos="5.35" arrivalSpeed="16.44" duration="109.00" routeLength="798.63" waitingTime="30.00" waitingCount="1" stopTime="0.00" timeLoss="60.61" rerouteNo="0" devices="tripinfo_flow_route_142_duration_20250327_1950.9" vType="car" speedFactor="1.13" vaporized=""/>
    <tripinfo id="flow_route_142_duration_20250327_1950.8" depart="17.00" departLane="1253222187#0_0" departPos="108.12" departSpeed="0.00" departDelay="4.03" arrival="128.00" arrivalLane="683079388#0_0" arrivalPos="7.20" arrivalSpeed="14.46" duration="111.00" routeLength="697.39" waitingTime="38.00" waitingCount="1" stopTime="0.00" timeLoss="62.24" rerouteNo="0" devices="tripinfo_flow_route_142_duration_20250327_1950.8" vType="car" speedFactor="0.87" vaporized=""/>
    <tripinfo id="flow_route_142_duration_20250327_1950.11" depart="21.00" departLane="1253222187#0_0" departPos="21.41" departSpeed="0.00" departDelay="3.17" arrival="129.00" arrivalLane="683079388#0_2" arrivalPos="10.77" arrivalSpeed="16.29" duration="108.00" routeLength="787.68" waitingTime="29.00" waitingCount="1" stopTime="0.00" timeLoss="60.20" rerouteNo="0" devices="tripinfo_flow_route_142_duration_20250327_1950.11" vType="car" speedFactor="1.17" vaporized=""/>
    <tripinfo id="flow_route_142_duration_20250327_1950.16" depart="33.00" departLane="1253222187#0_0" departPos="152.47" departSpeed="0.00" departDelay="7.06" arrival="130.00" arrivalLane="683079388#0_0" arrivalPos="14.80" arrivalSpeed="14.67" duration="97.00" routeLength="660.65" waitingTime="32.00" waitingCount="1" stopTime="0.00" timeLoss="52.26" rerouteNo="0" devices="tripinfo_flow_route_142_duration_20250327_1950.16" vType="car" speedFactor="0.90" vaporized=""/>
    <tripinfo id="flow_route_142_duration_20250327_1950.21" depart="44.00" departLane="1253222187#0_0" departPos="160.45" departSpeed="0.00" departDelay="9.96" arrival="130.00" arrivalLane="683079388#0_2" arrivalPos="5.83" arrivalSpeed="16.46" duration="86.00" routeLength="643.69" waitingTime="26.00" waitingCount="1" stopTime="0.00" timeLoss="47.09" rerouteNo="0" devices="tripinfo_flow_route_142_duration_20250327_1950.21" vType="car" speedFactor="1.02" vaporized=""/>