<?xml version="1.0" encoding="UTF-8"?>

<!-- generated on 2025-05-06 21:08:43 by Eclipse SUMO sumo Version 1.20.0
<configuration xmlns:xsi="http://www.w3.org/2001/XMLSchema-instance" xsi:noNamespaceSchemaLocation="http://sumo.dlr.de/xsd/sumoConfiguration.xsd">

    <input>
        <net-file value="osm.net.xml"/>
        <route-files value="xml/route_rl_cluster_11657899598_353811979_6712514804_6.rou.xml"/>
    </input>

    <output>
        <tripinfo-output value="xml/tripinfo_rl_cluster_11657899598_353811979_6712514804_6.xml"/>
    </output>

    <traci_server>
        <remote-port value="50621"/>
    </traci_server>

</configuration>
-->

<tripinfos xmlns:xsi="http://www.w3.org/2001/XMLSchema-instance" xsi:noNamespaceSchemaLocation="http://sumo.dlr.de/xsd/tripinfo_file.xsd">
    <tripinfo id="flow_route_136_duration_20250327_2020.0" depart="0.00" departLane="688883939#0_0" departPos="70.95" departSpeed="0.00" departDelay="0.00" arrival="22.00" arrivalLane="186410975#0_1" arrivalPos="11.74" arrivalSpeed="11.21" duration="22.00" routeLength="133.80" waitingTime="1.00" waitingCount="1" stopTime="0.00" timeLoss="11.77" rerouteNo="0" devices="tripinfo_flow_route_136_duration_20250327_2020.0" vType="car" speedFactor="1.01" vaporized=""/>
    <tripinfo id="flow_route_137_duration_20250327_2020.0" depart="0.00" departLane="1310781056_0" departPos="52.86" departSpeed="0.00" departDelay="0.00" arrival="22.00" arrivalLane="714011134#0_0" arrivalPos="51.79" arrivalSpeed="16.36" duration="22.00" routeLength="192.73" waitingTime="0.00" waitingCount="0" stopTime="0.00" timeLoss="10.02" rerouteNo="0" devices="tripinfo_flow_route_137_duration_20250327_2020.0" vType="car" speedFactor="1.08" vaporized=""/>
    <tripinfo id="flow_route_139_duration_20250327_2020.0" depart="1.00" departLane="1310781056_0" departPos="36.51" departSpeed="0.00" departDelay="1.00" arrival="27.00" arrivalLane="1254157399#1_1" arrivalPos="26.95" arrivalSpeed="10.52" duration="26.00" routeLength="180.27" waitingTime="0.00" waitingCount="0" stopTime="0.00" timeLoss="12.96" rerouteNo="0" devices="tripinfo_flow_route_139_duration_20250327_2020.0" vType="car" speedFactor="0.83" vaporized=""/>
    <tripinfo id="flow_route_134_duration_20250327_2020.0" depart="0.00" departLane="688883939#0_0" departPos="78.56" departSpeed="0.00" departDelay="0.00" arrival="28.00" arrivalLane="809719540#0_0" arrivalPos="239.32" arrivalSpeed="16.14" duration="28.00" routeLength="300.42" waitingTime="0.00" waitingCount="0" stopTime="0.00" timeLoss="9.69" rerouteNo="0" devices="tripinfo_flow_route_134_duration_20250327_2020.0" vType="car" speedFactor="1.06" vaporized=""/>
    <tripinfo id="flow_route_138_duration_20250327_2020.0" depart="1.00" departLane="1310781056_0" departPos="99.29" departSpeed="0.00" departDelay="1.00" arrival="35.00" arrivalLane="186410975#0_0" arrivalPos="152.27" arrivalSpeed="11.40" duration="34.00" routeLength="305.80" waitingTime="0.00" waitingCount="0" stopTime="0.00" timeLoss="11.06" rerouteNo="0" devices="tripinfo_flow_route_138_duration_20250327_2020.0" vType="car" speedFactor="1.03" vaporized=""/>
    <tripinfo id="flow_route_135_duration_20250327_2020.0" depart="0.00" departLane="688883939#0_0" departPos="0.64" departSpeed="0.00" departDelay="0.00" arrival="45.00" arrivalLane="1254157399#1_0" arrivalPos="440.36" arrivalSpeed="16.22" duration="45.00" routeLength="573.44" waitingTime="0.00" waitingCount="0" stopTime="0.00" timeLoss="9.38" rerouteNo="0" devices="tripinfo_flow_route_135_duration_20250327_2020.0" vType="car" speedFactor="0.94" vaporized=""/>
    <tripinfo id="flow_route_138_duration_20250327_2020.1" depart="9.00" departLane="1310781056_0" departPos="3.38" departSpeed="0.00" departDelay="1.50" arrival="45.00" arrivalLane="186410975#0_1" arrivalPos="61.10" arrivalSpeed="10.59" duration="36.00" routeLength="310.54" waitingTime="0.00" waitingCount="0" stopTime="0.00" timeLoss="15.04" rerouteNo="0" devices="tripinfo_flow_route_138_duration_20250327_2020.1" vType="car" speedFactor="0.99" vaporized=""/>
    <tripinfo id="flow_route_139_duration_20250327_2020.1" depart="5.00" departLane="1310781056_0" departPos="93.48" departSpeed="0.00" departDelay="0.39" arrival="48.00" arrivalLane="1254157399#1_0" arrivalPos="391.52" arrivalSpeed="16.38" duration="43.00" routeLength="487.87" waitingTime="0.00" waitingCount="0" stopTime="0.00" timeLoss="11.84" rerouteNo="0" devices="tripinfo_flow_route_139_duration_20250327_2020.1" vType="car" speedFactor="1.03" vaporized=""/>
    <tripinfo id="flow_route_152_duration_20250327_2020.2" depart="8.00" departLane="31861355#0_0" departPos="594.82" departSpeed="0.00" departDelay="0.50" arrival="50.00" arrivalLane="714011134#0_1" arrivalPos="31.80" arrivalSpeed="9.75" duration="42.00" routeLength="97.87" waitingTime="19.00" waitingCount="1" stopTime="0.00" timeLoss="35.09" rerouteNo="0" devices="tripinfo_flow_route_152_duration_20250327_2020.2" vType="car" speedFactor="0.88" vaporized=""/>
    <tripinfo id="flow_route_136_duration_20250327_2020.1" depart="13.00" departLane="688883939#0_0" departPos="70.44" departSpeed="0.00" departDelay="1.00" arrival="52.00" arrivalLane="186410975#0_0" arrivalPos="248.96" arrivalSpeed="12.78" duration="39.00" routeLength="371.54" waitingTime="0.00" waitingCount="0" stopTime="0.00" timeLoss="11.06" rerouteNo="0" devices="tripinfo_flow_route_136_duration_20250327_2020.1" vType="car" speedFactor="1.16" vaporized=""/>
    <tripinfo id="flow_route_152_duration_20250327_2020.4" depart="16.00" departLane="31861355#0_0" departPos="593.77" departSpeed="0.00" departDelay="1.00" arrival="52.00" arrivalLane="714011134#0_1" arrivalPos="32.44" arrivalSpeed="10.38" duration="36.00" routeLength="99.55" waitingTime="12.00" waitingCount="1" stopTime="0.00" timeLoss="29.15" rerouteNo="0" devices="tripinfo_flow_route_152_duration_20250327_2020.4" vType="car" speedFactor="0.92" vaporized=""/>
    <tripinfo id="flow_route_153_duration_20250327_2020.2" depart="13.00" departLane="31861355#0_0" departPos="444.94" departSpeed="0.00" departDelay="1.00" arrival="53.00" arrivalLane="809719540#0_0" arrivalPos="45.11" arrivalSpeed="9.76" duration="40.00" routeLength="231.28" waitingTime="3.00" waitingCount="1" stopTime="0.00" timeLoss="24.28" rerouteNo="0" devices="tripinfo_flow_route_153_duration_20250327_2020.2" vType="car" speedFactor="0.97" vaporized=""/>
    <tripinfo id="flow_route_152_duration_20250327_2020.3" depart="12.00" departLane="31861355#0_0" departPos="504.72" departSpeed="0.00" departDelay="0.75" arrival="54.00" arrivalLane="714011134#0_1" arrivalPos="23.52" arrivalSpeed="10.93" duration="42.00" routeLength="179.67" waitingTime="7.00" waitingCount="1" stopTime="0.00" timeLoss="30.54" rerouteNo="0" devices="tripinfo_flow_route_152_duration_20250327_2020.3" vType="car" speedFactor="1.01" vaporized=""/>
    <tripinfo id="flow_route_152_duration_20250327_2020.0" depart="0.00" departLane="31861355#0_0" departPos="164.48" departSpeed="0.00" departDelay="0.00" arrival="58.00" arrivalLane="714011134#0_1" arrivalPos="26.08" arrivalSpeed="11.44" duration="58.00" routeLength="522.49" waitingTime="0.00" waitingCount="0" stopTime="0.00" timeLoss="22.02" rerouteNo="0" devices="tripinfo_flow_route_152_duration_20250327_2020.0" vType="car" speedFactor="0.89" vaporized=""/>
    <tripinfo id="flow_route_139_duration_20250327_2020.3" depart="14.00" departLane="1310781056_0" departPos="78.43" departSpeed="0.00" departDelay="0.16" arrival="58.00" arrivalLane="1254157399#1_0" arrivalPos="368.50" arrivalSpeed="16.51" duration="44.00" routeLength="479.90" waitingTime="0.00" waitingCount="0" stopTime="0.00" timeLoss="13.28" rerouteNo="0" devices="tripinfo_flow_route_139_duration_20250327_2020.3" vType="car" speedFactor="0.89" vaporized=""/>
    <tripinfo id="flow_route_151_duration_20250327_2020.10" depart="27.00" departLane="31861355#0_0" departPos="607.40" departSpeed="0.00" departDelay="3.00" arrival="59.00" arrivalLane="186410975#0_1" arrivalPos="54.81" arrivalSpeed="13.04" duration="32.00" routeLength="174.63" waitingTime="5.00" waitingCount="1" stopTime="0.00" timeLoss="20.39" rerouteNo="0" devices="tripinfo_flow_route_151_duration_20250327_2020.10" vType="car" speedFactor="1.18" vaporized=""/>
    <tripinfo id="flow_route_153_duration_20250327_2020.1" depart="6.00" departLane="31861355#0_0" departPos="338.46" departSpeed="0.00" departDelay="0.00" arrival="60.00" arrivalLane="809719540#0_0" arrivalPos="106.52" arrivalSpeed="14.35" duration="54.00" routeLength="399.17" waitingTime="1.00" waitingCount="1" stopTime="0.00" timeLoss="28.59" rerouteNo="0" devices="tripinfo_flow_route_153_duration_20250327_2020.1" vType="car" speedFactor="1.12" vaporized=""/>
    <tripinfo id="flow_route_152_duration_20250327_2020.1" depart="4.00" departLane="31861355#0_0" departPos="190.94" departSpeed="0.00" departDelay="0.25" arrival="62.00" arrivalLane="714011134#0_1" arrivalPos="54.06" arrivalSpeed="13.05" duration="58.00" routeLength="524.01" waitingTime="0.00" waitingCount="0" stopTime="0.00" timeLoss="25.86" rerouteNo="0" devices="tripinfo_flow_route_152_duration_20250327_2020.1" vType="car" speedFactor="1.09" vaporized=""/>
    <tripinfo id="flow_route_139_duration_20250327_2020.2" depart="10.00" departLane="1310781056_0" departPos="14.67" departSpeed="0.00" departDelay="0.77" arrival="64.00" arrivalLane="1254157399#1_0" arrivalPos="423.41" arrivalSpeed="16.40" duration="54.00" routeLength="598.57" waitingTime="0.00" waitingCount="0" stopTime="0.00" timeLoss="15.85" rerouteNo="0" devices="tripinfo_flow_route_139_duration_20250327_2020.2" vType="car" speedFactor="0.94" vaporized=""/>
    <tripinfo id="flow_route_138_duration_20250327_2020.2" depart="15.00" departLane="1310781056_0" departPos="55.86" departSpeed="0.00" departDelay="0.00" arrival="65.00" arrivalLane="186410975#0_0" arrivalPos="241.35" arrivalSpeed="8.69" duration="50.00" routeLength="438.31" waitingTime="0.00" waitingCount="0" stopTime="0.00" timeLoss="10.73" rerouteNo="0" devices="tripinfo_flow_route_138_duration_20250327_2020.2" vType="car" speedFactor="0.83" vaporized=""/>
    <tripinfo id="flow_route_152_duration_20250327_2020.6" depart="24.00" departLane="31861355#0_0" departPos="263.16" departSpeed="0.00" departDelay="1.50" arrival="67.00" arrivalLane="714011134#0_1" arrivalPos="4.94" arrivalSpeed="16.39" duration="43.00" routeLength="402.65" waitingTime="0.00" waitingCount="0" stopTime="0.00" timeLoss="18.28" rerouteNo="0" devices="tripinfo_flow_route_152_duration_20250327_2020.6" vType="car" speedFactor="0.99" vaporized=""/>
    <tripinfo id="flow_route_153_duration_20250327_2020.0" depart="0.00" departLane="31861355#0_0" departPos="37.47" departSpeed="0.00" departDelay="0.00" arrival="69.00" arrivalLane="809719540#0_0" arrivalPos="146.46" arrivalSpeed="15.45" duration="69.00" routeLength="740.10" waitingTime="0.00" waitingCount="0" stopTime="0.00" timeLoss="19.83" rerouteNo="0" devices="tripinfo_flow_route_153_duration_20250327_2020.0" vType="car" speedFactor="0.94" vaporized=""/>
    <tripinfo id="flow_route_151_duration_20250327_2020.3" depart="8.00" departLane="31861355#0_0" departPos="98.93" departSpeed="0.00" departDelay="0.80" arrival="69.00" arrivalLane="186410975#0_0" arrivalPos="8.37" arrivalSpeed="10.08" duration="61.00" routeLength="636.64" waitingTime="0.00" waitingCount="0" stopTime="0.00" timeLoss="19.04" rerouteNo="0" devices="tripinfo_flow_route_151_duration_20250327_2020.3" vType="car" speedFactor="0.93" vaporized=""/>
    <tripinfo id="flow_route_152_duration_20250327_2020.8" depart="30.00" departLane="31861355#0_0" departPos="434.95" departSpeed="0.00" departDelay="0.00" arrival="69.00" arrivalLane="714011134#0_1" arrivalPos="102.38" arrivalSpeed="16.46" duration="39.00" routeLength="328.32" waitingTime="0.00" waitingCount="0" stopTime="0.00" timeLoss="18.24" rerouteNo="0" devices="tripinfo_flow_route_152_duration_20250327_2020.8" vType="car" speedFactor="1.09" vaporized=""/>
    <tripinfo id="flow_route_151_duration_20250327_2020.4" depart="11.00" departLane="31861355#0_0" departPos="255.78" departSpeed="0.00" departDelay="1.40" arrival="73.00" arrivalLane="186410975#0_0" arrivalPos="85.51" arrivalSpeed="10.29" duration="62.00" routeLength="556.95" waitingTime="0.00" waitingCount="0" stopTime="0.00" timeLoss="23.68" rerouteNo="0" devices="tripinfo_flow_route_151_duration_20250327_2020.4" vType="car" speedFactor="0.94" vaporized=""/>
    <tripinfo id="flow_route_153_duration_20250327_2020.8" depart="53.00" departLane="31861355#0_0" departPos="571.79" departSpeed="0.00" departDelay="5.00" arrival="74.00" arrivalLane="809719540#0_0" arrivalPos="41.19" arrivalSpeed="9.56" duration="21.00" routeLength="100.51" waitingTime="0.00" waitingCount="0" stopTime="0.00" timeLoss="14.30" rerouteNo="0" devices="tripinfo_flow_route_153_duration_20250327_2020.8" vType="car" speedFactor="1.02" vaporized=""/>
    <tripinfo id="flow_route_151_duration_20250327_2020.2" depart="5.00" departLane="31861355#0_0" departPos="551.93" departSpeed="0.00" departDelay="0.20" arrival="75.00" arrivalLane="186410975#0_0" arrivalPos="242.38" arrivalSpeed="11.59" duration="70.00" routeLength="417.65" waitingTime="16.00" waitingCount="1" stopTime="0.00" timeLoss="37.42" rerouteNo="0" devices="tripinfo_flow_route_151_duration_20250327_2020.2" vType="car" speedFactor="1.05" vaporized=""/>
    <tripinfo id="flow_route_152_duration_20250327_2020.12" depart="47.00" departLane="31861355#0_0" departPos="487.52" departSpeed="0.00" departDelay="2.00" arrival="75.00" arrivalLane="714011134#0_1" arrivalPos="1.23" arrivalSpeed="12.80" duration="28.00" routeLength="174.59" waitingTime="0.00" waitingCount="0" stopTime="0.00" timeLoss="16.67" rerouteNo="0" devices="tripinfo_flow_route_152_duration_20250327_2020.12" vType="car" speedFactor="0.94" vaporized=""/>
    <tripinfo id="flow_route_151_duration_20250327_2020.0" depart="0.00" departLane="31861355#0_0" departPos="352.12" departSpeed="0.00" departDelay="0.00" arrival="76.00" arrivalLane="186410975#0_0" arrivalPos="191.84" arrivalSpeed="11.39" duration="76.00" routeLength="566.94" waitingTime="7.00" waitingCount="1" stopTime="0.00" timeLoss="36.09" rerouteNo="0" devices="tripinfo_flow_route_151_duration_20250327_2020.0" vType="car" speedFactor="1.05" vaporized=""/>
    <tripinfo id="flow_route_151_duration_20250327_2020.22" depart="55.00" departLane="31861355#0_0" departPos="584.94" departSpeed="0.00" departDelay="2.20" arrival="80.00" arrivalLane="186410975#0_0" arrivalPos="58.33" arrivalSpeed="10.57" duration="25.00" routeLength="200.60" waitingTime="0.00" waitingCount="0" stopTime="0.00" timeLoss="9.97" rerouteNo="0" devices="tripinfo_flow_route_151_duration_20250327_2020.22" vType="car" speedFactor="0.96" vaporized=""/>
    <tripinfo id="flow_route_151_duration_20250327_2020.6" depart="15.00" departLane="31861355#0_0" departPos="360.69" departSpeed="0.00" departDelay="0.60" arrival="87.00" arrivalLane="186410975#0_0" arrivalPos="247.77" arrivalSpeed="9.31" duration="72.00" routeLength="614.29" waitingTime="0.00" waitingCount="0" stopTime="0.00" timeLoss="21.48" rerouteNo="0" devices="tripinfo_flow_route_151_duration_20250327_2020.6" vType="car" speedFactor="0.87" vaporized=""/>
    <tripinfo id="flow_route_151_duration_20250327_2020.1" depart="3.00" departLane="31861355#0_0" departPos="28.73" departSpeed="0.00" departDelay="0.60" arrival="88.00" arrivalLane="186410975#0_0" arrivalPos="176.45" arrivalSpeed="9.34" duration="85.00" routeLength="874.93" waitingTime="0.00" waitingCount="0" stopTime="0.00" timeLoss="18.62" rerouteNo="0" devices="tripinfo_flow_route_151_duration_20250327_2020.1" vType="car" speedFactor="0.86" vaporized=""/>
    <tripinfo id="flow_route_151_duration_20250327_2020.18" depart="46.00" departLane="31861355#0_0" departPos="509.48" departSpeed="0.00" departDelay="2.80" arrival="89.00" arrivalLane="186410975#0_1" arrivalPos="121.39" arrivalSpeed="11.25" duration="43.00" routeLength="339.12" waitingTime="0.00" waitingCount="0" stopTime="0.00" timeLoss="18.68" rerouteNo="0" devices="tripinfo_flow_route_151_duration_20250327_2020.18" vType="car" speedFactor="1.02" vaporized=""/>
    <tripinfo id="flow_route_153_duration_20250327_2020.7" depart="46.00" departLane="31861355#0_0" departPos="529.34" departSpeed="0.00" departDelay="4.00" arrival="91.00" arrivalLane="809719540#0_0" arrivalPos="242.64" arrivalSpeed="16.17" duration="45.00" routeLength="344.41" waitingTime="0.00" waitingCount="0" stopTime="0.00" timeLoss="22.70" rerouteNo="0" devices="tripinfo_flow_route_153_duration_20250327_2020.7" vType="car" speedFactor="1.12" vaporized=""/>
    <tripinfo id="flow_route_137_duration_20250327_2020.1" depart="31.00" departLane="1310781056_0" departPos="52.88" departSpeed="0.00" departDelay="1.00" arrival="93.00" arrivalLane="714011134#0_1" arrivalPos="92.09" arrivalSpeed="14.35" duration="62.00" routeLength="233.01" waitingTime="25.00" waitingCount="1" stopTime="0.00" timeLoss="47.11" rerouteNo="0" devices="tripinfo_flow_route_137_duration_20250327_2020.1" vType="car" speedFactor="1.04" vaporized=""/>
    <tripinfo id="flow_route_138_duration_20250327_2020.3" depart="23.00" departLane="1310781056_0" departPos="9.07" departSpeed="0.00" departDelay="0.50" arrival="96.00" arrivalLane="186410975#0_1" arrivalPos="46.63" arrivalSpeed="12.69" duration="73.00" routeLength="290.38" waitingTime="24.00" waitingCount="1" stopTime="0.00" timeLoss="53.98" rerouteNo="0" devices="tripinfo_flow_route_138_duration_20250327_2020.3" vType="car" speedFactor="1.17" vaporized=""/>
    <tripinfo id="flow_route_138_duration_20250327_2020.7" depart="53.00" departLane="1310781056_0" departPos="96.48" departSpeed="0.00" departDelay="0.50" arrival="99.00" arrivalLane="186410975#0_1" arrivalPos="25.22" arrivalSpeed="11.48" duration="46.00" routeLength="181.56" waitingTime="11.00" waitingCount="1" stopTime="0.00" timeLoss="33.35" rerouteNo="0" devices="tripinfo_flow_route_138_duration_20250327_2020.7" vType="car" speedFactor="1.06" vaporized=""/>
    <tripinfo id="flow_route_138_duration_20250327_2020.4" depart="31.00" departLane="1310781056_0" departPos="75.05" departSpeed="0.00" departDelay="1.00" arrival="103.00" arrivalLane="186410975#0_0" arrivalPos="148.07" arrivalSpeed="11.54" duration="72.00" routeLength="325.84" waitingTime="27.00" waitingCount="1" stopTime="0.00" timeLoss="47.96" rerouteNo="0" devices="tripinfo_flow_route_138_duration_20250327_2020.4" vType="car" speedFactor="1.04" vaporized=""/>
    <tripinfo id="flow_route_136_duration_20250327_2020.2" depart="24.00" departLane="688883939#0_0" departPos="64.85" departSpeed="0.00" departDelay="0.00" arrival="106.00" arrivalLane="186410975#0_1" arrivalPos="90.81" arrivalSpeed="11.00" duration="82.00" routeLength="218.98" waitingTime="43.00" waitingCount="2" stopTime="0.00" timeLoss="64.72" rerouteNo="0" devices="tripinfo_flow_route_136_duration_20250327_2020.2" vType="car" speedFactor="1.02" vaporized=""/>
    <tripinfo id="flow_route_139_duration_20250327_2020.5" depart="24.00" departLane="1310781056_0" departPos="44.20" departSpeed="0.00" departDelay="0.93" arrival="106.00" arrivalLane="1254157399#1_0" arrivalPos="179.26" arrivalSpeed="16.24" duration="82.00" routeLength="324.89" waitingTime="27.00" waitingCount="1" stopTime="0.00" timeLoss="60.87" rerouteNo="0" devices="tripinfo_flow_route_139_duration_20250327_2020.5" vType="car" speedFactor="0.97" vaporized=""/>
    <tripinfo id="flow_route_139_duration_20250327_2020.4" depart="19.00" departLane="1310781056_0" departPos="20.30" departSpeed="0.00" departDelay="0.54" arrival="108.00" arrivalLane="1254157399#1_0" arrivalPos="337.93" arrivalSpeed="16.28" duration="89.00" routeLength="507.46" waitingTime="34.00" waitingCount="1" stopTime="0.00" timeLoss="56.26" rerouteNo="0" devices="tripinfo_flow_route_139_duration_20250327_2020.4" vType="car" speedFactor="0.93" vaporized=""/>
    <tripinfo id="flow_route_136_duration_20250327_2020.4" depart="48.00" departLane="688883939#0_0" departPos="34.10" departSpeed="0.00" departDelay="0.00" arrival="111.00" arrivalLane="186410975#0_1" arrivalPos="85.91" arrivalSpeed="9.69" duration="63.00" routeLength="244.83" waitingTime="18.00" waitingCount="2" stopTime="0.00" timeLoss="42.55" rerouteNo="0" devices="tripinfo_flow_route_136_duration_20250327_2020.4" vType="car" speedFactor="0.91" vaporized=""/>
    <tripinfo id="flow_route_138_duration_20250327_2020.5" depart="38.00" departLane="1310781056_0" departPos="11.67" departSpeed="0.00" departDelay="0.50" arrival="115.00" arrivalLane="186410975#0_0" arrivalPos="175.73" arrivalSpeed="10.82" duration="77.00" routeLength="416.89" waitingTime="10.00" waitingCount="1" stopTime="0.00" timeLoss="45.36" rerouteNo="0" devices="tripinfo_flow_route_138_duration_20250327_2020.5" vType="car" speedFactor="1.00" vaporized=""/>
    <tripinfo id="flow_route_138_duration_20250327_2020.6" depart="47.00" departLane="1310781056_0" departPos="106.16" departSpeed="0.00" departDelay="2.00" arrival="117.00" arrivalLane="186410975#0_0" arrivalPos="237.11" arrivalSpeed="10.50" duration="70.00" routeLength="383.77" waitingTime="17.00" waitingCount="1" stopTime="0.00" timeLoss="38.33" rerouteNo="0" devices="tripinfo_flow_route_138_duration_20250327_2020.6" vType="car" speedFactor="0.99" vaporized=""/>
    <tripinfo id="flow_route_139_duration_20250327_2020.7" depart="36.00" departLane="1310781056_0" departPos="102.56" departSpeed="0.00" departDelay="3.70" arrival="118.00" arrivalLane="1254157399#1_0" arrivalPos="440.19" arrivalSpeed="16.21" duration="82.00" routeLength="527.45" waitingTime="28.00" waitingCount="1" stopTime="0.00" timeLoss="48.69" rerouteNo="0" devices="tripinfo_flow_route_139_duration_20250327_2020.7" vType="car" speedFactor="0.88" vaporized=""/>
    <tripinfo id="flow_route_139_duration_20250327_2020.10" depart="47.00" departLane="1310781056_0" departPos="95.67" departSpeed="0.00" departDelay="0.85" arrival="118.00" arrivalLane="1254157399#1_0" arrivalPos="301.26" arrivalSpeed="16.42" duration="71.00" routeLength="395.42" waitingTime="23.00" waitingCount="1" stopTime="0.00" timeLoss="45.10" rerouteNo="0" devices="tripinfo_flow_route_139_duration_20250327_2020.10" vType="car" speedFactor="0.91" vaporized=""/>
    <tripinfo id="flow_route_139_duration_20250327_2020.8" depart="37.00" departLane="1310781056_0" departPos="43.03" departSpeed="0.00" departDelay="0.08" arrival="119.00" arrivalLane="1254157399#1_0" arrivalPos="364.09" arrivalSpeed="16.40" duration="82.00" routeLength="510.89" waitingTime="24.00" waitingCount="1" stopTime="0.00" timeLoss="49.88" rerouteNo="0" devices="tripinfo_flow_route_139_duration_20250327_2020.8" vType="car" speedFactor="1.00" vaporized=""/>
    <tripinfo id="flow_route_136_duration_20250327_2020.3" depart="36.00" departLane="688883939#0_0" departPos="36.33" departSpeed="0.00" departDelay="0.00" arrival="121.00" arrivalLane="186410975#0_1" arrivalPos="252.49" arrivalSpeed="12.53" duration="85.00" routeLength="409.18" waitingTime="29.00" waitingCount="2" stopTime="0.00" timeLoss="54.54" rerouteNo="0" devices="tripinfo_flow_route_136_duration_20250327_2020.3" vType="car" speedFactor="1.17" vaporized=""/>
    <tripinfo id="flow_route_139_duration_20250327_2020.6" depart="29.00" departLane="1310781056_0" departPos="80.60" departSpeed="0.00" departDelay="1.31" arrival="122.00" arrivalLane="1254157399#1_0" arrivalPos="541.13" arrivalSpeed="16.52" duration="93.00" routeLength="650.36" waitingTime="31.00" waitingCount="1" stopTime="0.00" timeLoss="51.49" rerouteNo="0" devices="tripinfo_flow_route_139_duration_20250327_2020.6" vType="car" speedFactor="0.96" vaporized=""/>
    <tripinfo id="flow_route_153_duration_20250327_2020.6" depart="39.00" departLane="31861355#0_0" departPos="398.66" departSpeed="0.00" departDelay="3.00" arrival="124.00" arrivalLane="809719540#0_0" arrivalPos="41.25" arrivalSpeed="9.94" duration="85.00" routeLength="273.70" waitingTime="38.00" waitingCount="1" stopTime="0.00" timeLoss="67.39" rerouteNo="0" devices="tripinfo_flow_route_153_duration_20250327_2020.6" vType="car" speedFactor="1.10" vaporized=""/>
    <tripinfo id="flow_route_139_duration_20250327_2020.12" depart="56.00" departLane="1310781056_0" departPos="9.59" departSpeed="0.00" departDelay="0.62" arrival="128.00" arrivalLane="1254157399#1_0" arrivalPos="351.42" arrivalSpeed="16.52" duration="72.00" routeLength="531.66" waitingTime="10.00" waitingCount="1" stopTime="0.00" timeLoss="38.49" rerouteNo="0" devices="tripinfo_flow_route_139_duration_20250327_2020.12" vType="car" speedFactor="0.98" vaporized=""/>
    <tripinfo id="flow_route_152_duration_20250327_2020.5" depart="20.00" departLane="31861355#0_0" departPos="210.80" departSpeed="0.00" departDelay="1.25" arrival="130.00" arrivalLane="714011134#0_1" arrivalPos="97.81" arrivalSpeed="14.48" duration="110.00" routeLength="547.89" waitingTime="35.00" waitingCount="1" stopTime="0.00" timeLoss="76.96" rerouteNo="0" devices="tripinfo_flow_route_152_duration_20250327_2020.5" vType="car" speedFactor="1.18" vaporized=""/>
    <tripinfo id="flow_route_152_duration_20250327_2020.7" depart="29.00" departLane="31861355#0_0" departPos="264.33" departSpeed="0.00" departDelay="2.75" arrival="130.00" arrivalLane="714011134#0_1" arrivalPos="38.49" arrivalSpeed="11.56" duration="101.00" routeLength="435.03" waitingTime="33.00" waitingCount="1" stopTime="0.00" timeLoss="74.56" rerouteNo="0" devices="tripinfo_flow_route_152_duration_20250327_2020.7" vType="car" speedFactor="1.03" vaporized=""/>
    <tripinfo id="flow_route_139_duration_20250327_2020.11" depart="51.00" departLane="1310781056_0" departPos="89.53" departSpeed="0.00" departDelay="0.24" arrival="132.00" arrivalLane="1254157399#1_0" arrivalPos="495.52" arrivalSpeed="16.51" duration="81.00" routeLength="595.82" waitingTime="21.00" waitingCount="1" stopTime="0.00" timeLoss="43.46" rerouteNo="0" devices="tripinfo_flow_route_139_duration_20250327_2020.11" vType="car" speedFactor="0.97" vaporized=""/>
    <tripinfo id="flow_route_151_duration_20250327_2020.5" depart="12.00" departLane="31861355#0_0" departPos="150.10" departSpeed="0.00" departDelay="0.00" arrival="136.00" arrivalLane="186410975#0_1" arrivalPos="68.16" arrivalSpeed="10.93" duration="124.00" routeLength="645.27" waitingTime="33.00" waitingCount="1" stopTime="0.00" timeLoss="82.91" rerouteNo="0" devices="tripinfo_flow_route_151_duration_20250327_2020.5" vType="car" speedFactor="1.02" vaporized=""/>
    <tripinfo id="flow_route_153_duration_20250327_2020.3" depart="19.00" departLane="31861355#0_0" departPos="41.64" departSpeed="0.00" departDelay="1.00" arrival="137.00" arrivalLane="809719540#0_0" arrivalPos="40.78" arrivalSpeed="10.20" duration="118.00" routeLength="630.25" waitingTime="34.00" waitingCount="1" stopTime="0.00" timeLoss="78.50" rerouteNo="0" devices="tripinfo_flow_route_153_duration_20250327_2020.3" vType="car" speedFactor="1.13" vaporized=""/>
    <tripinfo id="flow_route_139_duration_20250327_2020.9" depart="42.00" departLane="1310781056_0" departPos="39.22" departSpeed="0.00" departDelay="0.47" arrival="139.00" arrivalLane="1254157399#1_0" arrivalPos="548.34" arrivalSpeed="16.22" duration="97.00" routeLength="698.95" waitingTime="19.00" waitingCount="1" stopTime="0.00" timeLoss="52.56" rerouteNo="0" devices="tripinfo_flow_route_139_duration_20250327_2020.9" vType="car" speedFactor="0.97" vaporized=""/>
    <tripinfo id="flow_route_152_duration_20250327_2020.9" depart="34.00" departLane="31861355#0_0" departPos="242.92" departSpeed="0.00" departDelay="0.25" arrival="140.00" arrivalLane="714011134#0_1" arrivalPos="92.95" arrivalSpeed="14.04" duration="106.00" routeLength="510.92" waitingTime="32.00" waitingCount="1" stopTime="0.00" timeLoss="69.60" rerouteNo="0" devices="tripinfo_flow_route_152_duration_20250327_2020.9" vType="car" speedFactor="0.85" vaporized=""/>
    <tripinfo id="flow_route_151_duration_20250327_2020.12" depart="30.00" departLane="31861355#0_0" departPos="255.61" departSpeed="0.00" departDelay="1.20" arrival="142.00" arrivalLane="186410975#0_0" arrivalPos="127.17" arrivalSpeed="11.62" duration="112.00" routeLength="598.76" waitingTime="37.00" waitingCount="1" stopTime="0.00" timeLoss="72.24" rerouteNo="0" devices="tripinfo_flow_route_151_duration_20250327_2020.12" vType="car" speedFactor="1.09" vaporized=""/>
    <tripinfo id="flow_route_152_duration_20250327_2020.15" depart="59.00" departLane="31861355#0_0" departPos="283.36" departSpeed="0.00" departDelay="2.75" arrival="142.00" arrivalLane="714011134#0_1" arrivalPos="3.65" arrivalSpeed="12.92" duration="83.00" routeLength="381.17" waitingTime="32.00" waitingCount="1" stopTime="0.00" timeLoss="59.83" rerouteNo="0" devices="tripinfo_flow_route_152_duration_20250327_2020.15" vType="car" speedFactor="1.09" vaporized=""/>
    <tripinfo id="flow_route_151_duration_20250327_2020.7" depart="18.00" departLane="31861355#0_0" departPos="17.31" departSpeed="0.00" departDelay="1.20" arrival="144.00" arrivalLane="186410975#0_1" arrivalPos="47.33" arrivalSpeed="10.51" duration="126.00" routeLength="757.23" waitingTime="32.00" waitingCount="2" stopTime="0.00" timeLoss="76.76" rerouteNo="0" devices="tripinfo_flow_route_151_duration_20250327_2020.7" vType="car" speedFactor="0.95" vaporized=""/>
    <tripinfo id="flow_route_153_duration_20250327_2020.5" depart="30.00" departLane="31861355#0_0" departPos="63.13" departSpeed="0.00" departDelay="0.00" arrival="144.00" arrivalLane="809719540#0_0" arrivalPos="79.59" arrivalSpeed="12.21" duration="114.00" routeLength="647.57" waitingTime="34.00" waitingCount="1" stopTime="0.00" timeLoss="73.19" rerouteNo="0" devices="tripinfo_flow_route_153_duration_20250327_2020.5" vType="car" speedFactor="1.00" vaporized=""/>