<?xml version="1.0" encoding="UTF-8"?>

<!-- generated on 2025-05-06 21:08:56 by Eclipse SUMO sumo Version 1.20.0
<configuration xmlns:xsi="http://www.w3.org/2001/XMLSchema-instance" xsi:noNamespaceSchemaLocation="http://sumo.dlr.de/xsd/sumoConfiguration.xsd">

    <input>
        <net-file value="osm.net.xml"/>
        <route-files value="xml/route_static_cluster_356722183_3828703848_7.rou.xml"/>
    </input>

    <output>
        <tripinfo-output value="xml/tripinfo_static_cluster_356722183_3828703848_7.xml"/>
    </output>

    <traci_server>
        <remote-port value="53717"/>
    </traci_server>

</configuration>
-->

<tripinfos xmlns:xsi="http://www.w3.org/2001/XMLSchema-instance" xsi:noNamespaceSchemaLocation="http://sumo.dlr.de/xsd/tripinfo_file.xsd">
    <tripinfo id="flow_route_18_duration_20250327_2250.0" depart="0.00" departLane="133126040#0_0" departPos="80.59" departSpeed="0.00" departDelay="0.00" arrival="13.00" arrivalLane="1318893695#0_0" arrivalPos="9.11" arrivalSpeed="10.19" duration="13.00" routeLength="59.37" waitingTime="0.00" waitingCount="0" stopTime="0.00" timeLoss="8.89" rerouteNo="0" devices="tripinfo_flow_route_18_duration_20250327_2250.0" vType="car" speedFactor="1.01" vaporized=""/>
    <tripinfo id="flow_route_19_duration_20250327_2250.0" depart="0.00" departLane="133126040#0_0" departPos="0.65" departSpeed="0.00" departDelay="0.00" arrival="32.00" arrivalLane="133126031#0_1" arrivalPos="163.43" arrivalSpeed="16.42" duration="32.00" routeLength="291.65" waitingTime="0.00" waitingCount="0" stopTime="0.00" timeLoss="13.20" rerouteNo="0" devices="tripinfo_flow_route_19_duration_20250327_2250.0" vType="car" speedFactor="1.08" vaporized=""/>
    <tripinfo id="flow_route_0_duration_20250327_2250.0" depart="0.00" departLane="1318793176#1_0" departPos="2.64" departSpeed="0.00" departDelay="0.00" arrival="36.00" arrivalLane="133126031#0_0" arrivalPos="296.30" arrivalSpeed="16.29" duration="36.00" routeLength="414.08" waitingTime="0.00" waitingCount="0" stopTime="0.00" timeLoss="10.48" rerouteNo="0" devices="tripinfo_flow_route_0_duration_20250327_2250.0" vType="car" speedFactor="1.06" vaporized=""/>
    <tripinfo id="flow_route_19_duration_20250327_2250.1" depart="10.00" departLane="133126040#0_0" departPos="25.60" departSpeed="0.00" departDelay="0.00" arrival="40.00" arrivalLane="133126031#0_1" arrivalPos="131.88" arrivalSpeed="16.47" duration="30.00" routeLength="235.15" waitingTime="0.00" waitingCount="0" stopTime="0.00" timeLoss="13.09" rerouteNo="0" devices="tripinfo_flow_route_19_duration_20250327_2250.1" vType="car" speedFactor="0.89" vaporized=""/>
    <tripinfo id="flow_route_19_duration_20250327_2250.2" depart="20.00" departLane="133126040#0_0" departPos="32.64" departSpeed="0.00" departDelay="0.00" arrival="40.00" arrivalLane="133126031#0_1" arrivalPos="10.78" arrivalSpeed="9.04" duration="20.00" routeLength="107.01" waitingTime="0.00" waitingCount="0" stopTime="0.00" timeLoss="11.66" rerouteNo="0" devices="tripinfo_flow_route_19_duration_20250327_2250.2" vType="car" speedFactor="0.94" vaporized=""/>
    <tripinfo id="flow_route_48_duration_20250327_2250.0" depart="2.00" departLane="380351865#0_0" departPos="1.03" departSpeed="0.00" departDelay="2.00" arrival="52.00" arrivalLane="133126031#0_0" arrivalPos="14.50" arrivalSpeed="7.77" duration="50.00" routeLength="180.64" waitingTime="18.00" waitingCount="1" stopTime="0.00" timeLoss="32.32" rerouteNo="0" devices="tripinfo_flow_route_48_duration_20250327_2250.0" vType="car" speedFactor="0.83" vaporized=""/>
    <tripinfo id="flow_route_48_duration_20250327_2250.1" depart="32.00" departLane="380351865#0_0" departPos="16.46" departSpeed="0.00" departDelay="2.00" arrival="56.00" arrivalLane="133126031#0_1" arrivalPos="9.92" arrivalSpeed="9.62" duration="24.00" routeLength="160.62" waitingTime="0.00" waitingCount="0" stopTime="0.00" timeLoss="11.18" rerouteNo="0" devices="tripinfo_flow_route_48_duration_20250327_2250.1" vType="car" speedFactor="1.05" vaporized=""/>
    <tripinfo id="flow_route_47_duration_20250327_2250.0" depart="0.00" departLane="380351865#0_0" departPos="11.49" departSpeed="0.00" departDelay="0.00" arrival="57.00" arrivalLane="1318793173#0_1" arrivalPos="63.76" arrivalSpeed="11.32" duration="57.00" routeLength="213.71" waitingTime="22.00" waitingCount="1" stopTime="0.00" timeLoss="40.15" rerouteNo="0" devices="tripinfo_flow_route_47_duration_20250327_2250.0" vType="car" speedFactor="1.03" vaporized=""/>
    <tripinfo id="flow_route_47_duration_20250327_2250.1" depart="30.00" departLane="380351865#0_0" departPos="2.21" departSpeed="0.00" departDelay="0.00" arrival="62.00" arrivalLane="1318793173#0_1" arrivalPos="103.38" arrivalSpeed="13.90" duration="32.00" routeLength="262.61" waitingTime="0.00" waitingCount="0" stopTime="0.00" timeLoss="11.65" rerouteNo="0" devices="tripinfo_flow_route_47_duration_20250327_2250.1" vType="car" speedFactor="1.03" vaporized=""/>
    <tripinfo id="flow_route_49_duration_20250327_2250.0" depart="10.00" departLane="380351865#0_0" departPos="9.29" departSpeed="0.00" departDelay="10.00" arrival="63.00" arrivalLane="1318893695#0_0" arrivalPos="148.83" arrivalSpeed="15.21" duration="53.00" routeLength="283.42" waitingTime="14.00" waitingCount="1" stopTime="0.00" timeLoss="31.74" rerouteNo="0" devices="tripinfo_flow_route_49_duration_20250327_2250.0" vType="car" speedFactor="1.05" vaporized=""/>
    <tripinfo id="flow_route_0_duration_20250327_2250.1" depart="30.00" departLane="1318793176#1_0" departPos="7.32" departSpeed="0.00" departDelay="0.00" arrival="76.00" arrivalLane="133126031#0_0" arrivalPos="254.24" arrivalSpeed="16.38" duration="46.00" routeLength="367.34" waitingTime="0.00" waitingCount="0" stopTime="0.00" timeLoss="22.02" rerouteNo="0" devices="tripinfo_flow_route_0_duration_20250327_2250.1" vType="car" speedFactor="0.86" vaporized=""/>
    <tripinfo id="flow_route_1_duration_20250327_2250.0" depart="4.00" departLane="1318793176#1_0" departPos="0.49" departSpeed="0.00" departDelay="4.00" arrival="79.00" arrivalLane="1318793173#0_1" arrivalPos="77.00" arrivalSpeed="12.18" duration="75.00" routeLength="200.41" waitingTime="40.00" waitingCount="1" stopTime="0.00" timeLoss="61.77" rerouteNo="0" devices="tripinfo_flow_route_1_duration_20250327_2250.0" vType="car" speedFactor="0.94" vaporized=""/>
    <tripinfo id="flow_route_19_duration_20250327_2250.3" depart="30.00" departLane="133126040#0_0" departPos="35.83" departSpeed="0.00" departDelay="0.00" arrival="84.00" arrivalLane="133126031#0_1" arrivalPos="52.91" arrivalSpeed="10.66" duration="54.00" routeLength="145.95" waitingTime="22.00" waitingCount="2" stopTime="0.00" timeLoss="43.93" rerouteNo="0" devices="tripinfo_flow_route_19_duration_20250327_2250.3" vType="car" speedFactor="1.09" vaporized=""/>
    <tripinfo id="flow_route_19_duration_20250327_2250.4" depart="40.00" departLane="133126040#0_0" departPos="24.13" departSpeed="0.00" departDelay="0.00" arrival="90.00" arrivalLane="133126031#0_1" arrivalPos="87.82" arrivalSpeed="12.63" duration="50.00" routeLength="192.55" waitingTime="12.00" waitingCount="2" stopTime="0.00" timeLoss="37.08" rerouteNo="0" devices="tripinfo_flow_route_19_duration_20250327_2250.4" vType="car" speedFactor="1.12" vaporized=""/>
    <tripinfo id="flow_route_19_duration_20250327_2250.5" depart="50.00" departLane="133126040#0_0" departPos="61.83" departSpeed="0.00" departDelay="0.00" arrival="90.00" arrivalLane="133126031#0_1" arrivalPos="55.85" arrivalSpeed="11.36" duration="40.00" routeLength="122.90" waitingTime="7.00" waitingCount="2" stopTime="0.00" timeLoss="30.77" rerouteNo="0" devices="tripinfo_flow_route_19_duration_20250327_2250.5" vType="car" speedFactor="0.99" vaporized=""/>
</tripinfos>
