<?xml version="1.0" encoding="UTF-8"?>

<!-- generated on 2025-05-06 21:07:45 by Eclipse SUMO sumo Version 1.20.0
<configuration xmlns:xsi="http://www.w3.org/2001/XMLSchema-instance" xsi:noNamespaceSchemaLocation="http://sumo.dlr.de/xsd/sumoConfiguration.xsd">

    <input>
        <net-file value="osm.net.xml"/>
        <route-files value="xml/route_static_cluster_2271368471_4779869278_0.rou.xml"/>
    </input>

    <output>
        <tripinfo-output value="xml/tripinfo_static_cluster_2271368471_4779869278_0.xml"/>
    </output>

    <traci_server>
        <remote-port value="60719"/>
    </traci_server>

</configuration>
-->

<tripinfos xmlns:xsi="http://www.w3.org/2001/XMLSchema-instance" xsi:noNamespaceSchemaLocation="http://sumo.dlr.de/xsd/tripinfo_file.xsd">
    <tripinfo id="flow_route_36_duration_20250327_1950.0" depart="0.00" departLane="485211947#0_0" departPos="162.24" departSpeed="0.00" departDelay="0.00" arrival="23.00" arrivalLane="137415945#0_0" arrivalPos="6.94" arrivalSpeed="15.59" duration="23.00" routeLength="189.23" waitingTime="0.00" waitingCount="0" stopTime="0.00" timeLoss="10.36" rerouteNo="0" devices="tripinfo_flow_route_36_duration_20250327_1950.0" vType="car" speedFactor="0.94" vaporized=""/>
    <tripinfo id="flow_route_37_duration_20250327_1950.2" depart="10.00" departLane="485211947#0_0" departPos="176.93" departSpeed="0.00" departDelay="3.69" arrival="23.00" arrivalLane="-430406005#1_1" arrivalPos="23.11" arrivalSpeed="9.60" duration="13.00" routeLength="59.15" waitingTime="0.00" waitingCount="0" stopTime="0.00" timeLoss="8.35" rerouteNo="0" devices="tripinfo_flow_route_37_duration_20250327_1950.2" vType="car" speedFactor="1.16" vaporized=""/>
    <tripinfo id="flow_route_37_duration_20250327_1950.0" depart="0.00" departLane="485211947#0_0" departPos="59.66" departSpeed="0.00" departDelay="0.00" arrival="33.00" arrivalLane="-430406005#1_1" arrivalPos="133.07" arrivalSpeed="16.45" duration="33.00" routeLength="286.39" waitingTime="0.00" waitingCount="0" stopTime="0.00" timeLoss="13.04" rerouteNo="0" devices="tripinfo_flow_route_37_duration_20250327_1950.0" vType="car" speedFactor="0.86" vaporized=""/>
    <tripinfo id="flow_route_36_duration_20250327_1950.1" depart="4.00" departLane="485211947#0_0" departPos="43.86" departSpeed="0.00" departDelay="0.84" arrival="34.00" arrivalLane="137415945#0_1" arrivalPos="10.49" arrivalSpeed="16.26" duration="30.00" routeLength="311.16" waitingTime="0.00" waitingCount="0" stopTime="0.00" timeLoss="10.98" rerouteNo="0" devices="tripinfo_flow_route_36_duration_20250327_1950.1" vType="car" speedFactor="1.05" vaporized=""/>
    <tripinfo id="flow_route_35_duration_20250327_1950.2" depart="9.00" departLane="485211947#0_0" departPos="132.59" departSpeed="0.00" departDelay="2.33" arrival="39.00" arrivalLane="1369578054_0" arrivalPos="205.27" arrivalSpeed="15.56" duration="30.00" routeLength="270.15" waitingTime="0.00" waitingCount="0" stopTime="0.00" timeLoss="11.62" rerouteNo="0" devices="tripinfo_flow_route_35_duration_20250327_1950.2" vType="car" speedFactor="0.94" vaporized=""/>
    <tripinfo id="flow_route_35_duration_20250327_1950.0" depart="0.00" departLane="485211947#0_0" departPos="11.17" departSpeed="0.00" departDelay="0.00" arrival="40.00" arrivalLane="1369578054_0" arrivalPos="74.16" arrivalSpeed="12.70" duration="40.00" routeLength="260.46" waitingTime="0.00" waitingCount="0" stopTime="0.00" timeLoss="20.89" rerouteNo="0" devices="tripinfo_flow_route_35_duration_20250327_1950.0" vType="car" speedFactor="0.89" vaporized=""/>
    <tripinfo id="flow_route_36_duration_20250327_1950.2" depart="10.00" departLane="485211947#0_0" departPos="31.20" departSpeed="0.00" departDelay="3.69" arrival="42.00" arrivalLane="137415945#0_1" arrivalPos="4.22" arrivalSpeed="15.18" duration="32.00" routeLength="317.54" waitingTime="0.00" waitingCount="0" stopTime="0.00" timeLoss="11.27" rerouteNo="0" devices="tripinfo_flow_route_36_duration_20250327_1950.2" vType="car" speedFactor="0.94" vaporized=""/>
    <tripinfo id="flow_route_37_duration_20250327_1950.4" depart="21.00" departLane="485211947#0_0" departPos="163.43" departSpeed="0.00" departDelay="8.37" arrival="42.00" arrivalLane="-430406005#1_1" arrivalPos="60.54" arrivalSpeed="12.28" duration="21.00" routeLength="110.10" waitingTime="0.00" waitingCount="0" stopTime="0.00" timeLoss="13.19" rerouteNo="0" devices="tripinfo_flow_route_37_duration_20250327_1950.4" vType="car" speedFactor="1.15" vaporized=""/>
    <tripinfo id="flow_route_37_duration_20250327_1950.1" depart="4.00" departLane="485211947#0_0" departPos="6.01" departSpeed="0.00" departDelay="0.84" arrival="45.00" arrivalLane="-430406005#1_1" arrivalPos="158.52" arrivalSpeed="16.21" duration="41.00" routeLength="365.49" waitingTime="0.00" waitingCount="0" stopTime="0.00" timeLoss="17.52" rerouteNo="0" devices="tripinfo_flow_route_37_duration_20250327_1950.1" vType="car" speedFactor="1.12" vaporized=""/>
    <tripinfo id="flow_route_36_duration_20250327_1950.4" depart="18.00" departLane="485211947#0_0" departPos="84.45" departSpeed="0.00" departDelay="5.37" arrival="45.00" arrivalLane="137415945#0_0" arrivalPos="4.00" arrivalSpeed="16.35" duration="27.00" routeLength="264.07" waitingTime="0.00" waitingCount="0" stopTime="0.00" timeLoss="11.08" rerouteNo="0" devices="tripinfo_flow_route_36_duration_20250327_1950.4" vType="car" speedFactor="1.18" vaporized=""/>
    <tripinfo id="flow_route_35_duration_20250327_1950.1" depart="4.00" departLane="485211947#0_0" departPos="100.86" departSpeed="0.00" departDelay="0.67" arrival="46.00" arrivalLane="1369578054_0" arrivalPos="281.37" arrivalSpeed="16.12" duration="42.00" routeLength="377.98" waitingTime="0.00" waitingCount="0" stopTime="0.00" timeLoss="17.81" rerouteNo="0" devices="tripinfo_flow_route_35_duration_20250327_1950.1" vType="car" speedFactor="1.03" vaporized=""/>
    <tripinfo id="flow_route_36_duration_20250327_1950.3" depart="16.00" departLane="485211947#0_0" departPos="56.09" departSpeed="0.00" departDelay="6.53" arrival="46.00" arrivalLane="137415945#0_1" arrivalPos="3.92" arrivalSpeed="15.04" duration="30.00" routeLength="292.35" waitingTime="0.00" waitingCount="0" stopTime="0.00" timeLoss="10.46" rerouteNo="0" devices="tripinfo_flow_route_36_duration_20250327_1950.3" vType="car" speedFactor="0.92" vaporized=""/>
    <tripinfo id="flow_route_37_duration_20250327_1950.3" depart="16.00" departLane="485211947#0_0" departPos="19.40" departSpeed="0.00" departDelay="6.53" arrival="50.00" arrivalLane="-430406005#1_1" arrivalPos="87.97" arrivalSpeed="13.45" duration="34.00" routeLength="281.55" waitingTime="0.00" waitingCount="0" stopTime="0.00" timeLoss="15.44" rerouteNo="0" devices="tripinfo_flow_route_37_duration_20250327_1950.3" vType="car" speedFactor="0.95" vaporized=""/>
    <tripinfo id="flow_route_36_duration_20250327_1950.5" depart="26.00" departLane="485211947#0_0" departPos="89.44" departSpeed="0.00" departDelay="10.22" arrival="52.00" arrivalLane="137415945#0_1" arrivalPos="4.65" arrivalSpeed="16.47" duration="26.00" routeLength="259.74" waitingTime="0.00" waitingCount="0" stopTime="0.00" timeLoss="9.92" rerouteNo="0" devices="tripinfo_flow_route_36_duration_20250327_1950.5" vType="car" speedFactor="1.10" vaporized=""/>
    <tripinfo id="flow_route_35_duration_20250327_1950.3" depart="13.00" departLane="485211947#0_0" departPos="105.09" departSpeed="0.00" departDelay="3.00" arrival="53.00" arrivalLane="1369578054_0" arrivalPos="287.64" arrivalSpeed="14.51" duration="40.00" routeLength="380.01" waitingTime="0.00" waitingCount="0" stopTime="0.00" timeLoss="12.61" rerouteNo="0" devices="tripinfo_flow_route_35_duration_20250327_1950.3" vType="car" speedFactor="0.87" vaporized=""/>
    <tripinfo id="flow_route_30_duration_20250327_1950.0" depart="0.00" departLane="1235147073.116_0" departPos="7.14" departSpeed="0.00" departDelay="0.00" arrival="56.00" arrivalLane="133126030#0_0" arrivalPos="8.43" arrivalSpeed="6.79" duration="56.00" routeLength="175.81" waitingTime="24.00" waitingCount="1" stopTime="0.00" timeLoss="45.13" rerouteNo="0" devices="tripinfo_flow_route_30_duration_20250327_1950.0" vType="car" speedFactor="1.01" vaporized=""/>
    <tripinfo id="flow_route_36_duration_20250327_1950.8" depart="38.00" departLane="485211947#0_0" departPos="182.01" departSpeed="0.00" departDelay="12.74" arrival="59.00" arrivalLane="137415945#0_0" arrivalPos="0.19" arrivalSpeed="14.43" duration="21.00" routeLength="162.71" waitingTime="0.00" waitingCount="0" stopTime="0.00" timeLoss="11.12" rerouteNo="0" devices="tripinfo_flow_route_36_duration_20250327_1950.8" vType="car" speedFactor="1.02" vaporized=""/>
    <tripinfo id="flow_route_30_duration_20250327_1950.1" depart="23.00" departLane="1235147073.116_0" departPos="5.28" departSpeed="0.00" departDelay="15.50" arrival="60.00" arrivalLane="133126030#0_1" arrivalPos="41.34" arrivalSpeed="10.20" duration="37.00" routeLength="210.59" waitingTime="3.00" waitingCount="1" stopTime="0.00" timeLoss="23.78" rerouteNo="0" devices="tripinfo_flow_route_30_duration_20250327_1950.1" vType="car" speedFactor="1.02" vaporized=""/>
    <tripinfo id="flow_route_30_duration_20250327_1950.2" depart="35.00" departLane="1235147073.116_0" departPos="3.38" departSpeed="0.00" departDelay="20.00" arrival="61.00" arrivalLane="133126030#0_1" arrivalPos="39.35" arrivalSpeed="10.76" duration="26.00" routeLength="210.49" waitingTime="0.00" waitingCount="0" stopTime="0.00" timeLoss="13.19" rerouteNo="0" devices="tripinfo_flow_route_30_duration_20250327_1950.2" vType="car" speedFactor="0.99" vaporized=""/>
    <tripinfo id="flow_route_31_duration_20250327_1950.0" depart="2.00" departLane="1235147073.116_0" departPos="0.71" departSpeed="0.00" departDelay="2.00" arrival="64.00" arrivalLane="-430406005#1_0" arrivalPos="87.77" arrivalSpeed="12.51" duration="62.00" routeLength="250.02" waitingTime="24.00" waitingCount="1" stopTime="0.00" timeLoss="46.20" rerouteNo="0" devices="tripinfo_flow_route_31_duration_20250327_1950.0" vType="car" speedFactor="1.08" vaporized=""/>
    <tripinfo id="flow_route_31_duration_20250327_1950.1" depart="15.00" departLane="1235147073.116_0" departPos="5.97" departSpeed="0.00" departDelay="10.00" arrival="64.00" arrivalLane="-430406005#1_0" arrivalPos="53.89" arrivalSpeed="10.86" duration="49.00" routeLength="210.88" waitingTime="13.00" waitingCount="1" stopTime="0.00" timeLoss="35.27" rerouteNo="0" devices="tripinfo_flow_route_31_duration_20250327_1950.1" vType="car" speedFactor="0.99" vaporized=""/>
    <tripinfo id="flow_route_32_duration_20250327_1950.2" depart="19.00" departLane="1235147073.116_0" departPos="4.54" departSpeed="0.00" departDelay="13.29" arrival="65.00" arrivalLane="1369578054_1" arrivalPos="47.67" arrivalSpeed="12.09" duration="46.00" routeLength="222.87" waitingTime="9.00" waitingCount="1" stopTime="0.00" timeLoss="30.17" rerouteNo="0" devices="tripinfo_flow_route_32_duration_20250327_1950.2" vType="car" speedFactor="0.93" vaporized=""/>
    <tripinfo id="flow_route_32_duration_20250327_1950.3" depart="28.00" departLane="1235147073.116_0" departPos="0.18" departSpeed="0.00" departDelay="19.43" arrival="65.00" arrivalLane="1369578054_1" arrivalPos="26.67" arrivalSpeed="10.99" duration="37.00" routeLength="206.23" waitingTime="1.00" waitingCount="1" stopTime="0.00" timeLoss="23.05" rerouteNo="0" devices="tripinfo_flow_route_32_duration_20250327_1950.3" vType="car" speedFactor="0.97" vaporized=""/>
    <tripinfo id="flow_route_32_duration_20250327_1950.1" depart="11.00" departLane="1235147073.116_0" departPos="2.32" departSpeed="0.00" departDelay="8.14" arrival="66.00" arrivalLane="1369578054_1" arrivalPos="92.01" arrivalSpeed="13.92" duration="55.00" routeLength="269.41" waitingTime="15.00" waitingCount="1" stopTime="0.00" timeLoss="37.57" rerouteNo="0" devices="tripinfo_flow_route_32_duration_20250327_1950.1" vType="car" speedFactor="1.09" vaporized=""/>
    <tripinfo id="flow_route_32_duration_20250327_1950.0" depart="7.00" departLane="1235147073.116_0" departPos="1.92" departSpeed="0.00" departDelay="7.00" arrival="69.00" arrivalLane="1369578054_1" arrivalPos="176.77" arrivalSpeed="16.12" duration="62.00" routeLength="354.58" waitingTime="18.00" waitingCount="1" stopTime="0.00" timeLoss="39.53" rerouteNo="0" devices="tripinfo_flow_route_32_duration_20250327_1950.0" vType="car" speedFactor="1.03" vaporized=""/>
    <tripinfo id="flow_route_31_duration_20250327_1950.4" depart="46.00" departLane="1235147073.116_0" departPos="5.23" departSpeed="0.00" departDelay="26.00" arrival="70.00" arrivalLane="-430406005#1_0" arrivalPos="18.13" arrivalSpeed="9.73" duration="24.00" routeLength="175.86" waitingTime="0.00" waitingCount="0" stopTime="0.00" timeLoss="12.73" rerouteNo="0" devices="tripinfo_flow_route_31_duration_20250327_1950.4" vType="car" speedFactor="1.09" vaporized=""/>
    <tripinfo id="flow_route_31_duration_20250327_1950.2" depart="29.00" departLane="1235147073.116_0" departPos="12.54" departSpeed="0.00" departDelay="19.00" arrival="71.00" arrivalLane="-430406005#1_0" arrivalPos="123.51" arrivalSpeed="16.18" duration="42.00" routeLength="273.93" waitingTime="1.00" waitingCount="1" stopTime="0.00" timeLoss="22.65" rerouteNo="0" devices="tripinfo_flow_route_31_duration_20250327_1950.2" vType="car" speedFactor="0.89" vaporized=""/>
    <tripinfo id="flow_route_31_duration_20250327_1950.3" depart="35.00" departLane="1235147073.116_0" departPos="14.05" departSpeed="0.00" departDelay="20.00" arrival="73.00" arrivalLane="-430406005#1_0" arrivalPos="121.21" arrivalSpeed="16.04" duration="38.00" routeLength="270.11" waitingTime="0.00" waitingCount="0" stopTime="0.00" timeLoss="20.19" rerouteNo="0" devices="tripinfo_flow_route_31_duration_20250327_1950.3" vType="car" speedFactor="1.02" vaporized=""/>
    <tripinfo id="flow_route_32_duration_20250327_1950.5" depart="40.00" departLane="1235147073.116_0" departPos="3.54" departSpeed="0.00" departDelay="25.72" arrival="77.00" arrivalLane="1369578054_1" arrivalPos="126.81" arrivalSpeed="16.15" duration="37.00" routeLength="303.01" waitingTime="0.00" waitingCount="0" stopTime="0.00" timeLoss="16.87" rerouteNo="0" devices="tripinfo_flow_route_32_duration_20250327_1950.5" vType="car" speedFactor="0.97" vaporized=""/>
    <tripinfo id="flow_route_32_duration_20250327_1950.6" depart="43.00" departLane="1235147073.116_0" departPos="0.48" departSpeed="0.00" departDelay="25.86" arrival="80.00" arrivalLane="1369578054_1" arrivalPos="127.38" arrivalSpeed="15.50" duration="37.00" routeLength="306.63" waitingTime="0.00" waitingCount="0" stopTime="0.00" timeLoss="16.54" rerouteNo="0" devices="tripinfo_flow_route_32_duration_20250327_1950.6" vType="car" speedFactor="0.96" vaporized=""/>
    <tripinfo id="flow_route_32_duration_20250327_1950.7" depart="46.00" departLane="1235147073.116_0" departPos="13.59" departSpeed="0.00" departDelay="26.00" arrival="82.00" arrivalLane="1369578054_1" arrivalPos="139.73" arrivalSpeed="16.28" duration="36.00" routeLength="305.87" waitingTime="0.00" waitingCount="0" stopTime="0.00" timeLoss="16.63" rerouteNo="0" devices="tripinfo_flow_route_32_duration_20250327_1950.7" vType="car" speedFactor="1.00" vaporized=""/>
    <tripinfo id="flow_route_30_duration_20250327_1950.3" depart="51.00" departLane="1235147073.116_0" departPos="3.68" departSpeed="0.00" departDelay="28.50" arrival="82.00" arrivalLane="133126030#0_0" arrivalPos="125.13" arrivalSpeed="14.11" duration="31.00" routeLength="295.97" waitingTime="0.00" waitingCount="0" stopTime="0.00" timeLoss="9.53" rerouteNo="0" devices="tripinfo_flow_route_30_duration_20250327_1950.3" vType="car" speedFactor="0.85" vaporized=""/>
    <tripinfo id="flow_route_32_duration_20250327_1950.4" depart="31.00" departLane="1235147073.116_0" departPos="4.95" departSpeed="0.00" departDelay="19.57" arrival="85.00" arrivalLane="1369578054_1" arrivalPos="278.10" arrivalSpeed="15.24" duration="54.00" routeLength="452.88" waitingTime="0.00" waitingCount="0" stopTime="0.00" timeLoss="23.10" rerouteNo="0" devices="tripinfo_flow_route_32_duration_20250327_1950.4" vType="car" speedFactor="0.93" vaporized=""/>
    <tripinfo id="flow_route_31_duration_20250327_1950.5" depart="58.00" departLane="1235147073.116_0" departPos="13.77" departSpeed="0.00" departDelay="33.00" arrival="92.00" arrivalLane="-430406005#1_0" arrivalPos="152.97" arrivalSpeed="16.37" duration="34.00" routeLength="302.16" waitingTime="0.00" waitingCount="0" stopTime="0.00" timeLoss="13.82" rerouteNo="0" devices="tripinfo_flow_route_31_duration_20250327_1950.5" vType="car" speedFactor="0.90" vaporized=""/>
    <tripinfo id="flow_route_30_duration_20250327_1950.4" depart="65.00" departLane="1235147073.116_0" departPos="7.97" departSpeed="0.00" departDelay="35.00" arrival="93.00" arrivalLane="133126030#0_0" arrivalPos="90.32" arrivalSpeed="14.47" duration="28.00" routeLength="256.87" waitingTime="0.00" waitingCount="0" stopTime="0.00" timeLoss="10.37" rerouteNo="0" devices="tripinfo_flow_route_30_duration_20250327_1950.4" vType="car" speedFactor="0.88" vaporized=""/>
    <tripinfo id="flow_route_32_duration_20250327_1950.9" depart="60.00" departLane="1235147073.116_0" departPos="2.29" departSpeed="0.00" departDelay="34.29" arrival="96.00" arrivalLane="1369578054_1" arrivalPos="164.57" arrivalSpeed="16.36" duration="36.00" routeLength="342.02" waitingTime="0.00" waitingCount="0" stopTime="0.00" timeLoss="14.79" rerouteNo="0" devices="tripinfo_flow_route_32_duration_20250327_1950.9" vType="car" speedFactor="1.14" vaporized=""/>
    <tripinfo id="flow_route_32_duration_20250327_1950.10" depart="62.00" departLane="1235147073.116_0" departPos="6.47" departSpeed="0.00" departDelay="33.43" arrival="100.00" arrivalLane="1369578054_1" arrivalPos="123.41" arrivalSpeed="16.57" duration="38.00" routeLength="296.67" waitingTime="1.00" waitingCount="1" stopTime="0.00" timeLoss="18.62" rerouteNo="0" devices="tripinfo_flow_route_32_duration_20250327_1950.10" vType="car" speedFactor="1.02" vaporized=""/>
    <tripinfo id="flow_route_32_duration_20250327_1950.8" depart="56.00" departLane="1235147073.116_0" departPos="2.20" departSpeed="0.00" departDelay="33.14" arrival="103.00" arrivalLane="1369578054_0" arrivalPos="293.11" arrivalSpeed="13.76" duration="47.00" routeLength="470.64" waitingTime="0.00" waitingCount="0" stopTime="0.00" timeLoss="12.39" rerouteNo="0" devices="tripinfo_flow_route_32_duration_20250327_1950.8" vType="car" speedFactor="0.85" vaporized=""/>
    <tripinfo id="flow_route_33_duration_20250327_1950.0" depart="0.00" departLane="133126008#0_0" departPos="101.07" departSpeed="0.00" departDelay="0.00" arrival="104.00" arrivalLane="1369578054_1" arrivalPos="13.07" arrivalSpeed="9.55" duration="104.00" routeLength="125.36" waitingTime="76.00" waitingCount="1" stopTime="0.00" timeLoss="95.55" rerouteNo="0" devices="tripinfo_flow_route_33_duration_20250327_1950.0" vType="car" speedFactor="0.83" vaporized=""/>
    <tripinfo id="flow_route_33_duration_20250327_1950.1" depart="8.00" departLane="133126008#0_0" departPos="144.87" departSpeed="0.00" departDelay="0.50" arrival="107.00" arrivalLane="1369578054_0" arrivalPos="50.33" arrivalSpeed="11.95" duration="99.00" routeLength="118.81" waitingTime="73.00" waitingCount="1" stopTime="0.00" timeLoss="91.40" rerouteNo="0" devices="tripinfo_flow_route_33_duration_20250327_1950.1" vType="car" speedFactor="1.01" vaporized=""/>
    <tripinfo id="flow_route_29_duration_20250327_1950.1" depart="7.00" departLane="-422986370#2_0" departPos="288.93" departSpeed="0.00" departDelay="0.33" arrival="112.00" arrivalLane="137415945#0_0" arrivalPos="0.38" arrivalSpeed="14.52" duration="105.00" routeLength="157.27" waitingTime="80.00" waitingCount="1" stopTime="0.00" timeLoss="92.60" rerouteNo="0" devices="tripinfo_flow_route_29_duration_20250327_1950.1" vType="car" speedFactor="0.88" vaporized=""/>
    <tripinfo id="flow_route_28_duration_20250327_1950.2" depart="24.00" departLane="-422986370#2_0" departPos="30.82" departSpeed="0.00" departDelay="0.00" arrival="112.00" arrivalLane="-430406005#1_1" arrivalPos="49.52" arrivalSpeed="12.43" duration="88.00" routeLength="353.13" waitingTime="42.00" waitingCount="1" stopTime="0.00" timeLoss="66.03" rerouteNo="0" devices="tripinfo_flow_route_28_duration_20250327_1950.2" vType="car" speedFactor="1.00" vaporized=""/>
    <tripinfo id="flow_route_34_duration_20250327_1950.0" depart="0.00" departLane="133126008#0_0" departPos="47.21" departSpeed="0.00" departDelay="0.00" arrival="113.00" arrivalLane="133126030#0_0" arrivalPos="137.72" arrivalSpeed="15.14" duration="113.00" routeLength="278.03" waitingTime="72.00" waitingCount="1" stopTime="0.00" timeLoss="94.97" rerouteNo="0" devices="tripinfo_flow_route_34_duration_20250327_1950.0" vType="car" speedFactor="1.05" vaporized=""/>
    <tripinfo id="flow_route_28_duration_20250327_1950.1" depart="13.00" departLane="-422986370#2_0" departPos="54.12" departSpeed="0.00" departDelay="1.00" arrival="113.00" arrivalLane="-430406005#1_1" arrivalPos="97.65" arrivalSpeed="14.76" duration="100.00" routeLength="377.96" waitingTime="54.00" waitingCount="1" stopTime="0.00" timeLoss="76.38" rerouteNo="0" devices="tripinfo_flow_route_28_duration_20250327_1950.1" vType="car" speedFactor="1.13" vaporized=""/>
    <tripinfo id="flow_route_29_duration_20250327_1950.0" depart="0.00" departLane="-422986370#2_0" departPos="201.60" departSpeed="0.00" departDelay="0.00" arrival="114.00" arrivalLane="137415945#0_0" arrivalPos="9.07" arrivalSpeed="15.19" duration="114.00" routeLength="253.29" waitingTime="75.00" waitingCount="1" stopTime="0.00" timeLoss="96.52" rerouteNo="0" devices="tripinfo_flow_route_29_duration_20250327_1950.0" vType="car" speedFactor="0.94" vaporized=""/>
    <tripinfo id="flow_route_28_duration_20250327_1950.0" depart="0.00" departLane="-422986370#2_0" departPos="1.81" departSpeed="0.00" departDelay="0.00" arrival="115.00" arrivalLane="-430406005#1_1" arrivalPos="159.13" arrivalSpeed="16.28" duration="115.00" routeLength="491.75" waitingTime="60.00" waitingCount="1" stopTime="0.00" timeLoss="84.75" rerouteNo="0" devices="tripinfo_flow_route_28_duration_20250327_1950.0" vType="car" speedFactor="1.06" vaporized=""/>
    <tripinfo id="flow_route_34_duration_20250327_1950.2" depart="20.00" departLane="133126008#0_0" departPos="127.31" departSpeed="0.00" departDelay="0.00" arrival="115.00" arrivalLane="133126030#0_0" arrivalPos="122.63" arrivalSpeed="14.20" duration="95.00" routeLength="182.84" waitingTime="63.00" waitingCount="1" stopTime="0.00" timeLoss="81.54" rerouteNo="0" devices="tripinfo_flow_route_34_duration_20250327_1950.2" vType="car" speedFactor="0.90" vaporized=""/>
    <tripinfo id="flow_route_29_duration_20250327_1950.4" depart="27.00" departLane="-422986370#2_0" departPos="275.18" departSpeed="0.00" departDelay="0.34" arrival="115.00" arrivalLane="137415945#0_0" arrivalPos="4.40" arrivalSpeed="15.44" duration="88.00" routeLength="175.05" waitingTime="62.00" waitingCount="1" stopTime="0.00" timeLoss="76.47" rerouteNo="0" devices="tripinfo_flow_route_29_duration_20250327_1950.4" vType="car" speedFactor="1.08" vaporized=""/>
    <tripinfo id="flow_route_28_duration_20250327_1950.3" depart="36.00" departLane="-422986370#2_0" departPos="199.53" departSpeed="0.00" departDelay="0.00" arrival="117.00" arrivalLane="-430406005#1_1" arrivalPos="101.72" arrivalSpeed="15.25" duration="81.00" routeLength="236.62" waitingTime="42.00" waitingCount="1" stopTime="0.00" timeLoss="66.39" rerouteNo="0" devices="tripinfo_flow_route_28_duration_20250327_1950.3" vType="car" speedFactor="1.09" vaporized=""/>
    <tripinfo id="flow_route_29_duration_20250327_1950.2" depart="15.00" departLane="-422986370#2_0" departPos="175.24" departSpeed="0.00" departDelay="1.67" arrival="118.00" arrivalLane="137415945#0_0" arrivalPos="0.60" arrivalSpeed="16.26" duration="103.00" routeLength="271.17" waitingTime="62.00" waitingCount="1" stopTime="0.00" timeLoss="85.02" rerouteNo="0" devices="tripinfo_flow_route_29_duration_20250327_1950.2" vType="car" speedFactor="1.01" vaporized=""/>
    <tripinfo id="flow_route_33_duration_20250327_1950.2" depart="15.00" departLane="133126008#0_0" departPos="74.46" departSpeed="0.00" departDelay="0.00" arrival="118.00" arrivalLane="1369578054_1" arrivalPos="184.31" arrivalSpeed="16.25" duration="103.00" routeLength="323.22" waitingTime="60.00" waitingCount="1" stopTime="0.00" timeLoss="83.41" rerouteNo="0" devices="tripinfo_flow_route_33_duration_20250327_1950.2" vType="car" speedFactor="1.18" vaporized=""/>
    <tripinfo id="flow_route_34_duration_20250327_1950.3" depart="30.00" departLane="133126008#0_0" departPos="79.70" departSpeed="0.00" departDelay="0.00" arrival="118.00" arrivalLane="133126030#0_0" arrivalPos="85.77" arrivalSpeed="12.70" duration="88.00" routeLength="193.59" waitingTime="52.00" waitingCount="1" stopTime="0.00" timeLoss="75.16" rerouteNo="0" devices="tripinfo_flow_route_34_duration_20250327_1950.3" vType="car" speedFactor="1.04" vaporized=""/>
    <tripinfo id="flow_route_34_duration_20250327_1950.4" depart="43.00" departLane="133126008#0_0" departPos="36.04" departSpeed="0.00" departDelay="3.00" arrival="118.00" arrivalLane="133126030#0_0" arrivalPos="41.12" arrivalSpeed="9.82" duration="75.00" routeLength="192.60" waitingTime="37.00" waitingCount="1" stopTime="0.00" timeLoss="61.98" rerouteNo="0" devices="tripinfo_flow_route_34_duration_20250327_1950.4" vType="car" speedFactor="1.02" vaporized=""/>
    <tripinfo id="flow_route_29_duration_20250327_1950.3" depart="20.00" departLane="-422986370#2_0" departPos="37.23" departSpeed="0.00" departDelay="0.00" arrival="121.00" arrivalLane="137415945#0_0" arrivalPos="8.90" arrivalSpeed="15.17" duration="101.00" routeLength="417.49" waitingTime="43.00" waitingCount="1" stopTime="0.00" timeLoss="74.64" rerouteNo="0" devices="tripinfo_flow_route_29_duration_20250327_1950.3" vType="car" speedFactor="1.04" vaporized=""/>
    <tripinfo id="flow_route_34_duration_20250327_1950.5" depart="52.00" departLane="133126008#0_0" departPos="123.74" departSpeed="0.00" departDelay="2.00" arrival="121.00" arrivalLane="133126030#0_0" arrivalPos="106.81" arrivalSpeed="14.44" duration="69.00" routeLength="170.60" waitingTime="37.00" waitingCount="1" stopTime="0.00" timeLoss="57.15" rerouteNo="0" devices="tripinfo_flow_route_34_duration_20250327_1950.5" vType="car" speedFactor="1.06" vaporized=""/>
    <tripinfo id="flow_route_34_duration_20250327_1950.1" depart="10.00" departLane="133126008#0_0" departPos="32.73" departSpeed="0.00" departDelay="0.00" arrival="122.00" arrivalLane="133126030#0_0" arrivalPos="173.26" arrivalSpeed="13.59" duration="112.00" routeLength="328.05" waitingTime="62.00" waitingCount="1" stopTime="0.00" timeLoss="88.68" rerouteNo="0" devices="tripinfo_flow_route_34_duration_20250327_1950.1" vType="car" speedFactor="0.83" vaporized=""/>
    <tripinfo id="flow_route_28_duration_20250327_1950.4" depart="50.00" departLane="-422986370#2_0" departPos="158.60" departSpeed="0.00" departDelay="2.00" arrival="122.00" arrivalLane="-430406005#1_1" arrivalPos="159.59" arrivalSpeed="16.54" duration="72.00" routeLength="335.42" waitingTime="27.00" waitingCount="1" stopTime="0.00" timeLoss="51.27" rerouteNo="0" devices="tripinfo_flow_route_28_duration_20250327_1950.4" vType="car" speedFactor="0.95" vaporized=""/>
    <tripinfo id="flow_route_33_duration_20250327_1950.7" depart="54.00" departLane="133126008#0_0" departPos="13.99" departSpeed="0.00" departDelay="1.50" arrival="122.00" arrivalLane="1369578054_1" arrivalPos="98.14" arrivalSpeed="15.73" duration="68.00" routeLength="297.51" waitingTime="26.00" waitingCount="1" stopTime="0.00" timeLoss="49.62" rerouteNo="0" devices="tripinfo_flow_route_33_duration_20250327_1950.7" vType="car" speedFactor="1.10" vaporized=""/>
    <tripinfo id="flow_route_29_duration_20250327_1950.8" depart="54.00" departLane="-422986370#2_0" departPos="255.33" departSpeed="0.00" departDelay="0.67" arrival="123.00" arrivalLane="137415945#0_0" arrivalPos="7.69" arrivalSpeed="15.24" duration="69.00" routeLength="198.19" waitingTime="38.00" waitingCount="1" stopTime="0.00" timeLoss="55.26" rerouteNo="0" devices="tripinfo_flow_route_29_duration_20250327_1950.8" vType="car" speedFactor="0.92" vaporized=""/>
    <tripinfo id="flow_route_33_duration_20250327_1950.6" depart="45.00" departLane="133126008#0_0" departPos="85.49" departSpeed="0.00" departDelay="0.00" arrival="124.00" arrivalLane="1369578054_1" arrivalPos="174.86" arrivalSpeed="14.79" duration="79.00" routeLength="302.73" waitingTime="38.00" waitingCount="1" stopTime="0.00" timeLoss="58.97" rerouteNo="0" devices="tripinfo_flow_route_33_duration_20250327_1950.6" vType="car" speedFactor="0.91" vaporized=""/>
    <tripinfo id="flow_route_33_duration_20250327_1950.3" depart="26.00" departLane="133126008#0_0" departPos="29.90" departSpeed="0.00" departDelay="3.50" arrival="125.00" arrivalLane="1369578054_1" arrivalPos="253.34" arrivalSpeed="16.21" duration="99.00" routeLength="436.81" waitingTime="48.00" waitingCount="1" stopTime="0.00" timeLoss="71.83" rerouteNo="0" devices="tripinfo_flow_route_33_duration_20250327_1950.3" vType="car" speedFactor="1.17" vaporized=""/>
    <tripinfo id="flow_route_33_duration_20250327_1950.4" depart="30.00" departLane="133126008#0_0" departPos="27.37" departSpeed="0.00" departDelay="0.00" arrival="126.00" arrivalLane="1369578054_0" arrivalPos="234.93" arrivalSpeed="15.22" duration="96.00" routeLength="420.92" waitingTime="45.00" waitingCount="1" stopTime="0.00" timeLoss="68.56" rerouteNo="0" devices="tripinfo_flow_route_33_duration_20250327_1950.4" vType="car" speedFactor="0.91" vaporized=""/>