<?xml version="1.0" encoding="UTF-8"?>

<!-- generated on 2025-05-06 21:09:13 by Eclipse SUMO sumo Version 1.20.0
<configuration xmlns:xsi="http://www.w3.org/2001/XMLSchema-instance" xsi:noNamespaceSchemaLocation="http://sumo.dlr.de/xsd/sumoConfiguration.xsd">

    <input>
        <net-file value="osm.net.xml"/>
        <route-files value="xml/route_rl_cluster_11657899598_353811979_6712514804_9.rou.xml"/>
    </input>

    <output>
        <tripinfo-output value="xml/tripinfo_rl_cluster_11657899598_353811979_6712514804_9.xml"/>
    </output>

    <traci_server>
        <remote-port value="56571"/>
    </traci_server>

</configuration>
-->

<tripinfos xmlns:xsi="http://www.w3.org/2001/XMLSchema-instance" xsi:noNamespaceSchemaLocation="http://sumo.dlr.de/xsd/tripinfo_file.xsd">
    <tripinfo id="flow_route_136_duration_20250327_2230.0" depart="0.00" departLane="688883939#0_0" departPos="70.95" departSpeed="0.00" departDelay="0.00" arrival="22.00" arrivalLane="186410975#0_1" arrivalPos="11.74" arrivalSpeed="11.21" duration="22.00" routeLength="133.80" waitingTime="1.00" waitingCount="1" stopTime="0.00" timeLoss="11.77" rerouteNo="0" devices="tripinfo_flow_route_136_duration_20250327_2230.0" vType="car" speedFactor="1.01" vaporized=""/>
    <tripinfo id="flow_route_137_duration_20250327_2230.0" depart="0.00" departLane="1310781056_0" departPos="52.86" departSpeed="0.00" departDelay="0.00" arrival="22.00" arrivalLane="714011134#0_0" arrivalPos="51.79" arrivalSpeed="16.36" duration="22.00" routeLength="192.73" waitingTime="0.00" waitingCount="0" stopTime="0.00" timeLoss="9.85" rerouteNo="0" devices="tripinfo_flow_route_137_duration_20250327_2230.0" vType="car" speedFactor="1.08" vaporized=""/>
    <tripinfo id="flow_route_134_duration_20250327_2230.0" depart="0.00" departLane="688883939#0_0" departPos="78.56" departSpeed="0.00" departDelay="0.00" arrival="28.00" arrivalLane="809719540#0_0" arrivalPos="239.32" arrivalSpeed="16.14" duration="28.00" routeLength="300.42" waitingTime="0.00" waitingCount="0" stopTime="0.00" timeLoss="9.69" rerouteNo="0" devices="tripinfo_flow_route_134_duration_20250327_2230.0" vType="car" speedFactor="1.06" vaporized=""/>
    <tripinfo id="flow_route_139_duration_20250327_2230.0" depart="1.00" departLane="1310781056_0" departPos="36.51" departSpeed="0.00" departDelay="1.00" arrival="28.00" arrivalLane="1254157399#1_1" arrivalPos="26.95" arrivalSpeed="10.22" duration="27.00" routeLength="180.27" waitingTime="0.00" waitingCount="0" stopTime="0.00" timeLoss="13.60" rerouteNo="0" devices="tripinfo_flow_route_139_duration_20250327_2230.0" vType="car" speedFactor="0.83" vaporized=""/>
    <tripinfo id="flow_route_138_duration_20250327_2230.0" depart="1.00" departLane="1310781056_0" departPos="99.29" departSpeed="0.00" departDelay="1.00" arrival="35.00" arrivalLane="186410975#0_0" arrivalPos="152.27" arrivalSpeed="11.40" duration="34.00" routeLength="305.80" waitingTime="0.00" waitingCount="0" stopTime="0.00" timeLoss="11.06" rerouteNo="0" devices="tripinfo_flow_route_138_duration_20250327_2230.0" vType="car" speedFactor="1.03" vaporized=""/>
    <tripinfo id="flow_route_135_duration_20250327_2230.0" depart="0.00" departLane="688883939#0_0" departPos="0.64" departSpeed="0.00" departDelay="0.00" arrival="45.00" arrivalLane="1254157399#1_0" arrivalPos="440.36" arrivalSpeed="16.28" duration="45.00" routeLength="573.44" waitingTime="0.00" waitingCount="0" stopTime="0.00" timeLoss="9.40" rerouteNo="0" devices="tripinfo_flow_route_135_duration_20250327_2230.0" vType="car" speedFactor="0.94" vaporized=""/>
    <tripinfo id="flow_route_136_duration_20250327_2230.1" depart="20.00" departLane="688883939#0_0" departPos="99.00" departSpeed="0.00" departDelay="0.00" arrival="46.00" arrivalLane="186410975#0_1" arrivalPos="132.40" arrivalSpeed="11.86" duration="26.00" routeLength="226.42" waitingTime="0.00" waitingCount="0" stopTime="0.00" timeLoss="7.78" rerouteNo="0" devices="tripinfo_flow_route_136_duration_20250327_2230.1" vType="car" speedFactor="1.09" vaporized=""/>
    <tripinfo id="flow_route_152_duration_20250327_2230.0" depart="0.00" departLane="31861355#0_0" departPos="164.48" departSpeed="0.00" departDelay="0.00" arrival="47.00" arrivalLane="714011134#0_1" arrivalPos="26.08" arrivalSpeed="13.51" duration="47.00" routeLength="522.49" waitingTime="0.00" waitingCount="0" stopTime="0.00" timeLoss="10.95" rerouteNo="0" devices="tripinfo_flow_route_152_duration_20250327_2230.0" vType="car" speedFactor="0.89" vaporized=""/>
    <tripinfo id="flow_route_152_duration_20250327_2230.2" depart="40.00" departLane="31861355#0_0" departPos="599.76" departSpeed="0.00" departDelay="0.00" arrival="54.00" arrivalLane="714011134#0_1" arrivalPos="13.63" arrivalSpeed="10.60" duration="14.00" routeLength="74.75" waitingTime="0.00" waitingCount="0" stopTime="0.00" timeLoss="9.08" rerouteNo="0" devices="tripinfo_flow_route_152_duration_20250327_2230.2" vType="car" speedFactor="0.94" vaporized=""/>
    <tripinfo id="flow_route_151_duration_20250327_2230.3" depart="30.00" departLane="31861355#0_0" departPos="594.82" departSpeed="0.00" departDelay="0.00" arrival="56.00" arrivalLane="186410975#0_0" arrivalPos="77.89" arrivalSpeed="10.58" duration="26.00" routeLength="210.28" waitingTime="0.00" waitingCount="0" stopTime="0.00" timeLoss="10.27" rerouteNo="0" devices="tripinfo_flow_route_151_duration_20250327_2230.3" vType="car" speedFactor="0.99" vaporized=""/>
    <tripinfo id="flow_route_151_duration_20250327_2230.2" depart="23.00" departLane="31861355#0_0" departPos="338.46" departSpeed="0.00" departDelay="3.00" arrival="65.00" arrivalLane="186410975#0_0" arrivalPos="79.26" arrivalSpeed="11.12" duration="42.00" routeLength="468.01" waitingTime="0.00" waitingCount="0" stopTime="0.00" timeLoss="10.72" rerouteNo="0" devices="tripinfo_flow_route_151_duration_20250327_2230.2" vType="car" speedFactor="1.03" vaporized=""/>
    <tripinfo id="flow_route_152_duration_20250327_2230.1" depart="23.00" departLane="31861355#0_0" departPos="147.19" departSpeed="0.00" departDelay="3.00" arrival="69.00" arrivalLane="714011134#0_1" arrivalPos="66.76" arrivalSpeed="16.27" duration="46.00" routeLength="580.45" waitingTime="0.00" waitingCount="0" stopTime="0.00" timeLoss="10.96" rerouteNo="0" devices="tripinfo_flow_route_152_duration_20250327_2230.1" vType="car" speedFactor="1.05" vaporized=""/>
    <tripinfo id="flow_route_151_duration_20250327_2230.0" depart="0.00" departLane="31861355#0_0" departPos="352.12" departSpeed="0.00" departDelay="0.00" arrival="70.00" arrivalLane="186410975#0_0" arrivalPos="191.84" arrivalSpeed="11.31" duration="70.00" routeLength="566.94" waitingTime="6.00" waitingCount="1" stopTime="0.00" timeLoss="30.13" rerouteNo="0" devices="tripinfo_flow_route_151_duration_20250327_2230.0" vType="car" speedFactor="1.05" vaporized=""/>
    <tripinfo id="flow_route_153_duration_20250327_2230.0" depart="0.00" departLane="31861355#0_0" departPos="37.47" departSpeed="0.00" departDelay="0.00" arrival="70.00" arrivalLane="809719540#0_0" arrivalPos="146.46" arrivalSpeed="15.29" duration="70.00" routeLength="740.10" waitingTime="0.00" waitingCount="0" stopTime="0.00" timeLoss="20.92" rerouteNo="0" devices="tripinfo_flow_route_153_duration_20250327_2230.0" vType="car" speedFactor="0.94" vaporized=""/>
    <tripinfo id="flow_route_139_duration_20250327_2230.1" depart="30.00" departLane="1310781056_0" departPos="18.04" departSpeed="0.00" departDelay="0.00" arrival="86.00" arrivalLane="1254157399#1_1" arrivalPos="20.04" arrivalSpeed="8.72" duration="56.00" routeLength="191.82" waitingTime="22.00" waitingCount="1" stopTime="0.00" timeLoss="43.32" rerouteNo="0" devices="tripinfo_flow_route_139_duration_20250327_2230.1" vType="car" speedFactor="1.12" vaporized=""/>
    <tripinfo id="flow_route_151_duration_20250327_2230.1" depart="10.00" departLane="31861355#0_0" departPos="28.73" departSpeed="0.00" departDelay="0.00" arrival="88.00" arrivalLane="186410975#0_0" arrivalPos="176.45" arrivalSpeed="9.40" duration="78.00" routeLength="874.93" waitingTime="0.00" waitingCount="0" stopTime="0.00" timeLoss="11.59" rerouteNo="0" devices="tripinfo_flow_route_151_duration_20250327_2230.1" vType="car" speedFactor="0.86" vaporized=""/>
    <tripinfo id="flow_route_136_duration_20250327_2230.2" depart="40.00" departLane="688883939#0_0" departPos="13.22" departSpeed="0.00" departDelay="0.00" arrival="108.00" arrivalLane="186410975#0_0" arrivalPos="176.82" arrivalSpeed="9.57" duration="68.00" routeLength="356.62" waitingTime="15.00" waitingCount="1" stopTime="0.00" timeLoss="35.72" rerouteNo="0" devices="tripinfo_flow_route_136_duration_20250327_2230.2" vType="car" speedFactor="0.88" vaporized=""/>
    <tripinfo id="flow_route_151_duration_20250327_2230.5" depart="50.00" departLane="31861355#0_0" departPos="138.75" departSpeed="0.00" departDelay="0.00" arrival="134.00" arrivalLane="186410975#0_0" arrivalPos="68.16" arrivalSpeed="12.66" duration="84.00" routeLength="656.62" waitingTime="19.00" waitingCount="1" stopTime="0.00" timeLoss="42.17" rerouteNo="0" devices="tripinfo_flow_route_151_duration_20250327_2230.5" vType="car" speedFactor="1.16" vaporized=""/>
    <tripinfo id="flow_route_151_duration_20250327_2230.4" depart="40.00" departLane="31861355#0_0" departPos="255.78" departSpeed="0.00" departDelay="0.00" arrival="137.00" arrivalLane="186410975#0_0" arrivalPos="85.51" arrivalSpeed="10.05" duration="97.00" routeLength="556.95" waitingTime="34.00" waitingCount="1" stopTime="0.00" timeLoss="58.09" rerouteNo="0" devices="tripinfo_flow_route_151_duration_20250327_2230.4" vType="car" speedFactor="0.94" vaporized=""/>
    <tripinfo id="flow_route_153_duration_20250327_2230.1" depart="30.00" departLane="31861355#0_0" departPos="18.54" departSpeed="0.00" departDelay="0.00" arrival="138.00" arrivalLane="809719540#0_0" arrivalPos="205.35" arrivalSpeed="15.37" duration="108.00" routeLength="817.91" waitingTime="30.00" waitingCount="1" stopTime="0.00" timeLoss="53.89" rerouteNo="0" devices="tripinfo_flow_route_153_duration_20250327_2230.1" vType="car" speedFactor="0.93" vaporized=""/>
</tripinfos>
