<?xml version="1.0" encoding="UTF-8"?>

<!-- generated on 2025-05-06 21:09:18 by Eclipse SUMO sumo Version 1.20.0
<configuration xmlns:xsi="http://www.w3.org/2001/XMLSchema-instance" xsi:noNamespaceSchemaLocation="http://sumo.dlr.de/xsd/sumoConfiguration.xsd">

    <input>
        <net-file value="osm.net.xml"/>
        <route-files value="xml/route_static_cluster_11648745684_256036885_3839031483_9.rou.xml"/>
    </input>

    <output>
        <tripinfo-output value="xml/tripinfo_static_cluster_11648745684_256036885_3839031483_9.xml"/>
    </output>

    <traci_server>
        <remote-port value="34797"/>
    </traci_server>

</configuration>
-->

<tripinfos xmlns:xsi="http://www.w3.org/2001/XMLSchema-instance" xsi:noNamespaceSchemaLocation="http://sumo.dlr.de/xsd/tripinfo_file.xsd">
    <tripinfo id="flow_route_72_duration_20250327_2240.0" depart="0.00" departLane="1369578052#0_0" departPos="161.40" departSpeed="0.00" departDelay="0.00" arrival="15.00" arrivalLane="133342692#0_0" arrivalPos="42.43" arrivalSpeed="11.65" duration="15.00" routeLength="81.12" waitingTime="0.00" waitingCount="0" stopTime="0.00" timeLoss="8.08" rerouteNo="0" devices="tripinfo_flow_route_72_duration_20250327_2240.0" vType="car" speedFactor="0.89" vaporized=""/>
    <tripinfo id="flow_route_68_duration_20250327_2240.0" depart="0.00" departLane="1253209803#0_0" departPos="143.52" departSpeed="0.00" departDelay="0.00" arrival="29.00" arrivalLane="-138002002#2_1" arrivalPos="90.53" arrivalSpeed="16.38" duration="29.00" routeLength="298.33" waitingTime="0.00" waitingCount="0" stopTime="0.00" timeLoss="10.81" rerouteNo="0" devices="tripinfo_flow_route_68_duration_20250327_2240.0" vType="car" speedFactor="1.08" vaporized=""/>
    <tripinfo id="flow_route_70_duration_20250327_2240.0" depart="0.00" departLane="1253209803#0_0" departPos="83.97" departSpeed="0.00" departDelay="0.00" arrival="32.00" arrivalLane="133342692#0_2" arrivalPos="7.48" arrivalSpeed="9.70" duration="32.00" routeLength="271.18" waitingTime="0.00" waitingCount="0" stopTime="0.00" timeLoss="13.58" rerouteNo="0" devices="tripinfo_flow_route_70_duration_20250327_2240.0" vType="car" speedFactor="0.83" vaporized=""/>
    <tripinfo id="flow_route_69_duration_20250327_2240.0" depart="0.00" departLane="1253209803#0_0" departPos="179.76" departSpeed="0.00" departDelay="0.00" arrival="34.00" arrivalLane="380585337#0_0" arrivalPos="14.31" arrivalSpeed="16.34" duration="34.00" routeLength="299.43" waitingTime="0.00" waitingCount="0" stopTime="0.00" timeLoss="14.55" rerouteNo="0" devices="tripinfo_flow_route_69_duration_20250327_2240.0" vType="car" speedFactor="1.03" vaporized=""/>
    <tripinfo id="flow_route_65_duration_20250327_2240.0" depart="7.00" departLane="133131666#1_0" departPos="5.26" departSpeed="0.00" departDelay="7.00" arrival="41.00" arrivalLane="138002016#0_2" arrivalPos="14.48" arrivalSpeed="8.16" duration="34.00" routeLength="193.68" waitingTime="1.00" waitingCount="1" stopTime="0.00" timeLoss="21.32" rerouteNo="0" devices="tripinfo_flow_route_65_duration_20250327_2240.0" vType="car" speedFactor="1.01" vaporized=""/>
    <tripinfo id="flow_route_64_duration_20250327_2240.1" depart="13.00" departLane="133131666#1_0" departPos="7.36" departSpeed="0.00" departDelay="1.00" arrival="41.00" arrivalLane="-138002002#2_0" arrivalPos="5.49" arrivalSpeed="6.24" duration="28.00" routeLength="163.69" waitingTime="0.00" waitingCount="0" stopTime="0.00" timeLoss="17.14" rerouteNo="0" devices="tripinfo_flow_route_64_duration_20250327_2240.1" vType="car" speedFactor="1.05" vaporized=""/>
    <tripinfo id="flow_route_65_duration_20250327_2240.2" depart="16.00" departLane="133131666#1_0" departPos="21.41" departSpeed="0.00" departDelay="2.67" arrival="47.00" arrivalLane="138002016#0_2" arrivalPos="41.19" arrivalSpeed="10.93" duration="31.00" routeLength="204.23" waitingTime="0.00" waitingCount="0" stopTime="0.00" timeLoss="18.17" rerouteNo="0" devices="tripinfo_flow_route_65_duration_20250327_2240.2" vType="car" speedFactor="1.12" vaporized=""/>
    <tripinfo id="flow_route_63_duration_20250327_2240.0" depart="0.00" departLane="133131666#1_0" departPos="14.94" departSpeed="0.00" departDelay="0.00" arrival="52.00" arrivalLane="133342692#0_0" arrivalPos="152.76" arrivalSpeed="16.22" duration="52.00" routeLength="321.54" waitingTime="9.00" waitingCount="1" stopTime="0.00" timeLoss="32.09" rerouteNo="0" devices="tripinfo_flow_route_63_duration_20250327_2240.0" vType="car" speedFactor="1.06" vaporized=""/>
    <tripinfo id="flow_route_64_duration_20250327_2240.0" depart="2.00" departLane="133131666#1_0" departPos="6.82" departSpeed="0.00" departDelay="2.00" arrival="52.00" arrivalLane="-138002002#2_0" arrivalPos="131.25" arrivalSpeed="15.35" duration="50.00" routeLength="289.98" waitingTime="8.00" waitingCount="1" stopTime="0.00" timeLoss="29.67" rerouteNo="0" devices="tripinfo_flow_route_64_duration_20250327_2240.0" vType="car" speedFactor="0.94" vaporized=""/>
    <tripinfo id="flow_route_65_duration_20250327_2240.3" depart="20.00" departLane="133131666#1_0" departPos="5.36" departSpeed="0.00" departDelay="0.00" arrival="53.00" arrivalLane="138002016#0_2" arrivalPos="84.07" arrivalSpeed="14.08" duration="33.00" routeLength="263.17" waitingTime="0.00" waitingCount="0" stopTime="0.00" timeLoss="16.21" rerouteNo="0" devices="tripinfo_flow_route_65_duration_20250327_2240.3" vType="car" speedFactor="0.99" vaporized=""/>
    <tripinfo id="flow_route_65_duration_20250327_2240.1" depart="11.00" departLane="133131666#1_0" departPos="21.24" departSpeed="0.00" departDelay="4.33" arrival="55.00" arrivalLane="138002016#0_2" arrivalPos="173.28" arrivalSpeed="16.28" duration="44.00" routeLength="336.51" waitingTime="0.00" waitingCount="0" stopTime="0.00" timeLoss="22.65" rerouteNo="0" devices="tripinfo_flow_route_65_duration_20250327_2240.1" vType="car" speedFactor="1.03" vaporized=""/>
    <tripinfo id="flow_route_64_duration_20250327_2240.2" depart="24.00" departLane="133131666#1_0" departPos="13.24" departSpeed="0.00" departDelay="0.00" arrival="58.00" arrivalLane="-138002002#2_0" arrivalPos="131.81" arrivalSpeed="14.57" duration="34.00" routeLength="284.13" waitingTime="0.00" waitingCount="0" stopTime="0.00" timeLoss="14.80" rerouteNo="0" devices="tripinfo_flow_route_64_duration_20250327_2240.2" vType="car" speedFactor="0.94" vaporized=""/>
    <tripinfo id="flow_route_64_duration_20250327_2240.3" depart="37.00" departLane="133131666#1_0" departPos="4.07" departSpeed="0.00" departDelay="1.00" arrival="66.00" arrivalLane="-138002002#2_0" arrivalPos="31.02" arrivalSpeed="9.23" duration="29.00" routeLength="192.50" waitingTime="0.00" waitingCount="0" stopTime="0.00" timeLoss="16.50" rerouteNo="0" devices="tripinfo_flow_route_64_duration_20250327_2240.3" vType="car" speedFactor="1.01" vaporized=""/>
    <tripinfo id="flow_route_65_duration_20250327_2240.5" depart="34.00" departLane="133131666#1_0" departPos="12.88" departSpeed="0.00" departDelay="0.67" arrival="70.00" arrivalLane="138002016#0_2" arrivalPos="156.81" arrivalSpeed="16.57" duration="36.00" routeLength="328.39" waitingTime="0.00" waitingCount="0" stopTime="0.00" timeLoss="14.89" rerouteNo="0" devices="tripinfo_flow_route_65_duration_20250327_2240.5" vType="car" speedFactor="1.02" vaporized=""/>
    <tripinfo id="flow_route_65_duration_20250327_2240.4" depart="29.00" departLane="133131666#1_0" departPos="6.83" departSpeed="0.00" departDelay="2.34" arrival="71.00" arrivalLane="138002016#0_2" arrivalPos="220.17" arrivalSpeed="16.58" duration="42.00" routeLength="397.80" waitingTime="0.00" waitingCount="0" stopTime="0.00" timeLoss="16.77" rerouteNo="0" devices="tripinfo_flow_route_65_duration_20250327_2240.4" vType="car" speedFactor="1.16" vaporized=""/>
    <tripinfo id="flow_route_75_duration_20250327_2240.0" depart="0.00" departLane="380593307#0_0" departPos="8.02" departSpeed="0.00" departDelay="0.00" arrival="75.00" arrivalLane="-138002002#2_1" arrivalPos="1.11" arrivalSpeed="6.63" duration="75.00" routeLength="196.85" waitingTime="43.00" waitingCount="1" stopTime="0.00" timeLoss="62.44" rerouteNo="0" devices="tripinfo_flow_route_75_duration_20250327_2240.0" vType="car" speedFactor="1.09" vaporized=""/>
    <tripinfo id="flow_route_65_duration_20250327_2240.6" depart="41.00" departLane="133131666#1_0" departPos="22.03" departSpeed="0.00" departDelay="1.00" arrival="77.00" arrivalLane="138002016#0_2" arrivalPos="204.27" arrivalSpeed="16.23" duration="36.00" routeLength="366.70" waitingTime="0.00" waitingCount="0" stopTime="0.00" timeLoss="11.77" rerouteNo="0" devices="tripinfo_flow_route_65_duration_20250327_2240.6" vType="car" speedFactor="0.97" vaporized=""/>
    <tripinfo id="flow_route_73_duration_20250327_2240.0" depart="0.00" departLane="380593307#0_0" departPos="55.90" departSpeed="0.00" departDelay="0.00" arrival="88.00" arrivalLane="380585337#0_0" arrivalPos="13.23" arrivalSpeed="15.30" duration="88.00" routeLength="294.01" waitingTime="48.00" waitingCount="1" stopTime="0.00" timeLoss="68.44" rerouteNo="0" devices="tripinfo_flow_route_73_duration_20250327_2240.0" vType="car" speedFactor="0.94" vaporized=""/>
    <tripinfo id="flow_route_73_duration_20250327_2240.2" depart="40.00" departLane="380593307#0_0" departPos="31.07" departSpeed="0.00" departDelay="0.00" arrival="89.00" arrivalLane="380585337#0_1" arrivalPos="6.76" arrivalSpeed="14.37" duration="49.00" routeLength="312.37" waitingTime="6.00" waitingCount="1" stopTime="0.00" timeLoss="27.27" rerouteNo="0" devices="tripinfo_flow_route_73_duration_20250327_2240.2" vType="car" speedFactor="0.87" vaporized=""/>
    <tripinfo id="flow_route_73_duration_20250327_2240.1" depart="20.00" departLane="380593307#0_0" departPos="115.99" departSpeed="0.00" departDelay="0.00" arrival="90.00" arrivalLane="380585337#0_0" arrivalPos="13.87" arrivalSpeed="15.46" duration="70.00" routeLength="234.55" waitingTime="35.00" waitingCount="1" stopTime="0.00" timeLoss="54.37" rerouteNo="0" devices="tripinfo_flow_route_73_duration_20250327_2240.1" vType="car" speedFactor="0.94" vaporized=""/>
    <tripinfo id="flow_route_74_duration_20250327_2240.0" depart="0.00" departLane="380593307#0_0" departPos="118.68" departSpeed="0.00" departDelay="0.00" arrival="92.00" arrivalLane="138002016#0_0" arrivalPos="237.21" arrivalSpeed="13.85" duration="92.00" routeLength="301.22" waitingTime="53.00" waitingCount="1" stopTime="0.00" timeLoss="70.08" rerouteNo="0" devices="tripinfo_flow_route_74_duration_20250327_2240.0" vType="car" speedFactor="0.86" vaporized=""/>
    <tripinfo id="flow_route_68_duration_20250327_2240.2" depart="40.00" departLane="1253209803#0_0" departPos="294.63" departSpeed="0.00" departDelay="0.00" arrival="107.00" arrivalLane="-138002002#2_1" arrivalPos="27.97" arrivalSpeed="9.47" duration="67.00" routeLength="84.66" waitingTime="47.00" waitingCount="1" stopTime="0.00" timeLoss="61.49" rerouteNo="0" devices="tripinfo_flow_route_68_duration_20250327_2240.2" vType="car" speedFactor="0.89" vaporized=""/>
    <tripinfo id="flow_route_68_duration_20250327_2240.1" depart="20.00" departLane="1253209803#0_0" departPos="257.67" departSpeed="0.00" departDelay="0.00" arrival="110.00" arrivalLane="-138002002#2_0" arrivalPos="41.10" arrivalSpeed="10.84" duration="90.00" routeLength="134.75" waitingTime="61.00" waitingCount="1" stopTime="0.00" timeLoss="81.31" rerouteNo="0" devices="tripinfo_flow_route_68_duration_20250327_2240.1" vType="car" speedFactor="0.93" vaporized=""/>
    <tripinfo id="flow_route_70_duration_20250327_2240.2" depart="40.00" departLane="1253209803#0_0" departPos="21.26" departSpeed="0.00" departDelay="0.00" arrival="114.00" arrivalLane="133342692#0_2" arrivalPos="4.77" arrivalSpeed="7.49" duration="74.00" routeLength="331.18" waitingTime="29.00" waitingCount="2" stopTime="0.00" timeLoss="52.16" rerouteNo="0" devices="tripinfo_flow_route_70_duration_20250327_2240.2" vType="car" speedFactor="0.83" vaporized=""/>
    <tripinfo id="flow_route_70_duration_20250327_2240.1" depart="20.00" departLane="1253209803#0_0" departPos="28.26" departSpeed="0.00" departDelay="0.00" arrival="115.00" arrivalLane="133342692#0_2" arrivalPos="28.80" arrivalSpeed="9.08" duration="95.00" routeLength="348.21" waitingTime="48.00" waitingCount="2" stopTime="0.00" timeLoss="71.92" rerouteNo="0" devices="tripinfo_flow_route_70_duration_20250327_2240.1" vType="car" speedFactor="0.88" vaporized=""/>
    <tripinfo id="flow_route_71_duration_20250327_2240.0" depart="0.00" departLane="1369578052#0_0" departPos="11.11" departSpeed="0.00" departDelay="0.00" arrival="123.00" arrivalLane="138002016#0_0" arrivalPos="236.62" arrivalSpeed="16.17" duration="123.00" routeLength="443.19" waitingTime="72.00" waitingCount="1" stopTime="0.00" timeLoss="96.01" rerouteNo="0" devices="tripinfo_flow_route_71_duration_20250327_2240.0" vType="car" speedFactor="1.05" vaporized=""/>
    <tripinfo id="flow_route_64_duration_20250327_2240.4" depart="50.00" departLane="133131666#1_0" departPos="4.01" departSpeed="0.00" departDelay="2.00" arrival="135.00" arrivalLane="-138002002#2_0" arrivalPos="15.85" arrivalSpeed="6.74" duration="85.00" routeLength="177.38" waitingTime="54.00" waitingCount="1" stopTime="0.00" timeLoss="72.74" rerouteNo="0" devices="tripinfo_flow_route_64_duration_20250327_2240.4" vType="car" speedFactor="0.95" vaporized=""/>
    <tripinfo id="flow_route_65_duration_20250327_2240.8" depart="54.00" departLane="133131666#1_0" departPos="1.78" departSpeed="0.00" departDelay="0.67" arrival="139.00" arrivalLane="138002016#0_2" arrivalPos="14.91" arrivalSpeed="8.89" duration="85.00" routeLength="197.60" waitingTime="51.00" waitingCount="1" stopTime="0.00" timeLoss="72.30" rerouteNo="0" devices="tripinfo_flow_route_65_duration_20250327_2240.8" vType="car" speedFactor="1.13" vaporized=""/>
    <tripinfo id="flow_route_65_duration_20250327_2240.7" depart="47.00" departLane="133131666#1_0" departPos="7.53" departSpeed="0.00" departDelay="0.34" arrival="144.00" arrivalLane="138002016#0_2" arrivalPos="99.92" arrivalSpeed="14.00" duration="97.00" routeLength="276.85" waitingTime="59.00" waitingCount="1" stopTime="0.00" timeLoss="77.96" rerouteNo="0" devices="tripinfo_flow_route_65_duration_20250327_2240.7" vType="car" speedFactor="0.92" vaporized=""/>
</tripinfos>
