<?xml version="1.0" encoding="UTF-8"?>

<!-- generated on 2025-05-06 21:09:03 by Eclipse SUMO sumo Version 1.20.0
<configuration xmlns:xsi="http://www.w3.org/2001/XMLSchema-instance" xsi:noNamespaceSchemaLocation="http://sumo.dlr.de/xsd/sumoConfiguration.xsd">

    <input>
        <net-file value="osm.net.xml"/>
        <route-files value="xml/route_rl_cluster_11648561428_407729599_8.rou.xml"/>
    </input>

    <output>
        <tripinfo-output value="xml/tripinfo_rl_cluster_11648561428_407729599_8.xml"/>
    </output>

    <traci_server>
        <remote-port value="43451"/>
    </traci_server>

</configuration>
-->

<tripinfos xmlns:xsi="http://www.w3.org/2001/XMLSchema-instance" xsi:noNamespaceSchemaLocation="http://sumo.dlr.de/xsd/tripinfo_file.xsd">
    <tripinfo id="flow_route_106_duration_20250327_2200.0" depart="0.00" departLane="1254519229#0_0" departPos="19.69" departSpeed="0.00" departDelay="0.00" arrival="17.00" arrivalLane="430416184_1" arrivalPos="13.15" arrivalSpeed="9.33" duration="17.00" routeLength="94.14" waitingTime="0.00" waitingCount="0" stopTime="0.00" timeLoss="10.50" rerouteNo="0" devices="tripinfo_flow_route_106_duration_20250327_2200.0" vType="car" speedFactor="1.01" vaporized=""/>
    <tripinfo id="flow_route_107_duration_20250327_2200.0" depart="0.00" departLane="1254519229#0_0" departPos="43.39" departSpeed="0.00" departDelay="0.00" arrival="20.00" arrivalLane="1342963997_0" arrivalPos="88.24" arrivalSpeed="14.75" duration="20.00" routeLength="145.44" waitingTime="0.00" waitingCount="0" stopTime="0.00" timeLoss="10.92" rerouteNo="0" devices="tripinfo_flow_route_107_duration_20250327_2200.0" vType="car" speedFactor="1.08" vaporized=""/>
    <tripinfo id="flow_route_101_duration_20250327_2200.1" depart="12.00" departLane="186409193_0" departPos="39.32" departSpeed="0.00" departDelay="0.00" arrival="30.00" arrivalLane="430416184_0" arrivalPos="1.75" arrivalSpeed="4.90" duration="18.00" routeLength="96.93" waitingTime="0.00" waitingCount="0" stopTime="0.00" timeLoss="9.62" rerouteNo="0" devices="tripinfo_flow_route_101_duration_20250327_2200.1" vType="car" speedFactor="0.83" vaporized=""/>
    <tripinfo id="flow_route_101_duration_20250327_2200.0" depart="0.00" departLane="186409193_0" departPos="43.42" departSpeed="0.00" departDelay="0.00" arrival="34.00" arrivalLane="430416184_0" arrivalPos="206.05" arrivalSpeed="16.21" duration="34.00" routeLength="297.12" waitingTime="0.00" waitingCount="0" stopTime="0.00" timeLoss="14.79" rerouteNo="0" devices="tripinfo_flow_route_101_duration_20250327_2200.0" vType="car" speedFactor="0.94" vaporized=""/>
    <tripinfo id="flow_route_107_duration_20250327_2200.1" depart="15.00" departLane="1254519229#0_0" departPos="4.79" departSpeed="0.00" departDelay="0.00" arrival="37.00" arrivalLane="1342963997_0" arrivalPos="81.18" arrivalSpeed="16.53" duration="22.00" routeLength="176.97" waitingTime="0.00" waitingCount="0" stopTime="0.00" timeLoss="10.45" rerouteNo="0" devices="tripinfo_flow_route_107_duration_20250327_2200.1" vType="car" speedFactor="0.89" vaporized=""/>
    <tripinfo id="flow_route_100_duration_20250327_2200.0" depart="0.00" departLane="186409193_0" departPos="2.55" departSpeed="0.00" departDelay="0.00" arrival="40.00" arrivalLane="1254519229#0_1" arrivalPos="70.90" arrivalSpeed="6.02" duration="40.00" routeLength="299.97" waitingTime="0.00" waitingCount="0" stopTime="0.00" timeLoss="21.13" rerouteNo="0" devices="tripinfo_flow_route_100_duration_20250327_2200.0" vType="car" speedFactor="1.06" vaporized=""/>
    <tripinfo id="flow_route_106_duration_20250327_2200.1" depart="15.00" departLane="1254519229#0_0" departPos="21.05" departSpeed="0.00" departDelay="0.00" arrival="43.00" arrivalLane="430416184_1" arrivalPos="134.81" arrivalSpeed="15.57" duration="28.00" routeLength="214.44" waitingTime="0.00" waitingCount="0" stopTime="0.00" timeLoss="14.14" rerouteNo="0" devices="tripinfo_flow_route_106_duration_20250327_2200.1" vType="car" speedFactor="1.05" vaporized=""/>
    <tripinfo id="flow_route_106_duration_20250327_2200.2" depart="30.00" departLane="1254519229#0_0" departPos="50.41" departSpeed="0.00" departDelay="0.00" arrival="43.00" arrivalLane="430416184_1" arrivalPos="13.36" arrivalSpeed="10.11" duration="13.00" routeLength="63.63" waitingTime="0.00" waitingCount="0" stopTime="0.00" timeLoss="8.32" rerouteNo="0" devices="tripinfo_flow_route_106_duration_20250327_2200.2" vType="car" speedFactor="1.09" vaporized=""/>
    <tripinfo id="flow_route_107_duration_20250327_2200.2" depart="30.00" departLane="1254519229#0_0" departPos="74.72" departSpeed="0.00" departDelay="0.00" arrival="48.00" arrivalLane="1342963997_0" arrivalPos="92.11" arrivalSpeed="14.18" duration="18.00" routeLength="117.97" waitingTime="0.00" waitingCount="0" stopTime="0.00" timeLoss="10.06" rerouteNo="0" devices="tripinfo_flow_route_107_duration_20250327_2200.2" vType="car" speedFactor="1.03" vaporized=""/>
    <tripinfo id="flow_route_107_duration_20250327_2200.3" depart="45.00" departLane="1254519229#0_0" departPos="60.83" departSpeed="0.00" departDelay="0.00" arrival="60.00" arrivalLane="1342963997_0" arrivalPos="42.51" arrivalSpeed="11.57" duration="15.00" routeLength="82.25" waitingTime="0.00" waitingCount="0" stopTime="0.00" timeLoss="9.52" rerouteNo="0" devices="tripinfo_flow_route_107_duration_20250327_2200.3" vType="car" speedFactor="0.93" vaporized=""/>
    <tripinfo id="flow_route_106_duration_20250327_2200.3" depart="45.00" departLane="1254519229#0_0" departPos="24.01" departSpeed="0.00" departDelay="0.00" arrival="74.00" arrivalLane="430416184_1" arrivalPos="157.41" arrivalSpeed="16.23" duration="29.00" routeLength="234.08" waitingTime="0.00" waitingCount="0" stopTime="0.00" timeLoss="13.85" rerouteNo="0" devices="tripinfo_flow_route_106_duration_20250327_2200.3" vType="car" speedFactor="0.99" vaporized=""/>
    <tripinfo id="flow_route_149_duration_20250327_2200.2" depart="30.00" departLane="186410975#0_0" departPos="212.76" departSpeed="0.00" departDelay="0.00" arrival="96.00" arrivalLane="430416184_1" arrivalPos="88.80" arrivalSpeed="14.08" duration="66.00" routeLength="421.71" waitingTime="15.00" waitingCount="1" stopTime="0.00" timeLoss="36.48" rerouteNo="0" devices="tripinfo_flow_route_149_duration_20250327_2200.2" vType="car" speedFactor="1.05" vaporized=""/>
    <tripinfo id="flow_route_149_duration_20250327_2200.3" depart="45.00" departLane="186410975#0_0" departPos="41.07" departSpeed="0.00" departDelay="0.00" arrival="97.00" arrivalLane="430416184_1" arrivalPos="9.37" arrivalSpeed="16.53" duration="52.00" routeLength="513.98" waitingTime="0.00" waitingCount="0" stopTime="0.00" timeLoss="8.24" rerouteNo="0" devices="tripinfo_flow_route_149_duration_20250327_2200.3" vType="car" speedFactor="0.88" vaporized=""/>
    <tripinfo id="flow_route_149_duration_20250327_2200.0" depart="0.00" departLane="186410975#0_0" departPos="192.32" departSpeed="0.00" departDelay="0.00" arrival="98.00" arrivalLane="430416184_1" arrivalPos="170.61" arrivalSpeed="16.34" duration="98.00" routeLength="523.96" waitingTime="40.00" waitingCount="1" stopTime="0.00" timeLoss="62.00" rerouteNo="0" devices="tripinfo_flow_route_149_duration_20250327_2200.0" vType="car" speedFactor="1.03" vaporized=""/>
    <tripinfo id="flow_route_149_duration_20250327_2200.1" depart="15.00" departLane="186410975#0_0" departPos="226.00" departSpeed="0.00" departDelay="0.00" arrival="99.00" arrivalLane="430416184_1" arrivalPos="163.76" arrivalSpeed="16.10" duration="84.00" routeLength="483.43" waitingTime="27.00" waitingCount="1" stopTime="0.00" timeLoss="50.33" rerouteNo="0" devices="tripinfo_flow_route_149_duration_20250327_2200.1" vType="car" speedFactor="0.94" vaporized=""/>
    <tripinfo id="flow_route_101_duration_20250327_2200.2" depart="24.00" departLane="186409193_0" departPos="39.94" departSpeed="0.00" departDelay="0.00" arrival="128.00" arrivalLane="430416184_0" arrivalPos="93.11" arrivalSpeed="11.46" duration="104.00" routeLength="187.67" waitingTime="72.00" waitingCount="1" stopTime="0.00" timeLoss="90.74" rerouteNo="0" devices="tripinfo_flow_route_101_duration_20250327_2200.2" vType="car" speedFactor="0.86" vaporized=""/>
    <tripinfo id="flow_route_101_duration_20250327_2200.3" depart="36.00" departLane="186409193_0" departPos="23.17" departSpeed="0.00" departDelay="0.00" arrival="140.00" arrivalLane="430416184_0" arrivalPos="256.69" arrivalSpeed="16.57" duration="104.00" routeLength="368.02" waitingTime="59.00" waitingCount="1" stopTime="0.00" timeLoss="81.13" rerouteNo="0" devices="tripinfo_flow_route_101_duration_20250327_2200.3" vType="car" speedFactor="1.12" vaporized=""/>
    <tripinfo id="flow_route_101_duration_20250327_2200.4" depart="48.00" departLane="186409193_0" departPos="1.74" departSpeed="0.00" departDelay="0.00" arrival="144.00" arrivalLane="430416184_0" arrivalPos="276.64" arrivalSpeed="16.44" duration="96.00" routeLength="409.39" waitingTime="48.00" waitingCount="1" stopTime="0.00" timeLoss="69.38" rerouteNo="0" devices="tripinfo_flow_route_101_duration_20250327_2200.4" vType="car" speedFactor="0.94" vaporized=""/>
</tripinfos>
