<?xml version="1.0" encoding="UTF-8"?>

<!-- generated on 2025-05-06 21:08:15 by Eclipse SUMO sumo Version 1.20.0
<configuration xmlns:xsi="http://www.w3.org/2001/XMLSchema-instance" xsi:noNamespaceSchemaLocation="http://sumo.dlr.de/xsd/sumoConfiguration.xsd">

    <input>
        <net-file value="osm.net.xml"/>
        <route-files value="xml/route_static_cluster_11648561428_407729599_3.rou.xml"/>
    </input>

    <output>
        <tripinfo-output value="xml/tripinfo_static_cluster_11648561428_407729599_3.xml"/>
    </output>

    <traci_server>
        <remote-port value="53859"/>
    </traci_server>

</configuration>
-->

<tripinfos xmlns:xsi="http://www.w3.org/2001/XMLSchema-instance" xsi:noNamespaceSchemaLocation="http://sumo.dlr.de/xsd/tripinfo_file.xsd">
    <tripinfo id="flow_route_106_duration_20250327_1920.0" depart="0.00" departLane="1254519229#0_0" departPos="19.69" departSpeed="0.00" departDelay="0.00" arrival="17.00" arrivalLane="430416184_1" arrivalPos="13.15" arrivalSpeed="9.69" duration="17.00" routeLength="94.14" waitingTime="0.00" waitingCount="0" stopTime="0.00" timeLoss="10.36" rerouteNo="0" devices="tripinfo_flow_route_106_duration_20250327_1920.0" vType="car" speedFactor="1.01" vaporized=""/>
    <tripinfo id="flow_route_107_duration_20250327_1920.0" depart="0.00" departLane="1254519229#0_0" departPos="43.39" departSpeed="0.00" departDelay="0.00" arrival="20.00" arrivalLane="1342963997_1" arrivalPos="88.24" arrivalSpeed="15.25" duration="20.00" routeLength="145.44" waitingTime="0.00" waitingCount="0" stopTime="0.00" timeLoss="10.52" rerouteNo="0" devices="tripinfo_flow_route_107_duration_20250327_1920.0" vType="car" speedFactor="1.08" vaporized=""/>
    <tripinfo id="flow_route_101_duration_20250327_1920.1" depart="4.00" departLane="186409193_0" departPos="39.94" departSpeed="0.00" departDelay="2.54" arrival="21.00" arrivalLane="430416184_0" arrivalPos="1.75" arrivalSpeed="4.90" duration="17.00" routeLength="96.31" waitingTime="0.00" waitingCount="0" stopTime="0.00" timeLoss="8.73" rerouteNo="0" devices="tripinfo_flow_route_101_duration_20250327_1920.1" vType="car" speedFactor="0.83" vaporized=""/>
    <tripinfo id="flow_route_107_duration_20250327_1920.1" depart="3.00" departLane="1254519229#0_0" departPos="69.67" departSpeed="0.00" departDelay="0.14" arrival="22.00" arrivalLane="1342963997_0" arrivalPos="101.68" arrivalSpeed="14.47" duration="19.00" routeLength="132.59" waitingTime="0.00" waitingCount="0" stopTime="0.00" timeLoss="10.40" rerouteNo="0" devices="tripinfo_flow_route_107_duration_20250327_1920.1" vType="car" speedFactor="0.94" vaporized=""/>
    <tripinfo id="flow_route_107_duration_20250327_1920.5" depart="19.00" departLane="1254519229#0_0" departPos="69.67" departSpeed="0.00" departDelay="4.72" arrival="30.00" arrivalLane="1342963997_0" arrivalPos="15.45" arrivalSpeed="9.26" duration="11.00" routeLength="46.36" waitingTime="0.00" waitingCount="0" stopTime="0.00" timeLoss="7.74" rerouteNo="0" devices="tripinfo_flow_route_107_duration_20250327_1920.5" vType="car" speedFactor="1.18" vaporized=""/>
    <tripinfo id="flow_route_107_duration_20250327_1920.2" depart="6.00" departLane="1254519229#0_0" departPos="24.01" departSpeed="0.00" departDelay="0.29" arrival="31.00" arrivalLane="1342963997_0" arrivalPos="97.74" arrivalSpeed="14.83" duration="25.00" routeLength="174.31" waitingTime="0.00" waitingCount="0" stopTime="0.00" timeLoss="14.28" rerouteNo="0" devices="tripinfo_flow_route_107_duration_20250327_1920.2" vType="car" speedFactor="0.99" vaporized=""/>
    <tripinfo id="flow_route_101_duration_20250327_1920.0" depart="0.00" departLane="186409193_0" departPos="43.42" departSpeed="0.00" departDelay="0.00" arrival="34.00" arrivalLane="430416184_0" arrivalPos="206.05" arrivalSpeed="16.21" duration="34.00" routeLength="297.12" waitingTime="0.00" waitingCount="0" stopTime="0.00" timeLoss="14.75" rerouteNo="0" devices="tripinfo_flow_route_101_duration_20250327_1920.0" vType="car" speedFactor="0.94" vaporized=""/>
    <tripinfo id="flow_route_107_duration_20250327_1920.3" depart="10.00" departLane="1254519229#0_0" departPos="64.59" departSpeed="0.00" departDelay="1.43" arrival="34.00" arrivalLane="1342963997_0" arrivalPos="173.19" arrivalSpeed="16.57" duration="24.00" routeLength="209.19" waitingTime="0.00" waitingCount="0" stopTime="0.00" timeLoss="11.20" rerouteNo="0" devices="tripinfo_flow_route_107_duration_20250327_1920.3" vType="car" speedFactor="1.16" vaporized=""/>
    <tripinfo id="flow_route_106_duration_20250327_1920.1" depart="3.00" departLane="1254519229#0_0" departPos="4.79" departSpeed="0.00" departDelay="0.60" arrival="38.00" arrivalLane="430416184_1" arrivalPos="130.75" arrivalSpeed="14.91" duration="35.00" routeLength="226.63" waitingTime="0.00" waitingCount="0" stopTime="0.00" timeLoss="19.85" rerouteNo="0" devices="tripinfo_flow_route_106_duration_20250327_1920.1" vType="car" speedFactor="0.89" vaporized=""/>
    <tripinfo id="flow_route_106_duration_20250327_1920.4" depart="10.00" departLane="1254519229#0_0" departPos="7.08" departSpeed="0.00" departDelay="0.40" arrival="44.00" arrivalLane="430416184_1" arrivalPos="165.30" arrivalSpeed="16.52" duration="34.00" routeLength="258.90" waitingTime="0.00" waitingCount="0" stopTime="0.00" timeLoss="17.38" rerouteNo="0" devices="tripinfo_flow_route_106_duration_20250327_1920.4" vType="car" speedFactor="1.02" vaporized=""/>
    <tripinfo id="flow_route_106_duration_20250327_1920.8" depart="23.00" departLane="1254519229#0_0" departPos="56.76" departSpeed="0.00" departDelay="3.80" arrival="45.00" arrivalLane="430416184_1" arrivalPos="122.94" arrivalSpeed="15.39" duration="22.00" routeLength="166.86" waitingTime="0.00" waitingCount="0" stopTime="0.00" timeLoss="10.52" rerouteNo="0" devices="tripinfo_flow_route_106_duration_20250327_1920.8" vType="car" speedFactor="0.90" vaporized=""/>
    <tripinfo id="flow_route_107_duration_20250327_1920.4" depart="17.00" departLane="1254519229#0_0" departPos="54.00" departSpeed="0.00" departDelay="5.57" arrival="46.00" arrivalLane="1342963997_0" arrivalPos="172.37" arrivalSpeed="16.48" duration="29.00" routeLength="218.94" waitingTime="0.00" waitingCount="0" stopTime="0.00" timeLoss="14.93" rerouteNo="0" devices="tripinfo_flow_route_107_duration_20250327_1920.4" vType="car" speedFactor="0.87" vaporized=""/>
    <tripinfo id="flow_route_106_duration_20250327_1920.3" depart="9.00" departLane="1254519229#0_0" departPos="17.75" departSpeed="0.00" departDelay="1.80" arrival="49.00" arrivalLane="430416184_0" arrivalPos="276.64" arrivalSpeed="16.57" duration="40.00" routeLength="359.56" waitingTime="0.00" waitingCount="0" stopTime="0.00" timeLoss="16.84" rerouteNo="0" devices="tripinfo_flow_route_106_duration_20250327_1920.3" vType="car" speedFactor="0.88" vaporized=""/>
    <tripinfo id="flow_route_106_duration_20250327_1920.10" depart="27.00" departLane="1254519229#0_0" departPos="68.16" departSpeed="0.00" departDelay="3.00" arrival="49.00" arrivalLane="430416184_1" arrivalPos="112.98" arrivalSpeed="14.71" duration="22.00" routeLength="145.50" waitingTime="1.00" waitingCount="1" stopTime="0.00" timeLoss="11.96" rerouteNo="0" devices="tripinfo_flow_route_106_duration_20250327_1920.10" vType="car" speedFactor="0.88" vaporized=""/>
    <tripinfo id="flow_route_149_duration_20250327_1920.3" depart="14.00" departLane="186410975#0_0" departPos="256.11" departSpeed="0.00" departDelay="2.75" arrival="58.00" arrivalLane="430416184_1" arrivalPos="89.01" arrivalSpeed="13.99" duration="44.00" routeLength="378.56" waitingTime="0.00" waitingCount="0" stopTime="0.00" timeLoss="17.37" rerouteNo="0" devices="tripinfo_flow_route_149_duration_20250327_1920.3" vType="car" speedFactor="0.92" vaporized=""/>
    <tripinfo id="flow_route_149_duration_20250327_1920.1" depart="4.00" departLane="186410975#0_0" departPos="132.40" departSpeed="0.00" departDelay="0.25" arrival="60.00" arrivalLane="430416184_1" arrivalPos="93.11" arrivalSpeed="14.40" duration="56.00" routeLength="506.38" waitingTime="0.00" waitingCount="0" stopTime="0.00" timeLoss="15.37" rerouteNo="0" devices="tripinfo_flow_route_149_duration_20250327_1920.1" vType="car" speedFactor="0.86" vaporized=""/>
    <tripinfo id="flow_route_149_duration_20250327_1920.0" depart="0.00" departLane="186410975#0_0" departPos="192.32" departSpeed="0.00" departDelay="0.00" arrival="61.00" arrivalLane="430416184_1" arrivalPos="170.61" arrivalSpeed="16.10" duration="61.00" routeLength="523.96" waitingTime="4.00" waitingCount="1" stopTime="0.00" timeLoss="25.41" rerouteNo="0" devices="tripinfo_flow_route_149_duration_20250327_1920.0" vType="car" speedFactor="1.03" vaporized=""/>
    <tripinfo id="flow_route_107_duration_20250327_1920.12" depart="53.00" departLane="1254519229#0_0" departPos="79.14" departSpeed="0.00" departDelay="18.72" arrival="64.00" arrivalLane="1342963997_0" arrivalPos="28.30" arrivalSpeed="8.55" duration="11.00" routeLength="49.74" waitingTime="0.00" waitingCount="0" stopTime="0.00" timeLoss="7.91" rerouteNo="0" devices="tripinfo_flow_route_107_duration_20250327_1920.12" vType="car" speedFactor="0.91" vaporized=""/>
    <tripinfo id="flow_route_101_duration_20250327_1920.3" depart="8.00" departLane="186409193_0" departPos="40.02" departSpeed="0.00" departDelay="3.61" arrival="70.00" arrivalLane="430416184_0" arrivalPos="88.80" arrivalSpeed="11.88" duration="62.00" routeLength="183.28" waitingTime="28.00" waitingCount="1" stopTime="0.00" timeLoss="50.07" rerouteNo="0" devices="tripinfo_flow_route_101_duration_20250327_1920.3" vType="car" speedFactor="1.09" vaporized=""/>
    <tripinfo id="flow_route_101_duration_20250327_1920.5" depart="14.00" departLane="186409193_0" departPos="31.94" departSpeed="0.00" departDelay="6.69" arrival="72.00" arrivalLane="430416184_0" arrivalPos="46.01" arrivalSpeed="9.58" duration="58.00" routeLength="148.57" waitingTime="21.00" waitingCount="1" stopTime="0.00" timeLoss="47.94" rerouteNo="0" devices="tripinfo_flow_route_101_duration_20250327_1920.5" vType="car" speedFactor="0.93" vaporized=""/>
    <tripinfo id="flow_route_101_duration_20250327_1920.2" depart="4.00" departLane="186409193_0" departPos="2.70" departSpeed="0.00" departDelay="1.07" arrival="76.00" arrivalLane="430416184_0" arrivalPos="134.81" arrivalSpeed="14.94" duration="72.00" routeLength="266.61" waitingTime="28.00" waitingCount="1" stopTime="0.00" timeLoss="54.32" rerouteNo="0" devices="tripinfo_flow_route_101_duration_20250327_1920.2" vType="car" speedFactor="1.05" vaporized=""/>
    <tripinfo id="flow_route_101_duration_20250327_1920.6" depart="19.00" departLane="186409193_0" departPos="57.07" departSpeed="0.00" departDelay="10.22" arrival="76.00" arrivalLane="430416184_0" arrivalPos="118.96" arrivalSpeed="13.97" duration="57.00" routeLength="196.39" waitingTime="22.00" waitingCount="1" stopTime="0.00" timeLoss="43.28" rerouteNo="0" devices="tripinfo_flow_route_101_duration_20250327_1920.6" vType="car" speedFactor="0.94" vaporized=""/>
    <tripinfo id="flow_route_107_duration_20250327_1920.6" depart="22.00" departLane="1254519229#0_0" departPos="52.66" departSpeed="0.00" departDelay="4.86" arrival="76.00" arrivalLane="1342963997_0" arrivalPos="148.23" arrivalSpeed="16.25" duration="54.00" routeLength="196.15" waitingTime="19.00" waitingCount="3" stopTime="0.00" timeLoss="41.52" rerouteNo="0" devices="tripinfo_flow_route_107_duration_20250327_1920.6" vType="car" speedFactor="0.97" vaporized=""/>
    <tripinfo id="flow_route_106_duration_20250327_1920.9" depart="27.00" departLane="1254519229#0_0" departPos="45.62" departSpeed="0.00" departDelay="5.40" arrival="79.00" arrivalLane="430416184_1" arrivalPos="29.36" arrivalSpeed="8.41" duration="52.00" routeLength="84.42" waitingTime="20.00" waitingCount="2" stopTime="0.00" timeLoss="46.23" rerouteNo="0" devices="tripinfo_flow_route_106_duration_20250327_1920.9" vType="car" speedFactor="1.04" vaporized=""/>
    <tripinfo id="flow_route_101_duration_20250327_1920.4" depart="14.00" departLane="186409193_0" departPos="16.29" departSpeed="0.00" departDelay="8.15" arrival="80.00" arrivalLane="430416184_0" arrivalPos="114.69" arrivalSpeed="13.83" duration="66.00" routeLength="232.90" waitingTime="21.00" waitingCount="1" stopTime="0.00" timeLoss="50.58" rerouteNo="0" devices="tripinfo_flow_route_101_duration_20250327_1920.4" vType="car" speedFactor="1.12" vaporized=""/>
    <tripinfo id="flow_route_106_duration_20250327_1920.11" depart="30.00" departLane="1254519229#0_0" departPos="73.10" departSpeed="0.00" departDelay="3.60" arrival="85.00" arrivalLane="430416184_1" arrivalPos="109.73" arrivalSpeed="13.72" duration="55.00" routeLength="137.32" waitingTime="26.00" waitingCount="2" stopTime="0.00" timeLoss="45.41" rerouteNo="0" devices="tripinfo_flow_route_106_duration_20250327_1920.11" vType="car" speedFactor="1.02" vaporized=""/>
    <tripinfo id="flow_route_107_duration_20250327_1920.8" depart="27.00" departLane="1254519229#0_0" departPos="8.19" departSpeed="0.00" departDelay="4.14" arrival="87.00" arrivalLane="1342963997_0" arrivalPos="50.49" arrivalSpeed="11.86" duration="60.00" routeLength="142.89" waitingTime="19.00" waitingCount="3" stopTime="0.00" timeLoss="51.12" rerouteNo="0" devices="tripinfo_flow_route_107_duration_20250327_1920.8" vType="car" speedFactor="1.04" vaporized=""/>
    <tripinfo id="flow_route_101_duration_20250327_1920.8" depart="26.00" departLane="186409193_0" departPos="38.75" departSpeed="0.00" departDelay="14.30" arrival="89.00" arrivalLane="430416184_0" arrivalPos="200.01" arrivalSpeed="16.11" duration="63.00" routeLength="295.76" waitingTime="20.00" waitingCount="1" stopTime="0.00" timeLoss="43.08" rerouteNo="0" devices="tripinfo_flow_route_101_duration_20250327_1920.8" vType="car" speedFactor="0.89" vaporized=""/>
    <tripinfo id="flow_route_100_duration_20250327_1920.0" depart="0.00" departLane="186409193_0" departPos="2.55" departSpeed="0.00" departDelay="0.00" arrival="90.00" arrivalLane="1254519229#0_1" arrivalPos="70.90" arrivalSpeed="7.85" duration="90.00" routeLength="299.97" waitingTime="28.00" waitingCount="3" stopTime="0.00" timeLoss="70.87" rerouteNo="0" devices="tripinfo_flow_route_100_duration_20250327_1920.0" vType="car" speedFactor="1.06" vaporized=""/>
    <tripinfo id="flow_route_106_duration_20250327_1920.6" depart="17.00" departLane="1254519229#0_0" departPos="33.68" departSpeed="0.00" departDelay="2.60" arrival="90.00" arrivalLane="430416184_1" arrivalPos="98.04" arrivalSpeed="14.43" duration="73.00" routeLength="165.04" waitingTime="26.00" waitingCount="6" stopTime="0.00" timeLoss="61.94" rerouteNo="0" devices="tripinfo_flow_route_106_duration_20250327_1920.6" vType="car" speedFactor="0.93" vaporized=""/>
    <tripinfo id="flow_route_101_duration_20250327_1920.7" depart="19.00" departLane="186409193_0" departPos="1.39" departSpeed="0.00" departDelay="8.76" arrival="91.00" arrivalLane="430416184_0" arrivalPos="193.22" arrivalSpeed="16.20" duration="72.00" routeLength="326.32" waitingTime="19.00" waitingCount="1" stopTime="0.00" timeLoss="51.10" rerouteNo="0" devices="tripinfo_flow_route_101_duration_20250327_1920.7" vType="car" speedFactor="1.01" vaporized=""/>
    <tripinfo id="flow_route_107_duration_20250327_1920.7" depart="23.00" departLane="1254519229#0_0" departPos="11.23" departSpeed="0.00" departDelay="3.00" arrival="91.00" arrivalLane="1342963997_0" arrivalPos="127.62" arrivalSpeed="16.42" duration="68.00" routeLength="216.97" waitingTime="23.00" waitingCount="3" stopTime="0.00" timeLoss="53.95" rerouteNo="0" devices="tripinfo_flow_route_107_duration_20250327_1920.7" vType="car" speedFactor="1.03" vaporized=""/>
    <tripinfo id="flow_route_107_duration_20250327_1920.9" depart="28.00" departLane="1254519229#0_0" departPos="1.16" departSpeed="0.00" departDelay="2.29" arrival="91.00" arrivalLane="1342963997_0" arrivalPos="61.87" arrivalSpeed="13.09" duration="63.00" routeLength="161.28" waitingTime="18.00" waitingCount="3" stopTime="0.00" timeLoss="52.81" rerouteNo="0" devices="tripinfo_flow_route_107_duration_20250327_1920.9" vType="car" speedFactor="0.85" vaporized=""/>
    <tripinfo id="flow_route_106_duration_20250327_1920.7" depart="21.00" departLane="1254519229#0_0" departPos="32.71" departSpeed="0.00" departDelay="4.20" arrival="94.00" arrivalLane="430416184_1" arrivalPos="83.88" arrivalSpeed="13.59" duration="73.00" routeLength="151.85" waitingTime="28.00" waitingCount="5" stopTime="0.00" timeLoss="63.09" rerouteNo="0" devices="tripinfo_flow_route_106_duration_20250327_1920.7" vType="car" speedFactor="1.17" vaporized=""/>
    <tripinfo id="flow_route_106_duration_20250327_1920.14" depart="51.00" departLane="1254519229#0_0" departPos="38.11" departSpeed="0.00" departDelay="17.40" arrival="97.00" arrivalLane="430416184_1" arrivalPos="44.35" arrivalSpeed="10.75" duration="46.00" routeLength="106.91" waitingTime="23.00" waitingCount="2" stopTime="0.00" timeLoss="38.45" rerouteNo="0" devices="tripinfo_flow_route_106_duration_20250327_1920.14" vType="car" speedFactor="0.88" vaporized=""/>
    <tripinfo id="flow_route_106_duration_20250327_1920.12" depart="33.00" departLane="1254519229#0_0" departPos="67.13" departSpeed="0.00" departDelay="4.20" arrival="98.00" arrivalLane="430416184_1" arrivalPos="256.57" arrivalSpeed="16.38" duration="65.00" routeLength="290.12" waitingTime="31.00" waitingCount="3" stopTime="0.00" timeLoss="46.69" rerouteNo="0" devices="tripinfo_flow_route_106_duration_20250327_1920.12" vType="car" speedFactor="1.00" vaporized=""/>
    <tripinfo id="flow_route_106_duration_20250327_1920.2" depart="6.00" departLane="1254519229#0_0" departPos="2.58" departSpeed="0.00" departDelay="1.20" arrival="99.00" arrivalLane="430416184_1" arrivalPos="183.20" arrivalSpeed="16.39" duration="93.00" routeLength="281.30" waitingTime="26.00" waitingCount="5" stopTime="0.00" timeLoss="74.86" rerouteNo="0" devices="tripinfo_flow_route_106_duration_20250327_1920.2" vType="car" speedFactor="1.03" vaporized=""/>
    <tripinfo id="flow_route_107_duration_20250327_1920.14" depart="81.00" departLane="1254519229#0_0" departPos="67.97" departSpeed="0.00" departDelay="41.00" arrival="102.00" arrivalLane="1342963997_0" arrivalPos="133.07" arrivalSpeed="15.42" duration="21.00" routeLength="165.68" waitingTime="0.00" waitingCount="0" stopTime="0.00" timeLoss="10.87" rerouteNo="0" devices="tripinfo_flow_route_107_duration_20250327_1920.14" vType="car" speedFactor="0.98" vaporized=""/>
    <tripinfo id="flow_route_106_duration_20250327_1920.5" depart="14.00" departLane="1254519229#0_0" departPos="5.33" departSpeed="0.00" departDelay="2.00" arrival="108.00" arrivalLane="430416184_1" arrivalPos="270.41" arrivalSpeed="16.48" duration="94.00" routeLength="365.76" waitingTime="19.00" waitingCount="5" stopTime="0.00" timeLoss="70.94" rerouteNo="0" devices="tripinfo_flow_route_106_duration_20250327_1920.5" vType="car" speedFactor="0.83" vaporized=""/>
    <tripinfo id="flow_route_149_duration_20250327_1920.2" depart="8.00" departLane="186410975#0_0" departPos="32.36" departSpeed="0.00" departDelay="0.50" arrival="109.00" arrivalLane="430416184_1" arrivalPos="8.62" arrivalSpeed="9.21" duration="101.00" routeLength="521.93" waitingTime="26.00" waitingCount="1" stopTime="0.00" timeLoss="58.24" rerouteNo="0" devices="tripinfo_flow_route_149_duration_20250327_1920.2" vType="car" speedFactor="0.94" vaporized=""/>
    <tripinfo id="flow_route_149_duration_20250327_1920.8" depart="32.00" departLane="186410975#0_0" departPos="241.64" departSpeed="0.00" departDelay="2.00" arrival="113.00" arrivalLane="430416184_1" arrivalPos="136.00" arrivalSpeed="14.87" duration="81.00" routeLength="440.04" waitingTime="28.00" waitingCount="1" stopTime="0.00" timeLoss="51.12" rerouteNo="0" devices="tripinfo_flow_route_149_duration_20250327_1920.8" vType="car" speedFactor="0.97" vaporized=""/>
    <tripinfo id="flow_route_149_duration_20250327_1920.5" depart="20.00" departLane="186410975#0_0" departPos="148.07" departSpeed="0.00" departDelay="1.25" arrival="115.00" arrivalLane="430416184_1" arrivalPos="105.60" arrivalSpeed="14.51" duration="95.00" routeLength="503.21" waitingTime="27.00" waitingCount="1" stopTime="0.00" timeLoss="61.30" rerouteNo="0" devices="tripinfo_flow_route_149_duration_20250327_1920.5" vType="car" speedFactor="1.18" vaporized=""/>
    <tripinfo id="flow_route_101_duration_20250327_1920.9" depart="30.00" departLane="186409193_0" departPos="19.80" departSpeed="0.00" departDelay="16.83" arrival="119.00" arrivalLane="430416184_0" arrivalPos="43.91" arrivalSpeed="9.30" duration="89.00" routeLength="158.61" waitingTime="46.00" waitingCount="2" stopTime="0.00" timeLoss="77.91" rerouteNo="0" devices="tripinfo_flow_route_101_duration_20250327_1920.9" vType="car" speedFactor="0.95" vaporized=""/>
    <tripinfo id="flow_route_149_duration_20250327_1920.7" depart="27.00" departLane="186410975#0_0" departPos="211.93" departSpeed="0.00" departDelay="0.75" arrival="119.00" arrivalLane="430416184_1" arrivalPos="196.89" arrivalSpeed="16.52" duration="92.00" routeLength="530.63" waitingTime="28.00" waitingCount="1" stopTime="0.00" timeLoss="56.79" rerouteNo="0" devices="tripinfo_flow_route_149_duration_20250327_1920.7" vType="car" speedFactor="1.10" vaporized=""/>
    <tripinfo id="flow_route_100_duration_20250327_1920.1" depart="14.00" departLane="186409193_0" departPos="1.63" departSpeed="0.00" departDelay="8.00" arrival="120.00" arrivalLane="1254519229#0_0" arrivalPos="70.63" arrivalSpeed="5.42" duration="106.00" routeLength="300.62" waitingTime="33.00" waitingCount="5" stopTime="0.00" timeLoss="86.69" rerouteNo="0" devices="tripinfo_flow_route_100_duration_20250327_1920.1" vType="car" speedFactor="1.05" vaporized=""/>
    <tripinfo id="flow_route_107_duration_20250327_1920.11" depart="48.00" departLane="1254519229#0_0" departPos="2.51" departSpeed="0.00" departDelay="16.57" arrival="123.00" arrivalLane="1342963997_0" arrivalPos="70.65" arrivalSpeed="11.42" duration="75.00" routeLength="168.72" waitingTime="35.00" waitingCount="3" stopTime="0.00" timeLoss="64.53" rerouteNo="0" devices="tripinfo_flow_route_107_duration_20250327_1920.11" vType="car" speedFactor="1.02" vaporized=""/>
    <tripinfo id="flow_route_107_duration_20250327_1920.13" depart="76.00" departLane="1254519229#0_0" departPos="8.95" departSpeed="0.00" departDelay="38.86" arrival="124.00" arrivalLane="1342963997_0" arrivalPos="34.21" arrivalSpeed="9.75" duration="48.00" routeLength="125.84" waitingTime="15.00" waitingCount="1" stopTime="0.00" timeLoss="40.14" rerouteNo="0" devices="tripinfo_flow_route_107_duration_20250327_1920.13" vType="car" speedFactor="0.94" vaporized=""/>
    <tripinfo id="flow_route_107_duration_20250327_1920.15" depart="90.00" departLane="1254519229#0_0" departPos="9.49" departSpeed="0.00" departDelay="47.15" arrival="124.00" arrivalLane="1342963997_0" arrivalPos="19.69" arrivalSpeed="8.58" duration="34.00" routeLength="110.78" waitingTime="8.00" waitingCount="1" stopTime="0.00" timeLoss="27.26" rerouteNo="0" devices="tripinfo_flow_route_107_duration_20250327_1920.15" vType="car" speedFactor="0.97" vaporized=""/>
    <tripinfo id="flow_route_101_duration_20250327_1920.11" depart="34.00" departLane="186409193_0" departPos="18.89" departSpeed="0.00" departDelay="17.91" arrival="126.00" arrivalLane="430416184_0" arrivalPos="101.75" arrivalSpeed="13.77" duration="92.00" routeLength="217.36" waitingTime="44.00" waitingCount="2" stopTime="0.00" timeLoss="77.25" rerouteNo="0" devices="tripinfo_flow_route_101_duration_20250327_1920.11" vType="car" speedFactor="1.01" vaporized=""/>
    <tripinfo id="flow_route_101_duration_20250327_1920.10" depart="30.00" departLane="186409193_0" departPos="0.05" departSpeed="0.00" departDelay="15.37" arrival="127.00" arrivalLane="430416184_0" arrivalPos="90.77" arrivalSpeed="13.04" duration="97.00" routeLength="225.22" waitingTime="44.00" waitingCount="2" stopTime="0.00" timeLoss="82.51" rerouteNo="0" devices="tripinfo_flow_route_101_duration_20250327_1920.10" vType="car" speedFactor="1.13" vaporized=""/>
    <tripinfo id="flow_route_107_duration_20250327_1920.10" depart="39.00" departLane="1254519229#0_0" departPos="6.73" departSpeed="0.00" departDelay="10.43" arrival="127.00" arrivalLane="1342963997_0" arrivalPos="86.67" arrivalSpeed="13.61" duration="88.00" routeLength="180.52" waitingTime="39.00" waitingCount="4" stopTime="0.00" timeLoss="76.46" rerouteNo="0" devices="tripinfo_flow_route_107_duration_20250327_1920.10" vType="car" speedFactor="0.90" vaporized=""/>
    <tripinfo id="flow_route_106_duration_20250327_1920.17" depart="88.00" departLane="1254519229#0_0" departPos="26.19" departSpeed="0.00" departDelay="47.20" arrival="129.00" arrivalLane="430416184_1" arrivalPos="2.12" arrivalSpeed="7.29" duration="41.00" routeLength="76.61" waitingTime="12.00" waitingCount="2" stopTime="0.00" timeLoss="35.58" rerouteNo="0" devices="tripinfo_flow_route_106_duration_20250327_1920.17" vType="car" speedFactor="1.09" vaporized=""/>
    <tripinfo id="flow_route_107_duration_20250327_1920.16" depart="103.00" departLane="1254519229#0_0" departPos="5.29" departSpeed="0.00" departDelay="57.29" arrival="132.00" arrivalLane="1342963997_0" arrivalPos="80.26" arrivalSpeed="14.87" duration="29.00" routeLength="175.55" waitingTime="0.00" waitingCount="0" stopTime="0.00" timeLoss="17.68" rerouteNo="0" devices="tripinfo_flow_route_107_duration_20250327_1920.16" vType="car" speedFactor="1.02" vaporized=""/>
    <tripinfo id="flow_route_101_duration_20250327_1920.13" depart="48.00" departLane="186409193_0" departPos="33.62" departSpeed="0.00" departDelay="28.98" arrival="133.00" arrivalLane="430416184_0" arrivalPos="142.48" arrivalSpeed="16.07" duration="85.00" routeLength="243.36" waitingTime="38.00" waitingCount="2" stopTime="0.00" timeLoss="69.25" rerouteNo="0" devices="tripinfo_flow_route_101_duration_20250327_1920.13" vType="car" speedFactor="1.10" vaporized=""/>
    <tripinfo id="flow_route_106_duration_20250327_1920.15" depart="67.00" departLane="1254519229#0_0" departPos="11.45" departSpeed="0.00" departDelay="31.00" arrival="134.00" arrivalLane="430416184_1" arrivalPos="65.35" arrivalSpeed="11.21" duration="67.00" routeLength="154.58" waitingTime="26.00" waitingCount="3" stopTime="0.00" timeLoss="56.61" rerouteNo="0" devices="tripinfo_flow_route_106_duration_20250327_1920.15" vType="car" speedFactor="1.02" vaporized=""/>
    <tripinfo id="flow_route_100_duration_20250327_1920.3" depart="34.00" departLane="186409193_0" departPos="42.25" departSpeed="0.00" departDelay="16.00" arrival="135.00" arrivalLane="1254519229#0_0" arrivalPos="31.01" arrivalSpeed="2.00" duration="101.00" routeLength="220.39" waitingTime="21.00" waitingCount="6" stopTime="0.00" timeLoss="86.62" rerouteNo="0" devices="tripinfo_flow_route_100_duration_20250327_1920.3" vType="car" speedFactor="0.99" vaporized=""/>
    <tripinfo id="flow_route_101_duration_20250327_1920.12" depart="46.00" departLane="186409193_0" departPos="17.66" departSpeed="0.00" departDelay="28.44" arrival="137.00" arrivalLane="430416184_0" arrivalPos="148.30" arrivalSpeed="15.84" duration="91.00" routeLength="265.14" waitingTime="37.00" waitingCount="2" stopTime="0.00" timeLoss="73.28" rerouteNo="0" devices="tripinfo_flow_route_101_duration_20250327_1920.12" vType="car" speedFactor="1.02" vaporized=""/>
    <tripinfo id="flow_route_100_duration_20250327_1920.2" depart="19.00" departLane="186409193_0" departPos="17.69" departSpeed="0.00" departDelay="7.00" arrival="139.00" arrivalLane="1254519229#0_1" arrivalPos="47.44" arrivalSpeed="2.03" duration="120.00" routeLength="261.38" waitingTime="42.00" waitingCount="7" stopTime="0.00" timeLoss="102.91" rerouteNo="0" devices="tripinfo_flow_route_100_duration_20250327_1920.2" vType="car" speedFactor="0.97" vaporized=""/>
    <tripinfo id="flow_route_106_duration_20250327_1920.19" depart="99.00" departLane="1254519229#0_0" departPos="33.85" departSpeed="0.00" departDelay="53.40" arrival="142.00" arrivalLane="430416184_1" arrivalPos="76.43" arrivalSpeed="12.36" duration="43.00" routeLength="143.26" waitingTime="7.00" waitingCount="2" stopTime="0.00" timeLoss="33.40" rerouteNo="0" devices="tripinfo_flow_route_106_duration_20250327_1920.19" vType="car" speedFactor="1.01" vaporized=""/>
    <tripinfo id="flow_route_101_duration_20250327_1920.15" depart="57.00" departLane="186409193_0" departPos="10.73" departSpeed="0.00" departDelay="35.06" arrival="144.00" arrivalLane="430416184_0" arrivalPos="202.28" arrivalSpeed="16.57" duration="87.00" routeLength="326.05" waitingTime="33.00" waitingCount="2" stopTime="0.00" timeLoss="66.10" rerouteNo="0" devices="tripinfo_flow_route_101_duration_20250327_1920.15" vType="car" speedFactor="1.09" vaporized=""/>
    <tripinfo id="flow_route_106_duration_20250327_1920.13" depart="41.00" departLane="1254519229#0_0" departPos="6.77" departSpeed="0.00" departDelay="9.80" arrival="144.00" arrivalLane="430416184_1" arrivalPos="236.95" arrivalSpeed="16.11" duration="103.00" routeLength="330.86" waitingTime="38.00" waitingCount="6" stopTime="0.00" timeLoss="81.88" rerouteNo="0" devices="tripinfo_flow_route_106_duration_20250327_1920.13" vType="car" speedFactor="1.12" vaporized=""/>
    <tripinfo id="flow_route_107_duration_20250327_1920.18" depart="121.00" departLane="1254519229#0_0" departPos="58.36" departSpeed="0.00" departDelay="69.57" arrival="144.00" arrivalLane="1342963997_0" arrivalPos="159.41" arrivalSpeed="16.45" duration="23.00" routeLength="201.63" waitingTime="0.00" waitingCount="0" stopTime="0.00" timeLoss="10.25" rerouteNo="0" devices="tripinfo_flow_route_107_duration_20250327_1920.18" vType="car" speedFactor="1.10" vaporized=""/>