<?xml version="1.0" encoding="UTF-8"?>

<!-- generated on 2025-05-06 21:09:04 by Eclipse SUMO sumo Version 1.20.0
<configuration xmlns:xsi="http://www.w3.org/2001/XMLSchema-instance" xsi:noNamespaceSchemaLocation="http://sumo.dlr.de/xsd/sumoConfiguration.xsd">

    <input>
        <net-file value="osm.net.xml"/>
        <route-files value="xml/route_rl_J7_8.rou.xml"/>
    </input>

    <output>
        <tripinfo-output value="xml/tripinfo_rl_J7_8.xml"/>
    </output>

    <traci_server>
        <remote-port value="58245"/>
    </traci_server>

</configuration>
-->

<tripinfos xmlns:xsi="http://www.w3.org/2001/XMLSchema-instance" xsi:noNamespaceSchemaLocation="http://sumo.dlr.de/xsd/tripinfo_file.xsd">
    <tripinfo id="flow_route_127_duration_20250327_2100.1" depart="5.00" departLane="-138000461_0" departPos="198.45" departSpeed="0.00" departDelay="1.00" arrival="21.00" arrivalLane="189240000#0-AddedOnRampEdge_0" arrivalPos="48.43" arrivalSpeed="12.85" duration="16.00" routeLength="109.09" waitingTime="0.00" waitingCount="0" stopTime="0.00" timeLoss="9.16" rerouteNo="0" devices="tripinfo_flow_route_127_duration_20250327_2100.1" vType="car" speedFactor="1.09" vaporized=""/>
    <tripinfo id="flow_route_131_duration_20250327_2100.0" depart="0.00" departLane="714011134#0_0" departPos="6.35" departSpeed="0.00" departDelay="0.00" arrival="26.00" arrivalLane="134194079#0_1" arrivalPos="73.02" arrivalSpeed="14.32" duration="26.00" routeLength="232.63" waitingTime="0.00" waitingCount="0" stopTime="0.00" timeLoss="9.50" rerouteNo="0" devices="tripinfo_flow_route_131_duration_20250327_2100.0" vType="car" speedFactor="0.89" vaporized=""/>
    <tripinfo id="flow_route_127_duration_20250327_2100.0" depart="0.00" departLane="-138000461_0" departPos="55.90" departSpeed="0.00" departDelay="0.00" arrival="31.00" arrivalLane="189240000#0-AddedOnRampEdge_0" arrivalPos="70.17" arrivalSpeed="13.79" duration="31.00" routeLength="273.38" waitingTime="0.00" waitingCount="0" stopTime="0.00" timeLoss="13.92" rerouteNo="0" devices="tripinfo_flow_route_127_duration_20250327_2100.0" vType="car" speedFactor="1.05" vaporized=""/>
    <tripinfo id="flow_route_121_duration_20250327_2100.0" depart="1.00" departLane="799091563#0_0" departPos="259.58" departSpeed="0.00" departDelay="1.00" arrival="35.00" arrivalLane="134194079#0_0" arrivalPos="144.99" arrivalSpeed="14.93" duration="34.00" routeLength="274.57" waitingTime="0.00" waitingCount="0" stopTime="0.00" timeLoss="16.21" rerouteNo="0" devices="tripinfo_flow_route_121_duration_20250327_2100.0" vType="car" speedFactor="1.08" vaporized=""/>
    <tripinfo id="flow_route_132_duration_20250327_2100.0" depart="0.00" departLane="714011134#0_0" departPos="92.28" departSpeed="0.00" departDelay="0.00" arrival="35.00" arrivalLane="189240000#0-AddedOnRampEdge_1" arrivalPos="51.48" arrivalSpeed="15.31" duration="35.00" routeLength="375.34" waitingTime="0.00" waitingCount="0" stopTime="0.00" timeLoss="10.08" rerouteNo="0" devices="tripinfo_flow_route_132_duration_20250327_2100.0" vType="car" speedFactor="0.94" vaporized=""/>
    <tripinfo id="flow_route_116_duration_20250327_2100.0" depart="0.00" departLane="177211987#1_0" departPos="0.88" departSpeed="0.00" departDelay="0.00" arrival="39.00" arrivalLane="688883939#0_1" arrivalPos="93.94" arrivalSpeed="16.42" duration="39.00" routeLength="448.08" waitingTime="0.00" waitingCount="0" stopTime="0.00" timeLoss="11.21" rerouteNo="0" devices="tripinfo_flow_route_116_duration_20250327_2100.0" vType="car" speedFactor="1.06" vaporized=""/>
    <tripinfo id="flow_route_132_duration_20250327_2100.1" depart="5.00" departLane="714011134#0_0" departPos="86.87" departSpeed="0.00" departDelay="0.72" arrival="40.00" arrivalLane="189240000#0-AddedOnRampEdge_1" arrivalPos="59.81" arrivalSpeed="16.35" duration="35.00" routeLength="389.07" waitingTime="0.00" waitingCount="0" stopTime="0.00" timeLoss="10.91" rerouteNo="0" devices="tripinfo_flow_route_132_duration_20250327_2100.1" vType="car" speedFactor="1.03" vaporized=""/>
    <tripinfo id="flow_route_127_duration_20250327_2100.3" depart="13.00" departLane="-138000461_0" departPos="86.93" departSpeed="0.00" departDelay="1.00" arrival="41.00" arrivalLane="189240000#0-AddedOnRampEdge_0" arrivalPos="2.82" arrivalSpeed="9.07" duration="28.00" routeLength="175.00" waitingTime="0.00" waitingCount="0" stopTime="0.00" timeLoss="15.85" rerouteNo="0" devices="tripinfo_flow_route_127_duration_20250327_2100.3" vType="car" speedFactor="0.94" vaporized=""/>
    <tripinfo id="flow_route_127_duration_20250327_2100.6" depart="25.00" departLane="-138000461_0" departPos="209.70" departSpeed="0.00" departDelay="1.00" arrival="42.00" arrivalLane="189240000#0-AddedOnRampEdge_0" arrivalPos="51.62" arrivalSpeed="12.98" duration="17.00" routeLength="101.03" waitingTime="0.00" waitingCount="0" stopTime="0.00" timeLoss="9.73" rerouteNo="0" devices="tripinfo_flow_route_127_duration_20250327_2100.6" vType="car" speedFactor="1.13" vaporized=""/>
    <tripinfo id="flow_route_127_duration_20250327_2100.2" depart="8.00" departLane="-138000461_0" departPos="63.77" departSpeed="0.00" departDelay="0.00" arrival="43.00" arrivalLane="189240000#0-AddedOnRampEdge_0" arrivalPos="3.06" arrivalSpeed="9.45" duration="35.00" routeLength="198.40" waitingTime="0.00" waitingCount="0" stopTime="0.00" timeLoss="22.10" rerouteNo="0" devices="tripinfo_flow_route_127_duration_20250327_2100.2" vType="car" speedFactor="0.99" vaporized=""/>
    <tripinfo id="flow_route_132_duration_20250327_2100.3" depart="13.00" departLane="714011134#0_0" departPos="101.65" departSpeed="0.00" departDelay="0.15" arrival="44.00" arrivalLane="189240000#0-AddedOnRampEdge_1" arrivalPos="12.21" arrivalSpeed="15.33" duration="31.00" routeLength="326.70" waitingTime="0.00" waitingCount="0" stopTime="0.00" timeLoss="9.85" rerouteNo="0" devices="tripinfo_flow_route_132_duration_20250327_2100.3" vType="car" speedFactor="0.94" vaporized=""/>
    <tripinfo id="flow_route_121_duration_20250327_2100.2" depart="14.00" departLane="799091563#0_0" departPos="217.05" departSpeed="0.00" departDelay="0.67" arrival="45.00" arrivalLane="134194079#0_0" arrivalPos="65.83" arrivalSpeed="10.84" duration="31.00" routeLength="237.94" waitingTime="0.00" waitingCount="0" stopTime="0.00" timeLoss="15.93" rerouteNo="0" devices="tripinfo_flow_route_121_duration_20250327_2100.2" vType="car" speedFactor="1.02" vaporized=""/>
    <tripinfo id="flow_route_127_duration_20250327_2100.4" depart="17.00" departLane="-138000461_0" departPos="18.81" departSpeed="0.00" departDelay="1.00" arrival="47.00" arrivalLane="189240000#0-AddedOnRampEdge_0" arrivalPos="22.79" arrivalSpeed="10.72" duration="30.00" routeLength="263.09" waitingTime="0.00" waitingCount="0" stopTime="0.00" timeLoss="13.54" rerouteNo="0" devices="tripinfo_flow_route_127_duration_20250327_2100.4" vType="car" speedFactor="1.01" vaporized=""/>
    <tripinfo id="flow_route_127_duration_20250327_2100.5" depart="24.00" departLane="-138000461_0" departPos="196.14" departSpeed="0.00" departDelay="4.00" arrival="47.00" arrivalLane="189240000#0-AddedOnRampEdge_0" arrivalPos="88.28" arrivalSpeed="13.97" duration="23.00" routeLength="151.25" waitingTime="0.00" waitingCount="0" stopTime="0.00" timeLoss="11.46" rerouteNo="0" devices="tripinfo_flow_route_127_duration_20250327_2100.5" vType="car" speedFactor="0.87" vaporized=""/>
    <tripinfo id="flow_route_121_duration_20250327_2100.1" depart="7.00" departLane="799091563#0_0" departPos="89.89" departSpeed="0.00" departDelay="0.33" arrival="51.00" arrivalLane="134194079#0_0" arrivalPos="117.00" arrivalSpeed="14.83" duration="44.00" routeLength="416.27" waitingTime="0.00" waitingCount="0" stopTime="0.00" timeLoss="17.44" rerouteNo="0" devices="tripinfo_flow_route_121_duration_20250327_2100.1" vType="car" speedFactor="1.12" vaporized=""/>
    <tripinfo id="flow_route_126_duration_20250327_2100.0" depart="0.00" departLane="-138000461_0" departPos="119.67" departSpeed="0.00" departDelay="0.00" arrival="52.00" arrivalLane="138000492#0_1" arrivalPos="18.35" arrivalSpeed="13.52" duration="52.00" routeLength="582.25" waitingTime="0.00" waitingCount="0" stopTime="0.00" timeLoss="9.64" rerouteNo="0" devices="tripinfo_flow_route_126_duration_20250327_2100.0" vType="car" speedFactor="0.83" vaporized=""/>
    <tripinfo id="flow_route_132_duration_20250327_2100.4" depart="18.00" departLane="714011134#0_0" departPos="75.41" departSpeed="0.00" departDelay="0.86" arrival="54.00" arrivalLane="189240000#0-AddedOnRampEdge_1" arrivalPos="63.08" arrivalSpeed="16.15" duration="36.00" routeLength="403.80" waitingTime="0.00" waitingCount="0" stopTime="0.00" timeLoss="10.40" rerouteNo="0" devices="tripinfo_flow_route_132_duration_20250327_2100.4" vType="car" speedFactor="0.97" vaporized=""/>
    <tripinfo id="flow_route_132_duration_20250327_2100.2" depart="9.00" departLane="714011134#0_0" departPos="16.77" departSpeed="0.00" departDelay="0.43" arrival="57.00" arrivalLane="189240000#0-AddedOnRampEdge_1" arrivalPos="72.18" arrivalSpeed="15.35" duration="48.00" routeLength="471.55" waitingTime="0.00" waitingCount="0" stopTime="0.00" timeLoss="17.02" rerouteNo="0" devices="tripinfo_flow_route_132_duration_20250327_2100.2" vType="car" speedFactor="0.93" vaporized=""/>
    <tripinfo id="flow_route_131_duration_20250327_2100.1" depart="34.00" departLane="714011134#0_0" departPos="31.91" departSpeed="0.00" departDelay="4.00" arrival="58.00" arrivalLane="134194079#0_1" arrivalPos="85.57" arrivalSpeed="16.53" duration="24.00" routeLength="219.62" waitingTime="0.00" waitingCount="0" stopTime="0.00" timeLoss="10.18" rerouteNo="0" devices="tripinfo_flow_route_131_duration_20250327_2100.1" vType="car" speedFactor="1.02" vaporized=""/>
    <tripinfo id="flow_route_133_duration_20250327_2100.0" depart="0.00" departLane="714011134#0_0" departPos="33.93" departSpeed="0.00" departDelay="0.00" arrival="59.00" arrivalLane="138000492#0_0" arrivalPos="313.58" arrivalSpeed="13.96" duration="59.00" routeLength="604.48" waitingTime="0.00" waitingCount="0" stopTime="0.00" timeLoss="15.57" rerouteNo="0" devices="tripinfo_flow_route_133_duration_20250327_2100.0" vType="car" speedFactor="0.86" vaporized=""/>
    <tripinfo id="flow_route_127_duration_20250327_2100.11" depart="44.00" departLane="-138000461_0" departPos="191.13" departSpeed="0.00" departDelay="0.00" arrival="59.00" arrivalLane="189240000#0-AddedOnRampEdge_0" arrivalPos="14.50" arrivalSpeed="9.49" duration="15.00" routeLength="82.48" waitingTime="0.00" waitingCount="0" stopTime="0.00" timeLoss="8.61" rerouteNo="0" devices="tripinfo_flow_route_127_duration_20250327_2100.11" vType="car" speedFactor="0.85" vaporized=""/>
    <tripinfo id="flow_route_117_duration_20250327_2100.0" depart="0.00" departLane="177211987#1_0" departPos="98.51" departSpeed="0.00" departDelay="0.00" arrival="62.00" arrivalLane="138000492#0_0" arrivalPos="299.85" arrivalSpeed="15.26" duration="62.00" routeLength="701.60" waitingTime="0.00" waitingCount="0" stopTime="0.00" timeLoss="16.07" rerouteNo="0" devices="tripinfo_flow_route_117_duration_20250327_2100.0" vType="car" speedFactor="0.94" vaporized=""/>
    <tripinfo id="flow_route_132_duration_20250327_2100.6" depart="26.00" departLane="714011134#0_0" departPos="35.73" departSpeed="0.00" departDelay="0.29" arrival="63.00" arrivalLane="189240000#0-AddedOnRampEdge_1" arrivalPos="29.63" arrivalSpeed="15.52" duration="37.00" routeLength="410.04" waitingTime="0.00" waitingCount="0" stopTime="0.00" timeLoss="10.59" rerouteNo="0" devices="tripinfo_flow_route_132_duration_20250327_2100.6" vType="car" speedFactor="0.93" vaporized=""/>
    <tripinfo id="flow_route_127_duration_20250327_2100.8" depart="32.00" departLane="-138000461_0" departPos="88.16" departSpeed="0.00" departDelay="0.00" arrival="66.00" arrivalLane="189240000#0-AddedOnRampEdge_0" arrivalPos="77.94" arrivalSpeed="14.99" duration="34.00" routeLength="248.89" waitingTime="0.00" waitingCount="0" stopTime="0.00" timeLoss="18.09" rerouteNo="0" devices="tripinfo_flow_route_127_duration_20250327_2100.8" vType="car" speedFactor="1.10" vaporized=""/>
    <tripinfo id="flow_route_127_duration_20250327_2100.12" depart="49.00" departLane="-138000461_0" departPos="173.52" departSpeed="0.00" departDelay="1.00" arrival="66.00" arrivalLane="189240000#0-AddedOnRampEdge_0" arrivalPos="35.82" arrivalSpeed="12.67" duration="17.00" routeLength="121.41" waitingTime="0.00" waitingCount="0" stopTime="0.00" timeLoss="9.12" rerouteNo="0" devices="tripinfo_flow_route_127_duration_20250327_2100.12" vType="car" speedFactor="1.10" vaporized=""/>
    <tripinfo id="flow_route_127_duration_20250327_2100.7" depart="28.00" departLane="-138000461_0" departPos="16.91" departSpeed="0.00" departDelay="0.00" arrival="68.00" arrivalLane="189240000#0-AddedOnRampEdge_0" arrivalPos="4.42" arrivalSpeed="10.17" duration="40.00" routeLength="246.63" waitingTime="0.00" waitingCount="0" stopTime="0.00" timeLoss="24.66" rerouteNo="0" devices="tripinfo_flow_route_127_duration_20250327_2100.7" vType="car" speedFactor="1.01" vaporized=""/>
    <tripinfo id="flow_route_132_duration_20250327_2100.5" depart="23.00" departLane="714011134#0_0" departPos="2.93" departSpeed="0.00" departDelay="1.58" arrival="69.00" arrivalLane="189240000#0-AddedOnRampEdge_1" arrivalPos="90.15" arrivalSpeed="15.01" duration="46.00" routeLength="503.36" waitingTime="0.00" waitingCount="0" stopTime="0.00" timeLoss="13.01" rerouteNo="0" devices="tripinfo_flow_route_132_duration_20250327_2100.5" vType="car" speedFactor="0.92" vaporized=""/>
    <tripinfo id="flow_route_127_duration_20250327_2100.9" depart="36.00" departLane="-138000461_0" departPos="62.62" departSpeed="0.00" departDelay="0.00" arrival="72.00" arrivalLane="189240000#0-AddedOnRampEdge_0" arrivalPos="82.50" arrivalSpeed="15.15" duration="36.00" routeLength="278.99" waitingTime="0.00" waitingCount="0" stopTime="0.00" timeLoss="18.36" rerouteNo="0" devices="tripinfo_flow_route_127_duration_20250327_2100.9" vType="car" speedFactor="1.04" vaporized=""/>
    <tripinfo id="flow_route_127_duration_20250327_2100.10" depart="41.00" departLane="-138000461_0" departPos="9.00" departSpeed="0.00" departDelay="1.00" arrival="72.00" arrivalLane="189240000#0-AddedOnRampEdge_0" arrivalPos="11.73" arrivalSpeed="10.44" duration="31.00" routeLength="261.84" waitingTime="0.00" waitingCount="0" stopTime="0.00" timeLoss="12.83" rerouteNo="0" devices="tripinfo_flow_route_127_duration_20250327_2100.10" vType="car" speedFactor="0.90" vaporized=""/>
    <tripinfo id="flow_route_132_duration_20250327_2100.9" depart="43.00" departLane="714011134#0_0" departPos="103.09" departSpeed="0.00" departDelay="4.44" arrival="76.00" arrivalLane="189240000#0-AddedOnRampEdge_1" arrivalPos="44.03" arrivalSpeed="16.28" duration="33.00" routeLength="357.07" waitingTime="0.00" waitingCount="0" stopTime="0.00" timeLoss="11.24" rerouteNo="0" devices="tripinfo_flow_route_132_duration_20250327_2100.9" vType="car" speedFactor="1.04" vaporized=""/>
    <tripinfo id="flow_route_132_duration_20250327_2100.7" depart="34.00" departLane="714011134#0_0" departPos="11.04" departSpeed="0.00" departDelay="4.01" arrival="80.00" arrivalLane="189240000#0-AddedOnRampEdge_1" arrivalPos="20.05" arrivalSpeed="15.74" duration="46.00" routeLength="425.15" waitingTime="0.00" waitingCount="0" stopTime="0.00" timeLoss="19.58" rerouteNo="0" devices="tripinfo_flow_route_132_duration_20250327_2100.7" vType="car" speedFactor="0.97" vaporized=""/>
    <tripinfo id="flow_route_132_duration_20250327_2100.8" depart="39.00" departLane="714011134#0_0" departPos="69.75" departSpeed="0.00" departDelay="4.72" arrival="80.00" arrivalLane="189240000#0-AddedOnRampEdge_2" arrivalPos="46.51" arrivalSpeed="15.47" duration="41.00" routeLength="392.90" waitingTime="0.00" waitingCount="0" stopTime="0.00" timeLoss="16.27" rerouteNo="0" devices="tripinfo_flow_route_132_duration_20250327_2100.8" vType="car" speedFactor="0.96" vaporized=""/>
    <tripinfo id="flow_route_132_duration_20250327_2100.10" depart="43.00" departLane="714011134#0_0" departPos="89.11" departSpeed="0.00" departDelay="0.15" arrival="81.00" arrivalLane="189240000#0-AddedOnRampEdge_1" arrivalPos="63.76" arrivalSpeed="14.27" duration="38.00" routeLength="390.79" waitingTime="0.00" waitingCount="0" stopTime="0.00" timeLoss="10.66" rerouteNo="0" devices="tripinfo_flow_route_132_duration_20250327_2100.10" vType="car" speedFactor="0.88" vaporized=""/>
    <tripinfo id="flow_route_133_duration_20250327_2100.1" depart="34.00" departLane="714011134#0_0" departPos="92.27" departSpeed="0.00" departDelay="4.00" arrival="82.00" arrivalLane="138000492#0_1" arrivalPos="285.61" arrivalSpeed="16.50" duration="48.00" routeLength="518.18" waitingTime="0.00" waitingCount="0" stopTime="0.00" timeLoss="15.62" rerouteNo="0" devices="tripinfo_flow_route_133_duration_20250327_2100.1" vType="car" speedFactor="1.18" vaporized=""/>
    <tripinfo id="flow_route_117_duration_20250327_2100.1" depart="7.00" departLane="177211987#1_0" departPos="79.67" departSpeed="0.00" departDelay="0.33" arrival="86.00" arrivalLane="138000492#0_0" arrivalPos="373.55" arrivalSpeed="16.22" duration="79.00" routeLength="794.14" waitingTime="4.00" waitingCount="1" stopTime="0.00" timeLoss="30.10" rerouteNo="0" devices="tripinfo_flow_route_117_duration_20250327_2100.1" vType="car" speedFactor="1.05" vaporized=""/>
    <tripinfo id="flow_route_127_duration_20250327_2100.13" depart="55.00" departLane="-138000461_0" departPos="0.18" departSpeed="0.00" departDelay="3.00" arrival="87.00" arrivalLane="189240000#0-AddedOnRampEdge_0" arrivalPos="1.38" arrivalSpeed="9.52" duration="32.00" routeLength="260.31" waitingTime="0.00" waitingCount="0" stopTime="0.00" timeLoss="15.06" rerouteNo="0" devices="tripinfo_flow_route_127_duration_20250327_2100.13" vType="car" speedFactor="1.00" vaporized=""/>
    <tripinfo id="flow_route_132_duration_20250327_2100.13" depart="57.00" departLane="714011134#0_0" departPos="89.72" departSpeed="0.00" departDelay="1.30" arrival="89.00" arrivalLane="189240000#0-AddedOnRampEdge_1" arrivalPos="1.10" arrivalSpeed="16.31" duration="32.00" routeLength="327.52" waitingTime="0.00" waitingCount="0" stopTime="0.00" timeLoss="11.33" rerouteNo="0" devices="tripinfo_flow_route_132_duration_20250327_2100.13" vType="car" speedFactor="1.08" vaporized=""/>
    <tripinfo id="flow_route_122_duration_20250327_2100.1" depart="30.00" departLane="799091563#0_0" departPos="233.57" departSpeed="0.00" departDelay="0.00" arrival="91.00" arrivalLane="688883939#0_2" arrivalPos="37.10" arrivalSpeed="11.90" duration="61.00" routeLength="242.16" waitingTime="24.00" waitingCount="1" stopTime="0.00" timeLoss="46.39" rerouteNo="0" devices="tripinfo_flow_route_122_duration_20250327_2100.1" vType="car" speedFactor="0.99" vaporized=""/>
    <tripinfo id="flow_route_122_duration_20250327_2100.0" depart="1.00" departLane="799091563#0_0" departPos="17.54" departSpeed="0.00" departDelay="1.00" arrival="92.00" arrivalLane="688883939#0_2" arrivalPos="62.20" arrivalSpeed="13.79" duration="91.00" routeLength="483.30" waitingTime="37.00" waitingCount="1" stopTime="0.00" timeLoss="61.29" rerouteNo="0" devices="tripinfo_flow_route_122_duration_20250327_2100.0" vType="car" speedFactor="1.03" vaporized=""/>
    <tripinfo id="flow_route_127_duration_20250327_2100.14" depart="57.00" departLane="-138000461_0" departPos="24.16" departSpeed="0.00" departDelay="1.00" arrival="92.00" arrivalLane="189240000#0-AddedOnRampEdge_0" arrivalPos="86.73" arrivalSpeed="14.84" duration="35.00" routeLength="321.67" waitingTime="0.00" waitingCount="0" stopTime="0.00" timeLoss="13.91" rerouteNo="0" devices="tripinfo_flow_route_127_duration_20250327_2100.14" vType="car" speedFactor="0.97" vaporized=""/>
    <tripinfo id="flow_route_121_duration_20250327_2100.5" depart="35.00" departLane="799091563#0_0" departPos="161.42" departSpeed="0.00" departDelay="1.67" arrival="93.00" arrivalLane="134194079#0_0" arrivalPos="7.03" arrivalSpeed="6.21" duration="58.00" routeLength="234.77" waitingTime="16.00" waitingCount="1" stopTime="0.00" timeLoss="42.45" rerouteNo="0" devices="tripinfo_flow_route_121_duration_20250327_2100.5" vType="car" speedFactor="1.03" vaporized=""/>
    <tripinfo id="flow_route_132_duration_20250327_2100.11" depart="48.00" departLane="714011134#0_0" departPos="10.84" departSpeed="0.00" departDelay="0.87" arrival="96.00" arrivalLane="189240000#0-AddedOnRampEdge_2" arrivalPos="64.28" arrivalSpeed="16.18" duration="48.00" routeLength="469.58" waitingTime="0.00" waitingCount="0" stopTime="0.00" timeLoss="19.71" rerouteNo="0" devices="tripinfo_flow_route_132_duration_20250327_2100.11" vType="car" speedFactor="1.00" vaporized=""/>
    <tripinfo id="flow_route_132_duration_20250327_2100.12" depart="52.00" departLane="714011134#0_0" departPos="50.87" departSpeed="0.00" departDelay="0.58" arrival="98.00" arrivalLane="189240000#0-AddedOnRampEdge_1" arrivalPos="92.61" arrivalSpeed="14.85" duration="46.00" routeLength="457.88" waitingTime="0.00" waitingCount="0" stopTime="0.00" timeLoss="15.05" rerouteNo="0" devices="tripinfo_flow_route_132_duration_20250327_2100.12" vType="car" speedFactor="0.90" vaporized=""/>
    <tripinfo id="flow_route_121_duration_20250327_2100.6" depart="40.00" departLane="799091563#0_0" departPos="334.91" departSpeed="0.00" departDelay="0.00" arrival="102.00" arrivalLane="134194079#0_0" arrivalPos="210.12" arrivalSpeed="16.46" duration="62.00" routeLength="264.37" waitingTime="24.00" waitingCount="1" stopTime="0.00" timeLoss="45.03" rerouteNo="0" devices="tripinfo_flow_route_121_duration_20250327_2100.6" vType="car" speedFactor="1.00" vaporized=""/>
    <tripinfo id="flow_route_121_duration_20250327_2100.3" depart="20.00" departLane="799091563#0_0" departPos="116.87" departSpeed="0.00" departDelay="0.00" arrival="106.00" arrivalLane="134194079#0_0" arrivalPos="204.04" arrivalSpeed="13.47" duration="86.00" routeLength="476.33" waitingTime="23.00" waitingCount="1" stopTime="0.00" timeLoss="49.18" rerouteNo="0" devices="tripinfo_flow_route_121_duration_20250327_2100.3" vType="car" speedFactor="0.83" vaporized=""/>
    <tripinfo id="flow_route_121_duration_20250327_2100.7" depart="49.00" departLane="799091563#0_0" departPos="325.25" departSpeed="0.00" departDelay="2.34" arrival="106.00" arrivalLane="134194079#0_1" arrivalPos="195.69" arrivalSpeed="16.56" duration="57.00" routeLength="259.59" waitingTime="18.00" waitingCount="1" stopTime="0.00" timeLoss="40.03" rerouteNo="0" devices="tripinfo_flow_route_121_duration_20250327_2100.7" vType="car" speedFactor="1.17" vaporized=""/>
    <tripinfo id="flow_route_121_duration_20250327_2100.8" depart="54.00" departLane="799091563#0_0" departPos="128.67" departSpeed="0.00" departDelay="0.67" arrival="107.00" arrivalLane="134194079#0_0" arrivalPos="102.03" arrivalSpeed="13.76" duration="53.00" routeLength="362.52" waitingTime="2.00" waitingCount="1" stopTime="0.00" timeLoss="30.06" rerouteNo="0" devices="tripinfo_flow_route_121_duration_20250327_2100.8" vType="car" speedFactor="1.02" vaporized=""/>
    <tripinfo id="flow_route_121_duration_20250327_2100.4" depart="27.00" departLane="799091563#0_0" departPos="68.60" departSpeed="0.00" departDelay="0.34" arrival="109.00" arrivalLane="134194079#0_0" arrivalPos="167.32" arrivalSpeed="16.37" duration="82.00" routeLength="487.88" waitingTime="16.00" waitingCount="1" stopTime="0.00" timeLoss="50.77" rerouteNo="0" devices="tripinfo_flow_route_121_duration_20250327_2100.4" vType="car" speedFactor="1.15" vaporized=""/>
    <tripinfo id="flow_route_120_duration_20250327_2100.0" depart="0.00" departLane="799091563#0_0" departPos="177.01" departSpeed="0.00" departDelay="0.00" arrival="111.00" arrivalLane="138000492#0_1" arrivalPos="19.14" arrivalSpeed="9.88" duration="111.00" routeLength="440.29" waitingTime="50.00" waitingCount="2" stopTime="0.00" timeLoss="83.96" rerouteNo="0" devices="tripinfo_flow_route_120_duration_20250327_2100.0" vType="car" speedFactor="1.01" vaporized=""/>
    <tripinfo id="flow_route_120_duration_20250327_2100.2" depart="24.00" departLane="799091563#0_0" departPos="25.43" departSpeed="0.00" departDelay="0.00" arrival="120.00" arrivalLane="138000492#0_2" arrivalPos="117.35" arrivalSpeed="14.99" duration="96.00" routeLength="690.08" waitingTime="17.00" waitingCount="1" stopTime="0.00" timeLoss="52.01" rerouteNo="0" devices="tripinfo_flow_route_120_duration_20250327_2100.2" vType="car" speedFactor="0.95" vaporized=""/>
    <tripinfo id="flow_route_120_duration_20250327_2100.4" depart="51.00" departLane="799091563#0_0" departPos="208.56" departSpeed="0.00" departDelay="3.00" arrival="124.00" arrivalLane="138000492#0_2" arrivalPos="116.69" arrivalSpeed="15.38" duration="73.00" routeLength="506.30" waitingTime="3.00" waitingCount="1" stopTime="0.00" timeLoss="42.09" rerouteNo="0" devices="tripinfo_flow_route_120_duration_20250327_2100.4" vType="car" speedFactor="1.02" vaporized=""/>
    <tripinfo id="flow_route_120_duration_20250327_2100.3" depart="38.00" departLane="799091563#0_0" departPos="38.55" departSpeed="0.00" departDelay="2.00" arrival="126.00" arrivalLane="138000492#0_1" arrivalPos="191.81" arrivalSpeed="16.13" duration="88.00" routeLength="751.42" waitingTime="5.00" waitingCount="1" stopTime="0.00" timeLoss="42.44" rerouteNo="0" devices="tripinfo_flow_route_120_duration_20250327_2100.3" vType="car" speedFactor="1.09" vaporized=""/>
    <tripinfo id="flow_route_120_duration_20250327_2100.1" depart="13.00" departLane="799091563#0_0" departPos="47.61" departSpeed="0.00" departDelay="1.00" arrival="129.00" arrivalLane="138000492#0_0" arrivalPos="402.57" arrivalSpeed="14.44" duration="116.00" routeLength="953.12" waitingTime="20.00" waitingCount="1" stopTime="0.00" timeLoss="50.79" rerouteNo="0" devices="tripinfo_flow_route_120_duration_20250327_2100.1" vType="car" speedFactor="0.88" vaporized=""/>
    <tripinfo id="flow_route_116_duration_20250327_2100.1" depart="30.00" departLane="177211987#1_0" departPos="61.95" departSpeed="0.00" departDelay="0.00" arrival="168.00" arrivalLane="688883939#0_0" arrivalPos="76.11" arrivalSpeed="14.08" duration="138.00" routeLength="369.18" waitingTime="88.00" waitingCount="1" stopTime="0.00" timeLoss="115.26" rerouteNo="0" devices="tripinfo_flow_route_116_duration_20250327_2100.1" vType="car" speedFactor="1.17" vaporized=""/>
    <tripinfo id="flow_route_117_duration_20250327_2100.4" depart="27.00" departLane="177211987#1_0" departPos="30.32" departSpeed="0.00" departDelay="0.34" arrival="183.00" arrivalLane="138000492#0_1" arrivalPos="36.20" arrivalSpeed="12.61" duration="156.00" routeLength="506.14" waitingTime="90.00" waitingCount="1" stopTime="0.00" timeLoss="125.09" rerouteNo="0" devices="tripinfo_flow_route_117_duration_20250327_2100.4" vType="car" speedFactor="1.18" vaporized=""/>
    <tripinfo id="flow_route_117_duration_20250327_2100.2" depart="14.00" departLane="177211987#1_0" departPos="24.58" departSpeed="0.00" departDelay="0.67" arrival="187.00" arrivalLane="138000492#0_2" arrivalPos="111.13" arrivalSpeed="14.57" duration="173.00" routeLength="586.81" waitingTime="100.00" waitingCount="1" stopTime="0.00" timeLoss="137.44" rerouteNo="0" devices="tripinfo_flow_route_117_duration_20250327_2100.2" vType="car" speedFactor="1.16" vaporized=""/>
    <tripinfo id="flow_route_117_duration_20250327_2100.8" depart="56.00" departLane="177211987#1_0" departPos="71.20" departSpeed="0.00" departDelay="2.67" arrival="190.00" arrivalLane="138000492#0_2" arrivalPos="70.49" arrivalSpeed="13.69" duration="134.00" routeLength="499.56" waitingTime="73.00" waitingCount="1" stopTime="0.00" timeLoss="103.70" rerouteNo="0" devices="tripinfo_flow_route_117_duration_20250327_2100.8" vType="car" speedFactor="1.14" vaporized=""/>
    <tripinfo id="flow_route_117_duration_20250327_2100.6" depart="40.00" departLane="177211987#1_0" departPos="20.66" departSpeed="0.00" departDelay="0.00" arrival="191.00" arrivalLane="138000492#0_1" arrivalPos="118.34" arrivalSpeed="16.41" duration="151.00" routeLength="597.94" waitingTime="79.00" waitingCount="1" stopTime="0.00" timeLoss="114.69" rerouteNo="0" devices="tripinfo_flow_route_117_duration_20250327_2100.6" vType="car" speedFactor="1.09" vaporized=""/>
    <tripinfo id="flow_route_117_duration_20250327_2100.3" depart="21.00" departLane="177211987#1_0" departPos="84.90" departSpeed="0.00" departDelay="1.00" arrival="192.00" arrivalLane="138000492#0_0" arrivalPos="250.92" arrivalSpeed="14.74" duration="171.00" routeLength="666.27" waitingTime="101.00" waitingCount="1" stopTime="0.00" timeLoss="125.17" rerouteNo="0" devices="tripinfo_flow_route_117_duration_20250327_2100.3" vType="car" speedFactor="0.89" vaporized=""/>
    <tripinfo id="flow_route_117_duration_20250327_2100.7" depart="47.00" departLane="177211987#1_0" departPos="63.06" departSpeed="0.00" departDelay="0.34" arrival="194.00" arrivalLane="138000492#0_2" arrivalPos="145.00" arrivalSpeed="13.85" duration="147.00" routeLength="582.20" waitingTime="79.00" waitingCount="1" stopTime="0.00" timeLoss="105.69" rerouteNo="0" devices="tripinfo_flow_route_117_duration_20250327_2100.7" vType="car" speedFactor="0.85" vaporized=""/>
    <tripinfo id="flow_route_117_duration_20250327_2100.5" depart="34.00" departLane="177211987#1_0" departPos="91.51" departSpeed="0.00" departDelay="0.67" arrival="207.00" arrivalLane="138000492#0_0" arrivalPos="411.09" arrivalSpeed="14.63" duration="173.00" routeLength="819.83" waitingTime="91.00" waitingCount="1" stopTime="0.00" timeLoss="117.83" rerouteNo="0" devices="tripinfo_flow_route_117_duration_20250327_2100.5" vType="car" speedFactor="0.90" vaporized=""/>
</tripinfos>
