<?xml version="1.0" encoding="UTF-8"?>

<!-- generated on 2025-05-06 21:07:41 by Eclipse SUMO sumo Version 1.20.0
<configuration xmlns:xsi="http://www.w3.org/2001/XMLSchema-instance" xsi:noNamespaceSchemaLocation="http://sumo.dlr.de/xsd/sumoConfiguration.xsd">

    <input>
        <net-file value="osm.net.xml"/>
        <route-files value="xml/route_rl_11644940310_0.rou.xml"/>
    </input>

    <output>
        <tripinfo-output value="xml/tripinfo_rl_11644940310_0.xml"/>
    </output>

    <traci_server>
        <remote-port value="49819"/>
    </traci_server>

</configuration>
-->

<tripinfos xmlns:xsi="http://www.w3.org/2001/XMLSchema-instance" xsi:noNamespaceSchemaLocation="http://sumo.dlr.de/xsd/tripinfo_file.xsd">
    <tripinfo id="flow_route_27_duration_20250327_2050.0" depart="0.00" departLane="1254771874#0_0" departPos="190.47" departSpeed="0.00" departDelay="0.00" arrival="15.00" arrivalLane="138002006#0_1" arrivalPos="4.04" arrivalSpeed="9.09" duration="15.00" routeLength="85.46" waitingTime="0.00" waitingCount="0" stopTime="0.00" timeLoss="8.79" rerouteNo="0" devices="tripinfo_flow_route_27_duration_20250327_2050.0" vType="car" speedFactor="1.01" vaporized=""/>
    <tripinfo id="flow_route_25_duration_20250327_2050.2" depart="19.00" departLane="1254771874#0_0" departPos="244.52" departSpeed="0.00" departDelay="1.86" arrival="29.00" arrivalLane="1341093415#0_0" arrivalPos="5.78" arrivalSpeed="7.36" duration="10.00" routeLength="39.03" waitingTime="0.00" waitingCount="0" stopTime="0.00" timeLoss="7.55" rerouteNo="0" devices="tripinfo_flow_route_25_duration_20250327_2050.2" vType="car" speedFactor="1.12" vaporized=""/>
    <tripinfo id="flow_route_26_duration_20250327_2050.1" depart="10.00" departLane="1254771874#0_0" departPos="161.93" departSpeed="0.00" departDelay="0.00" arrival="31.00" arrivalLane="-422986370#2_0" arrivalPos="13.84" arrivalSpeed="6.47" duration="21.00" routeLength="116.51" waitingTime="0.00" waitingCount="0" stopTime="0.00" timeLoss="12.53" rerouteNo="0" devices="tripinfo_flow_route_26_duration_20250327_2050.1" vType="car" speedFactor="0.86" vaporized=""/>
    <tripinfo id="flow_route_25_duration_20250327_2050.0" depart="0.00" departLane="1254771874#0_0" departPos="63.27" departSpeed="0.00" departDelay="0.00" arrival="34.00" arrivalLane="1341093415#0_1" arrivalPos="158.81" arrivalSpeed="16.46" duration="34.00" routeLength="373.33" waitingTime="0.00" waitingCount="0" stopTime="0.00" timeLoss="10.96" rerouteNo="0" devices="tripinfo_flow_route_25_duration_20250327_2050.0" vType="car" speedFactor="1.06" vaporized=""/>
    <tripinfo id="flow_route_25_duration_20250327_2050.1" depart="10.00" departLane="1254771874#0_0" departPos="78.49" departSpeed="0.00" departDelay="1.43" arrival="37.00" arrivalLane="1341093415#0_0" arrivalPos="57.39" arrivalSpeed="16.47" duration="27.00" routeLength="256.68" waitingTime="0.00" waitingCount="0" stopTime="0.00" timeLoss="10.92" rerouteNo="0" devices="tripinfo_flow_route_25_duration_20250327_2050.1" vType="car" speedFactor="0.94" vaporized=""/>
    <tripinfo id="flow_route_26_duration_20250327_2050.0" depart="0.00" departLane="1254771874#0_0" departPos="139.38" departSpeed="0.00" departDelay="0.00" arrival="39.00" arrivalLane="-422986370#2_0" arrivalPos="213.43" arrivalSpeed="15.56" duration="39.00" routeLength="338.64" waitingTime="0.00" waitingCount="0" stopTime="0.00" timeLoss="15.97" rerouteNo="0" devices="tripinfo_flow_route_26_duration_20250327_2050.0" vType="car" speedFactor="0.94" vaporized=""/>
    <tripinfo id="flow_route_41_duration_20250327_2050.1" depart="6.00" departLane="1369578054_0" departPos="262.36" departSpeed="0.00" departDelay="0.00" arrival="46.00" arrivalLane="138002006#0_0" arrivalPos="5.35" arrivalSpeed="6.26" duration="40.00" routeLength="64.92" waitingTime="20.00" waitingCount="1" stopTime="0.00" timeLoss="35.41" rerouteNo="0" devices="tripinfo_flow_route_41_duration_20250327_2050.1" vType="car" speedFactor="0.89" vaporized=""/>
    <tripinfo id="flow_route_50_duration_20250327_2050.0" depart="0.00" departLane="-138002006#3_0" departPos="41.39" departSpeed="0.00" departDelay="0.00" arrival="47.00" arrivalLane="-422986370#2_0" arrivalPos="13.06" arrivalSpeed="7.64" duration="47.00" routeLength="82.72" waitingTime="25.00" waitingCount="1" stopTime="0.00" timeLoss="40.62" rerouteNo="0" devices="tripinfo_flow_route_50_duration_20250327_2050.0" vType="car" speedFactor="0.83" vaporized=""/>
    <tripinfo id="flow_route_41_duration_20250327_2050.0" depart="0.00" departLane="1369578054_0" departPos="201.66" departSpeed="0.00" departDelay="0.00" arrival="53.00" arrivalLane="138002006#0_1" arrivalPos="52.37" arrivalSpeed="10.83" duration="53.00" routeLength="172.64" waitingTime="19.00" waitingCount="1" stopTime="0.00" timeLoss="42.46" rerouteNo="0" devices="tripinfo_flow_route_41_duration_20250327_2050.0" vType="car" speedFactor="1.03" vaporized=""/>
    <tripinfo id="flow_route_41_duration_20250327_2050.3" depart="18.00" departLane="1369578054_0" departPos="47.67" departSpeed="0.00" departDelay="0.00" arrival="53.00" arrivalLane="138002006#0_1" arrivalPos="26.79" arrivalSpeed="9.58" duration="35.00" routeLength="301.04" waitingTime="0.00" waitingCount="0" stopTime="0.00" timeLoss="16.24" rerouteNo="0" devices="tripinfo_flow_route_41_duration_20250327_2050.3" vType="car" speedFactor="0.99" vaporized=""/>
    <tripinfo id="flow_route_41_duration_20250327_2050.4" depart="24.00" departLane="1369578054_0" departPos="123.26" departSpeed="0.00" departDelay="0.00" arrival="53.00" arrivalLane="138002006#0_1" arrivalPos="11.13" arrivalSpeed="8.98" duration="29.00" routeLength="209.80" waitingTime="0.00" waitingCount="0" stopTime="0.00" timeLoss="15.26" rerouteNo="0" devices="tripinfo_flow_route_41_duration_20250327_2050.4" vType="car" speedFactor="0.94" vaporized=""/>
    <tripinfo id="flow_route_40_duration_20250327_2050.1" depart="10.00" departLane="1369578054_0" departPos="281.37" departSpeed="0.00" departDelay="0.00" arrival="55.00" arrivalLane="1341093415#0_0" arrivalPos="91.43" arrivalSpeed="12.31" duration="45.00" routeLength="120.98" waitingTime="19.00" waitingCount="1" stopTime="0.00" timeLoss="36.58" rerouteNo="0" devices="tripinfo_flow_route_40_duration_20250327_2050.1" vType="car" speedFactor="1.09" vaporized=""/>
    <tripinfo id="flow_route_41_duration_20250327_2050.2" depart="13.00" departLane="1369578054_0" departPos="118.83" departSpeed="0.00" departDelay="1.00" arrival="55.00" arrivalLane="138002006#0_0" arrivalPos="73.17" arrivalSpeed="12.08" duration="42.00" routeLength="276.27" waitingTime="2.00" waitingCount="1" stopTime="0.00" timeLoss="25.28" rerouteNo="0" devices="tripinfo_flow_route_41_duration_20250327_2050.2" vType="car" speedFactor="1.03" vaporized=""/>
    <tripinfo id="flow_route_41_duration_20250327_2050.7" depart="42.00" departLane="1369578054_0" departPos="278.10" departSpeed="0.00" departDelay="0.00" arrival="57.00" arrivalLane="138002006#0_0" arrivalPos="48.54" arrivalSpeed="11.64" duration="15.00" routeLength="92.37" waitingTime="0.00" waitingCount="0" stopTime="0.00" timeLoss="9.41" rerouteNo="0" devices="tripinfo_flow_route_41_duration_20250327_2050.7" vType="car" speedFactor="1.13" vaporized=""/>
    <tripinfo id="flow_route_40_duration_20250327_2050.0" depart="0.00" departLane="1369578054_0" departPos="1.81" departSpeed="0.00" departDelay="0.00" arrival="58.00" arrivalLane="1341093415#0_0" arrivalPos="87.60" arrivalSpeed="13.01" duration="58.00" routeLength="396.71" waitingTime="2.00" waitingCount="1" stopTime="0.00" timeLoss="32.74" rerouteNo="0" devices="tripinfo_flow_route_40_duration_20250327_2050.0" vType="car" speedFactor="1.08" vaporized=""/>
    <tripinfo id="flow_route_41_duration_20250327_2050.5" depart="33.00" departLane="1369578054_0" departPos="92.22" departSpeed="0.00" departDelay="3.00" arrival="60.00" arrivalLane="138002006#0_1" arrivalPos="21.43" arrivalSpeed="16.21" duration="27.00" routeLength="251.13" waitingTime="0.00" waitingCount="0" stopTime="0.00" timeLoss="10.60" rerouteNo="0" devices="tripinfo_flow_route_41_duration_20250327_2050.5" vType="car" speedFactor="0.97" vaporized=""/>
    <tripinfo id="flow_route_40_duration_20250327_2050.3" depart="31.00" departLane="1369578054_0" departPos="207.23" departSpeed="0.00" departDelay="1.00" arrival="62.00" arrivalLane="1341093415#0_0" arrivalPos="101.88" arrivalSpeed="14.35" duration="31.00" routeLength="205.57" waitingTime="0.00" waitingCount="0" stopTime="0.00" timeLoss="18.02" rerouteNo="0" devices="tripinfo_flow_route_40_duration_20250327_2050.3" vType="car" speedFactor="1.01" vaporized=""/>
    <tripinfo id="flow_route_41_duration_20250327_2050.6" depart="37.00" departLane="1369578054_0" departPos="54.94" departSpeed="0.00" departDelay="1.00" arrival="66.00" arrivalLane="138002006#0_1" arrivalPos="14.95" arrivalSpeed="14.39" duration="29.00" routeLength="281.94" waitingTime="0.00" waitingCount="0" stopTime="0.00" timeLoss="9.11" rerouteNo="0" devices="tripinfo_flow_route_41_duration_20250327_2050.6" vType="car" speedFactor="0.87" vaporized=""/>
    <tripinfo id="flow_route_40_duration_20250327_2050.2" depart="20.00" departLane="1369578054_0" departPos="38.77" departSpeed="0.00" departDelay="0.00" arrival="67.00" arrivalLane="1341093415#0_0" arrivalPos="122.11" arrivalSpeed="15.15" duration="47.00" routeLength="394.26" waitingTime="0.00" waitingCount="0" stopTime="0.00" timeLoss="19.59" rerouteNo="0" devices="tripinfo_flow_route_40_duration_20250327_2050.2" vType="car" speedFactor="0.88" vaporized=""/>
    <tripinfo id="flow_route_50_duration_20250327_2050.1" depart="30.00" departLane="-138002006#3_0" departPos="52.93" departSpeed="0.00" departDelay="0.00" arrival="67.00" arrivalLane="-422986370#2_0" arrivalPos="243.14" arrivalSpeed="14.47" duration="37.00" routeLength="301.25" waitingTime="0.00" waitingCount="0" stopTime="0.00" timeLoss="15.94" rerouteNo="0" devices="tripinfo_flow_route_50_duration_20250327_2050.1" vType="car" speedFactor="0.89" vaporized=""/>
    <tripinfo id="flow_route_40_duration_20250327_2050.4" depart="40.00" departLane="1369578054_0" departPos="83.55" departSpeed="0.00" departDelay="0.00" arrival="69.00" arrivalLane="1341093415#0_0" arrivalPos="27.06" arrivalSpeed="9.27" duration="29.00" routeLength="254.43" waitingTime="0.00" waitingCount="0" stopTime="0.00" timeLoss="12.46" rerouteNo="0" devices="tripinfo_flow_route_40_duration_20250327_2050.4" vType="car" speedFactor="0.95" vaporized=""/>
    <tripinfo id="flow_route_51_duration_20250327_2050.0" depart="2.00" departLane="-138002006#3_0" departPos="23.48" departSpeed="0.00" departDelay="2.00" arrival="84.00" arrivalLane="1341093415#0_3" arrivalPos="132.48" arrivalSpeed="14.94" duration="82.00" routeLength="212.67" waitingTime="45.00" waitingCount="2" stopTime="0.00" timeLoss="68.19" rerouteNo="0" devices="tripinfo_flow_route_51_duration_20250327_2050.0" vType="car" speedFactor="1.05" vaporized=""/>
    <tripinfo id="flow_route_26_duration_20250327_2050.2" depart="20.00" departLane="1254771874#0_0" departPos="84.69" departSpeed="0.00" departDelay="0.00" arrival="117.00" arrivalLane="-422986370#2_0" arrivalPos="8.93" arrivalSpeed="5.74" duration="97.00" routeLength="188.84" waitingTime="67.00" waitingCount="1" stopTime="0.00" timeLoss="84.44" rerouteNo="0" devices="tripinfo_flow_route_26_duration_20250327_2050.2" vType="car" speedFactor="0.93" vaporized=""/>
    <tripinfo id="flow_route_25_duration_20250327_2050.5" depart="43.00" departLane="1254771874#0_0" departPos="45.75" departSpeed="0.00" departDelay="0.15" arrival="119.00" arrivalLane="1341093415#0_2" arrivalPos="11.94" arrivalSpeed="7.47" duration="76.00" routeLength="243.97" waitingTime="40.00" waitingCount="1" stopTime="0.00" timeLoss="61.19" rerouteNo="0" devices="tripinfo_flow_route_25_duration_20250327_2050.5" vType="car" speedFactor="0.93" vaporized=""/>
    <tripinfo id="flow_route_27_duration_20250327_2050.2" depart="30.00" departLane="1254771874#0_0" departPos="170.79" departSpeed="0.00" departDelay="0.00" arrival="122.00" arrivalLane="138002006#0_1" arrivalPos="14.91" arrivalSpeed="7.79" duration="92.00" routeLength="116.01" waitingTime="66.00" waitingCount="1" stopTime="0.00" timeLoss="84.01" rerouteNo="0" devices="tripinfo_flow_route_27_duration_20250327_2050.2" vType="car" speedFactor="1.02" vaporized=""/>
    <tripinfo id="flow_route_27_duration_20250327_2050.1" depart="15.00" departLane="1254771874#0_0" departPos="60.51" departSpeed="0.00" departDelay="0.00" arrival="123.00" arrivalLane="138002006#0_1" arrivalPos="48.32" arrivalSpeed="9.51" duration="108.00" routeLength="259.70" waitingTime="70.00" waitingCount="1" stopTime="0.00" timeLoss="91.61" rerouteNo="0" devices="tripinfo_flow_route_27_duration_20250327_2050.1" vType="car" speedFactor="1.05" vaporized=""/>
    <tripinfo id="flow_route_26_duration_20250327_2050.3" depart="30.00" departLane="1254771874#0_0" departPos="22.76" departSpeed="0.00" departDelay="0.00" arrival="128.00" arrivalLane="-422986370#2_0" arrivalPos="66.84" arrivalSpeed="11.30" duration="98.00" routeLength="308.68" waitingTime="56.00" waitingCount="1" stopTime="0.00" timeLoss="78.42" rerouteNo="0" devices="tripinfo_flow_route_26_duration_20250327_2050.3" vType="car" speedFactor="1.16" vaporized=""/>
    <tripinfo id="flow_route_25_duration_20250327_2050.4" depart="35.00" departLane="1254771874#0_0" departPos="148.28" departSpeed="0.00" departDelay="0.72" arrival="130.00" arrivalLane="1341093415#0_0" arrivalPos="87.80" arrivalSpeed="12.45" duration="95.00" routeLength="217.30" waitingTime="57.00" waitingCount="1" stopTime="0.00" timeLoss="81.58" rerouteNo="0" devices="tripinfo_flow_route_25_duration_20250327_2050.4" vType="car" speedFactor="0.83" vaporized=""/>
    <tripinfo id="flow_route_27_duration_20250327_2050.3" depart="45.00" departLane="1254771874#0_0" departPos="80.23" departSpeed="0.00" departDelay="0.00" arrival="131.00" arrivalLane="138002006#0_1" arrivalPos="88.08" arrivalSpeed="13.79" duration="86.00" routeLength="279.74" waitingTime="45.00" waitingCount="1" stopTime="0.00" timeLoss="67.78" rerouteNo="0" devices="tripinfo_flow_route_27_duration_20250327_2050.3" vType="car" speedFactor="1.18" vaporized=""/>
    <tripinfo id="flow_route_25_duration_20250327_2050.6" depart="54.00" departLane="1254771874#0_0" departPos="173.48" departSpeed="0.00" departDelay="2.57" arrival="132.00" arrivalLane="1341093415#0_1" arrivalPos="128.67" arrivalSpeed="15.22" duration="78.00" routeLength="232.96" waitingTime="41.00" waitingCount="1" stopTime="0.00" timeLoss="63.58" rerouteNo="0" devices="tripinfo_flow_route_25_duration_20250327_2050.6" vType="car" speedFactor="0.99" vaporized=""/>
    <tripinfo id="flow_route_25_duration_20250327_2050.3" depart="26.00" departLane="1254771874#0_0" departPos="67.50" departSpeed="0.00" departDelay="0.29" arrival="133.00" arrivalLane="1341093415#0_1" arrivalPos="171.92" arrivalSpeed="16.48" duration="107.00" routeLength="382.20" waitingTime="60.00" waitingCount="1" stopTime="0.00" timeLoss="83.33" rerouteNo="0" devices="tripinfo_flow_route_25_duration_20250327_2050.3" vType="car" speedFactor="0.94" vaporized=""/>
    <tripinfo id="flow_route_26_duration_20250327_2050.4" depart="40.00" departLane="1254771874#0_0" departPos="7.12" departSpeed="0.00" departDelay="0.00" arrival="140.00" arrivalLane="-422986370#2_0" arrivalPos="192.20" arrivalSpeed="14.80" duration="100.00" routeLength="449.69" waitingTime="43.00" waitingCount="1" stopTime="0.00" timeLoss="70.09" rerouteNo="0" devices="tripinfo_flow_route_26_duration_20250327_2050.4" vType="car" speedFactor="0.92" vaporized=""/>
    <tripinfo id="flow_route_26_duration_20250327_2050.5" depart="51.00" departLane="1254771874#0_0" departPos="20.45" departSpeed="0.00" departDelay="1.00" arrival="141.00" arrivalLane="-422986370#2_0" arrivalPos="169.89" arrivalSpeed="16.37" duration="90.00" routeLength="414.04" waitingTime="36.00" waitingCount="1" stopTime="0.00" timeLoss="63.04" rerouteNo="0" devices="tripinfo_flow_route_26_duration_20250327_2050.5" vType="car" speedFactor="1.01" vaporized=""/>
    <tripinfo id="flow_route_41_duration_20250327_2050.9" depart="54.00" departLane="1369578054_0" departPos="126.81" departSpeed="0.00" departDelay="0.00" arrival="159.00" arrivalLane="138002006#0_0" arrivalPos="18.85" arrivalSpeed="7.85" duration="105.00" routeLength="213.97" waitingTime="71.00" waitingCount="1" stopTime="0.00" timeLoss="91.85" rerouteNo="0" devices="tripinfo_flow_route_41_duration_20250327_2050.9" vType="car" speedFactor="1.02" vaporized=""/>
    <tripinfo id="flow_route_41_duration_20250327_2050.8" depart="48.00" departLane="1369578054_0" departPos="25.77" departSpeed="0.00" departDelay="0.00" arrival="160.00" arrivalLane="138002006#0_0" arrivalPos="30.09" arrivalSpeed="8.84" duration="112.00" routeLength="326.25" waitingTime="70.00" waitingCount="1" stopTime="0.00" timeLoss="92.13" rerouteNo="0" devices="tripinfo_flow_route_41_duration_20250327_2050.8" vType="car" speedFactor="1.15" vaporized=""/>
    <tripinfo id="flow_route_40_duration_20250327_2050.5" depart="50.00" departLane="1369578054_0" departPos="14.04" departSpeed="0.00" departDelay="0.00" arrival="162.00" arrivalLane="1341093415#0_0" arrivalPos="36.93" arrivalSpeed="9.41" duration="112.00" routeLength="333.81" waitingTime="68.00" waitingCount="1" stopTime="0.00" timeLoss="90.98" rerouteNo="0" devices="tripinfo_flow_route_40_duration_20250327_2050.5" vType="car" speedFactor="1.17" vaporized=""/>
</tripinfos>
