<?xml version="1.0" encoding="UTF-8"?>

<!-- generated on 2025-05-06 21:08:04 by Eclipse SUMO sumo Version 1.20.0
<configuration xmlns:xsi="http://www.w3.org/2001/XMLSchema-instance" xsi:noNamespaceSchemaLocation="http://sumo.dlr.de/xsd/sumoConfiguration.xsd">

    <input>
        <net-file value="osm.net.xml"/>
        <route-files value="xml/route_static_cluster_3839031475_3839031476_4110471700_4234582615_2.rou.xml"/>
    </input>

    <output>
        <tripinfo-output value="xml/tripinfo_static_cluster_3839031475_3839031476_4110471700_4234582615_2.xml"/>
    </output>

    <traci_server>
        <remote-port value="56969"/>
    </traci_server>

</configuration>
-->

<tripinfos xmlns:xsi="http://www.w3.org/2001/XMLSchema-instance" xsi:noNamespaceSchemaLocation="http://sumo.dlr.de/xsd/tripinfo_file.xsd">
    <tripinfo id="flow_route_85_duration_20250327_2120.0" depart="0.00" departLane="1091883842_0" departPos="162.60" departSpeed="0.00" departDelay="0.00" arrival="16.00" arrivalLane="133000063_0" arrivalPos="42.63" arrivalSpeed="9.42" duration="16.00" routeLength="74.77" waitingTime="0.00" waitingCount="0" stopTime="0.00" timeLoss="9.23" rerouteNo="0" devices="tripinfo_flow_route_85_duration_20250327_2120.0" vType="car" speedFactor="0.89" vaporized=""/>
    <tripinfo id="flow_route_84_duration_20250327_2120.3" depart="11.00" departLane="1091883842_0" departPos="179.13" departSpeed="0.00" departDelay="1.00" arrival="25.00" arrivalLane="136617981_0" arrivalPos="35.54" arrivalSpeed="10.43" duration="14.00" routeLength="74.70" waitingTime="0.00" waitingCount="0" stopTime="0.00" timeLoss="8.93" rerouteNo="0" devices="tripinfo_flow_route_84_duration_20250327_2120.3" vType="car" speedFactor="0.94" vaporized=""/>
    <tripinfo id="flow_route_79_duration_20250327_2120.0" depart="0.00" departLane="380344611#0_0" departPos="128.21" departSpeed="0.00" departDelay="0.00" arrival="28.00" arrivalLane="423956929_1" arrivalPos="91.18" arrivalSpeed="16.56" duration="28.00" routeLength="278.79" waitingTime="0.00" waitingCount="0" stopTime="0.00" timeLoss="10.65" rerouteNo="0" devices="tripinfo_flow_route_79_duration_20250327_2120.0" vType="car" speedFactor="1.08" vaporized=""/>
    <tripinfo id="flow_route_84_duration_20250327_2120.1" depart="4.00" departLane="1091883842_0" departPos="95.26" departSpeed="0.00" departDelay="0.67" arrival="30.00" arrivalLane="136617981_0" arrivalPos="13.09" arrivalSpeed="9.66" duration="26.00" routeLength="136.12" waitingTime="0.00" waitingCount="0" stopTime="0.00" timeLoss="17.29" rerouteNo="0" devices="tripinfo_flow_route_84_duration_20250327_2120.1" vType="car" speedFactor="1.09" vaporized=""/>
    <tripinfo id="flow_route_80_duration_20250327_2120.0" depart="0.00" departLane="380344611#0_0" departPos="160.58" departSpeed="0.00" departDelay="0.00" arrival="31.00" arrivalLane="380593307#0_0" arrivalPos="102.42" arrivalSpeed="13.73" duration="31.00" routeLength="234.46" waitingTime="0.00" waitingCount="0" stopTime="0.00" timeLoss="16.16" rerouteNo="0" devices="tripinfo_flow_route_80_duration_20250327_2120.0" vType="car" speedFactor="1.03" vaporized=""/>
    <tripinfo id="flow_route_84_duration_20250327_2120.0" depart="0.00" departLane="1091883842_0" departPos="11.19" departSpeed="0.00" departDelay="0.00" arrival="36.00" arrivalLane="136617981_1" arrivalPos="210.65" arrivalSpeed="16.28" duration="36.00" routeLength="417.75" waitingTime="0.00" waitingCount="0" stopTime="0.00" timeLoss="10.16" rerouteNo="0" devices="tripinfo_flow_route_84_duration_20250327_2120.0" vType="car" speedFactor="1.05" vaporized=""/>
    <tripinfo id="flow_route_81_duration_20250327_2120.0" depart="0.00" departLane="380344611#0_0" departPos="75.01" departSpeed="0.00" departDelay="0.00" arrival="38.00" arrivalLane="133000063_2" arrivalPos="7.51" arrivalSpeed="7.26" duration="38.00" routeLength="248.37" waitingTime="1.00" waitingCount="1" stopTime="0.00" timeLoss="18.82" rerouteNo="0" devices="tripinfo_flow_route_81_duration_20250327_2120.0" vType="car" speedFactor="0.83" vaporized=""/>
    <tripinfo id="flow_route_81_duration_20250327_2120.1" depart="5.00" departLane="380344611#0_0" departPos="266.28" departSpeed="0.00" departDelay="0.72" arrival="40.00" arrivalLane="133000063_2" arrivalPos="52.89" arrivalSpeed="11.00" duration="35.00" routeLength="102.48" waitingTime="11.00" waitingCount="1" stopTime="0.00" timeLoss="27.83" rerouteNo="0" devices="tripinfo_flow_route_81_duration_20250327_2120.1" vType="car" speedFactor="1.03" vaporized=""/>
    <tripinfo id="flow_route_81_duration_20250327_2120.2" depart="9.00" departLane="380344611#0_0" departPos="93.95" departSpeed="0.00" departDelay="0.43" arrival="42.00" arrivalLane="133000063_2" arrivalPos="27.40" arrivalSpeed="8.84" duration="33.00" routeLength="249.33" waitingTime="0.00" waitingCount="0" stopTime="0.00" timeLoss="15.00" rerouteNo="0" devices="tripinfo_flow_route_81_duration_20250327_2120.2" vType="car" speedFactor="0.88" vaporized=""/>
    <tripinfo id="flow_route_84_duration_20250327_2120.4" depart="16.00" departLane="1091883842_0" departPos="178.27" departSpeed="0.00" departDelay="2.67" arrival="43.00" arrivalLane="136617981_0" arrivalPos="230.05" arrivalSpeed="15.92" duration="27.00" routeLength="270.07" waitingTime="0.00" waitingCount="0" stopTime="0.00" timeLoss="10.25" rerouteNo="0" devices="tripinfo_flow_route_84_duration_20250327_2120.4" vType="car" speedFactor="0.97" vaporized=""/>
    <tripinfo id="flow_route_90_duration_20250327_2120.1" depart="9.00" departLane="380585338#0_0" departPos="118.96" departSpeed="0.00" departDelay="1.50" arrival="52.00" arrivalLane="136617981_0" arrivalPos="9.19" arrivalSpeed="6.72" duration="43.00" routeLength="77.30" waitingTime="21.00" waitingCount="1" stopTime="0.00" timeLoss="36.97" rerouteNo="0" devices="tripinfo_flow_route_90_duration_20250327_2120.1" vType="car" speedFactor="0.93" vaporized=""/>
    <tripinfo id="flow_route_89_duration_20250327_2120.6" depart="27.00" departLane="380585338#0_0" departPos="117.85" departSpeed="0.00" departDelay="1.29" arrival="53.00" arrivalLane="380593307#0_2" arrivalPos="13.89" arrivalSpeed="9.12" duration="26.00" routeLength="106.31" waitingTime="1.00" waitingCount="1" stopTime="0.00" timeLoss="19.49" rerouteNo="0" devices="tripinfo_flow_route_89_duration_20250327_2120.6" vType="car" speedFactor="1.02" vaporized=""/>
    <tripinfo id="flow_route_89_duration_20250327_2120.3" depart="13.00" departLane="380585338#0_0" departPos="99.26" departSpeed="0.00" departDelay="0.15" arrival="54.00" arrivalLane="380593307#0_2" arrivalPos="38.74" arrivalSpeed="10.75" duration="41.00" routeLength="149.75" waitingTime="11.00" waitingCount="1" stopTime="0.00" timeLoss="31.45" rerouteNo="0" devices="tripinfo_flow_route_89_duration_20250327_2120.3" vType="car" speedFactor="1.02" vaporized=""/>
    <tripinfo id="flow_route_89_duration_20250327_2120.0" depart="0.00" departLane="380585338#0_0" departPos="55.91" departSpeed="0.00" departDelay="0.00" arrival="57.00" arrivalLane="380593307#0_1" arrivalPos="94.67" arrivalSpeed="14.15" duration="57.00" routeLength="249.03" waitingTime="19.00" waitingCount="1" stopTime="0.00" timeLoss="40.90" rerouteNo="0" devices="tripinfo_flow_route_89_duration_20250327_2120.0" vType="car" speedFactor="0.94" vaporized=""/>
    <tripinfo id="flow_route_89_duration_20250327_2120.4" depart="18.00" departLane="380585338#0_0" departPos="4.83" departSpeed="0.00" departDelay="0.86" arrival="57.00" arrivalLane="380593307#0_1" arrivalPos="31.83" arrivalSpeed="11.28" duration="39.00" routeLength="237.27" waitingTime="2.00" waitingCount="1" stopTime="0.00" timeLoss="23.69" rerouteNo="0" devices="tripinfo_flow_route_89_duration_20250327_2120.4" vType="car" speedFactor="0.95" vaporized=""/>
    <tripinfo id="flow_route_77_duration_20250327_2120.0" depart="0.00" departLane="133342692#0_0" departPos="115.39" departSpeed="0.00" departDelay="0.00" arrival="58.00" arrivalLane="423956929_0" arrivalPos="132.19" arrivalSpeed="14.95" duration="58.00" routeLength="199.33" waitingTime="26.00" waitingCount="1" stopTime="0.00" timeLoss="44.09" rerouteNo="0" devices="tripinfo_flow_route_77_duration_20250327_2120.0" vType="car" speedFactor="0.94" vaporized=""/>
    <tripinfo id="flow_route_89_duration_20250327_2120.1" depart="5.00" departLane="380585338#0_0" departPos="143.14" departSpeed="0.00" departDelay="0.72" arrival="59.00" arrivalLane="380593307#0_0" arrivalPos="109.98" arrivalSpeed="14.77" duration="54.00" routeLength="177.11" waitingTime="24.00" waitingCount="1" stopTime="0.00" timeLoss="42.89" rerouteNo="0" devices="tripinfo_flow_route_89_duration_20250327_2120.1" vType="car" speedFactor="1.05" vaporized=""/>
    <tripinfo id="flow_route_90_duration_20250327_2120.3" depart="23.00" departLane="380585338#0_0" departPos="98.49" departSpeed="0.00" departDelay="0.50" arrival="59.00" arrivalLane="136617981_0" arrivalPos="24.38" arrivalSpeed="9.12" duration="36.00" routeLength="112.96" waitingTime="7.00" waitingCount="1" stopTime="0.00" timeLoss="28.19" rerouteNo="0" devices="tripinfo_flow_route_90_duration_20250327_2120.3" vType="car" speedFactor="1.01" vaporized=""/>
    <tripinfo id="flow_route_77_duration_20250327_2120.1" depart="30.00" departLane="133342692#0_0" departPos="51.90" departSpeed="0.00" departDelay="0.00" arrival="59.00" arrivalLane="423956929_0" arrivalPos="95.14" arrivalSpeed="14.23" duration="29.00" routeLength="225.77" waitingTime="0.00" waitingCount="0" stopTime="0.00" timeLoss="14.74" rerouteNo="0" devices="tripinfo_flow_route_77_duration_20250327_2120.1" vType="car" speedFactor="1.10" vaporized=""/>
    <tripinfo id="flow_route_76_duration_20250327_2120.0" depart="0.00" departLane="133342692#0_0" departPos="1.03" departSpeed="0.00" departDelay="0.00" arrival="62.00" arrivalLane="133000063_1" arrivalPos="153.47" arrivalSpeed="16.39" duration="62.00" routeLength="359.35" waitingTime="17.00" waitingCount="1" stopTime="0.00" timeLoss="39.38" rerouteNo="0" devices="tripinfo_flow_route_76_duration_20250327_2120.0" vType="car" speedFactor="1.06" vaporized=""/>
    <tripinfo id="flow_route_90_duration_20250327_2120.4" depart="35.00" departLane="380585338#0_0" departPos="48.83" departSpeed="0.00" departDelay="5.00" arrival="62.00" arrivalLane="136617981_0" arrivalPos="6.76" arrivalSpeed="7.37" duration="27.00" routeLength="145.00" waitingTime="0.00" waitingCount="0" stopTime="0.00" timeLoss="17.36" rerouteNo="0" devices="tripinfo_flow_route_90_duration_20250327_2120.4" vType="car" speedFactor="1.04" vaporized=""/>
    <tripinfo id="flow_route_89_duration_20250327_2120.2" depart="9.00" departLane="380585338#0_0" departPos="22.47" departSpeed="0.00" departDelay="0.43" arrival="64.00" arrivalLane="380593307#0_1" arrivalPos="166.07" arrivalSpeed="15.67" duration="55.00" routeLength="353.88" waitingTime="9.00" waitingCount="1" stopTime="0.00" timeLoss="31.98" rerouteNo="0" devices="tripinfo_flow_route_89_duration_20250327_2120.2" vType="car" speedFactor="0.94" vaporized=""/>
    <tripinfo id="flow_route_90_duration_20250327_2120.0" depart="0.00" departLane="380585338#0_0" departPos="118.71" departSpeed="0.00" departDelay="0.00" arrival="67.00" arrivalLane="136617981_0" arrivalPos="211.18" arrivalSpeed="14.09" duration="67.00" routeLength="279.54" waitingTime="23.00" waitingCount="1" stopTime="0.00" timeLoss="46.09" rerouteNo="0" devices="tripinfo_flow_route_90_duration_20250327_2120.0" vType="car" speedFactor="0.86" vaporized=""/>
    <tripinfo id="flow_route_89_duration_20250327_2120.5" depart="22.00" departLane="380585338#0_0" departPos="58.87" departSpeed="0.00" departDelay="0.58" arrival="67.00" arrivalLane="380593307#0_2" arrivalPos="172.27" arrivalSpeed="16.25" duration="45.00" routeLength="323.67" waitingTime="0.00" waitingCount="0" stopTime="0.00" timeLoss="24.94" rerouteNo="0" devices="tripinfo_flow_route_89_duration_20250327_2120.5" vType="car" speedFactor="1.15" vaporized=""/>
    <tripinfo id="flow_route_90_duration_20250327_2120.2" depart="16.00" departLane="380585338#0_0" departPos="85.54" departSpeed="0.00" departDelay="1.00" arrival="68.00" arrivalLane="136617981_0" arrivalPos="168.98" arrivalSpeed="13.42" duration="52.00" routeLength="270.52" waitingTime="12.00" waitingCount="1" stopTime="0.00" timeLoss="30.96" rerouteNo="0" devices="tripinfo_flow_route_90_duration_20250327_2120.2" vType="car" speedFactor="0.83" vaporized=""/>
    <tripinfo id="flow_route_89_duration_20250327_2120.7" depart="34.00" departLane="380585338#0_0" departPos="59.54" departSpeed="0.00" departDelay="4.01" arrival="68.00" arrivalLane="380593307#0_1" arrivalPos="169.59" arrivalSpeed="16.56" duration="34.00" routeLength="320.32" waitingTime="0.00" waitingCount="0" stopTime="0.00" timeLoss="14.32" rerouteNo="0" devices="tripinfo_flow_route_89_duration_20250327_2120.7" vType="car" speedFactor="1.04" vaporized=""/>
    <tripinfo id="flow_route_78_duration_20250327_2120.0" depart="0.00" departLane="133342692#0_0" departPos="79.92" departSpeed="0.00" departDelay="0.00" arrival="71.00" arrivalLane="136617981_2" arrivalPos="12.89" arrivalSpeed="6.83" duration="71.00" routeLength="138.43" waitingTime="36.00" waitingCount="2" stopTime="0.00" timeLoss="61.60" rerouteNo="0" devices="tripinfo_flow_route_78_duration_20250327_2120.0" vType="car" speedFactor="1.01" vaporized=""/>
    <tripinfo id="flow_route_89_duration_20250327_2120.8" depart="37.00" departLane="380585338#0_0" departPos="7.40" departSpeed="0.00" departDelay="2.72" arrival="71.00" arrivalLane="380593307#0_1" arrivalPos="135.59" arrivalSpeed="14.59" duration="34.00" routeLength="338.46" waitingTime="0.00" waitingCount="0" stopTime="0.00" timeLoss="10.60" rerouteNo="0" devices="tripinfo_flow_route_89_duration_20250327_2120.8" vType="car" speedFactor="0.88" vaporized=""/>
    <tripinfo id="flow_route_90_duration_20250327_2120.5" depart="40.00" departLane="380585338#0_0" departPos="102.30" departSpeed="0.00" departDelay="2.50" arrival="75.00" arrivalLane="136617981_0" arrivalPos="191.40" arrivalSpeed="13.86" duration="35.00" routeLength="276.18" waitingTime="0.00" waitingCount="0" stopTime="0.00" timeLoss="13.77" rerouteNo="0" devices="tripinfo_flow_route_90_duration_20250327_2120.5" vType="car" speedFactor="0.85" vaporized=""/>
    <tripinfo id="flow_route_78_duration_20250327_2120.3" depart="20.00" departLane="133342692#0_0" departPos="159.12" departSpeed="0.00" departDelay="0.00" arrival="81.00" arrivalLane="136617981_2" arrivalPos="79.03" arrivalSpeed="12.79" duration="61.00" routeLength="125.37" waitingTime="34.00" waitingCount="3" stopTime="0.00" timeLoss="52.71" rerouteNo="0" devices="tripinfo_flow_route_78_duration_20250327_2120.3" vType="car" speedFactor="1.13" vaporized=""/>
    <tripinfo id="flow_route_78_duration_20250327_2120.2" depart="14.00" departLane="133342692#0_0" departPos="15.26" departSpeed="0.00" departDelay="0.67" arrival="82.00" arrivalLane="136617981_2" arrivalPos="68.41" arrivalSpeed="12.93" duration="68.00" routeLength="258.61" waitingTime="24.00" waitingCount="2" stopTime="0.00" timeLoss="51.48" rerouteNo="0" devices="tripinfo_flow_route_78_duration_20250327_2120.2" vType="car" speedFactor="1.01" vaporized=""/>
    <tripinfo id="flow_route_78_duration_20250327_2120.4" depart="27.00" departLane="133342692#0_0" departPos="72.56" departSpeed="0.00" departDelay="0.34" arrival="86.00" arrivalLane="136617981_2" arrivalPos="82.20" arrivalSpeed="13.57" duration="59.00" routeLength="215.10" waitingTime="16.00" waitingCount="2" stopTime="0.00" timeLoss="44.71" rerouteNo="0" devices="tripinfo_flow_route_78_duration_20250327_2120.4" vType="car" speedFactor="0.97" vaporized=""/>
    <tripinfo id="flow_route_90_duration_20250327_2120.7" depart="54.00" departLane="380585338#0_0" departPos="100.64" departSpeed="0.00" departDelay="1.50" arrival="87.00" arrivalLane="136617981_0" arrivalPos="204.95" arrivalSpeed="14.80" duration="33.00" routeLength="291.38" waitingTime="0.00" waitingCount="0" stopTime="0.00" timeLoss="12.68" rerouteNo="0" devices="tripinfo_flow_route_90_duration_20250327_2120.7" vType="car" speedFactor="0.91" vaporized=""/>
    <tripinfo id="flow_route_78_duration_20250327_2120.5" depart="34.00" departLane="133342692#0_0" departPos="17.41" departSpeed="0.00" departDelay="0.67" arrival="88.00" arrivalLane="136617981_2" arrivalPos="83.98" arrivalSpeed="14.32" duration="54.00" routeLength="272.04" waitingTime="12.00" waitingCount="1" stopTime="0.00" timeLoss="36.53" rerouteNo="0" devices="tripinfo_flow_route_78_duration_20250327_2120.5" vType="car" speedFactor="1.09" vaporized=""/>
    <tripinfo id="flow_route_78_duration_20250327_2120.1" depart="7.00" departLane="133342692#0_0" departPos="93.32" departSpeed="0.00" departDelay="0.33" arrival="91.00" arrivalLane="136617981_2" arrivalPos="251.57" arrivalSpeed="16.47" duration="84.00" routeLength="363.71" waitingTime="30.00" waitingCount="2" stopTime="0.00" timeLoss="60.80" rerouteNo="0" devices="tripinfo_flow_route_78_duration_20250327_2120.1" vType="car" speedFactor="1.12" vaporized=""/>
    <tripinfo id="flow_route_78_duration_20250327_2120.7" depart="48.00" departLane="133342692#0_0" departPos="19.60" departSpeed="0.00" departDelay="1.34" arrival="97.00" arrivalLane="136617981_2" arrivalPos="133.29" arrivalSpeed="15.81" duration="49.00" routeLength="319.14" waitingTime="2.00" waitingCount="1" stopTime="0.00" timeLoss="28.24" rerouteNo="0" devices="tripinfo_flow_route_78_duration_20250327_2120.7" vType="car" speedFactor="1.08" vaporized=""/>
    <tripinfo id="flow_route_78_duration_20250327_2120.6" depart="40.00" departLane="133342692#0_0" departPos="65.06" departSpeed="0.00" departDelay="0.00" arrival="98.00" arrivalLane="136617981_2" arrivalPos="187.99" arrivalSpeed="16.57" duration="58.00" routeLength="328.40" waitingTime="11.00" waitingCount="1" stopTime="0.00" timeLoss="37.53" rerouteNo="0" devices="tripinfo_flow_route_78_duration_20250327_2120.6" vType="car" speedFactor="1.10" vaporized=""/>
    <tripinfo id="flow_route_84_duration_20250327_2120.8" depart="28.00" departLane="1091883842_0" departPos="72.38" departSpeed="0.00" departDelay="1.34" arrival="104.00" arrivalLane="136617981_2" arrivalPos="60.19" arrivalSpeed="12.03" duration="76.00" routeLength="206.10" waitingTime="42.00" waitingCount="1" stopTime="0.00" timeLoss="63.48" rerouteNo="0" devices="tripinfo_flow_route_84_duration_20250327_2120.8" vType="car" speedFactor="1.18" vaporized=""/>
    <tripinfo id="flow_route_78_duration_20250327_2120.8" depart="54.00" departLane="133342692#0_0" departPos="22.20" departSpeed="0.00" departDelay="0.67" arrival="104.00" arrivalLane="136617981_2" arrivalPos="227.23" arrivalSpeed="16.59" duration="50.00" routeLength="410.49" waitingTime="0.00" waitingCount="0" stopTime="0.00" timeLoss="24.03" rerouteNo="0" devices="tripinfo_flow_route_78_duration_20250327_2120.8" vType="car" speedFactor="1.04" vaporized=""/>
    <tripinfo id="flow_route_85_duration_20250327_2120.2" depart="33.00" departLane="1091883842_0" departPos="106.53" departSpeed="0.00" departDelay="3.00" arrival="105.00" arrivalLane="133000063_0" arrivalPos="62.90" arrivalSpeed="11.85" duration="72.00" routeLength="151.11" waitingTime="41.00" waitingCount="1" stopTime="0.00" timeLoss="61.76" rerouteNo="0" devices="tripinfo_flow_route_85_duration_20250327_2120.2" vType="car" speedFactor="1.09" vaporized=""/>
    <tripinfo id="flow_route_84_duration_20250327_2120.2" depart="9.00" departLane="1091883842_0" departPos="5.54" departSpeed="0.00" departDelay="2.33" arrival="107.00" arrivalLane="136617981_1" arrivalPos="112.40" arrivalSpeed="15.17" duration="98.00" routeLength="325.15" waitingTime="52.00" waitingCount="1" stopTime="0.00" timeLoss="77.78" rerouteNo="0" devices="tripinfo_flow_route_84_duration_20250327_2120.2" vType="car" speedFactor="0.99" vaporized=""/>
    <tripinfo id="flow_route_84_duration_20250327_2120.7" depart="24.00" departLane="1091883842_0" departPos="33.55" departSpeed="0.00" departDelay="0.67" arrival="107.00" arrivalLane="136617981_1" arrivalPos="58.72" arrivalSpeed="13.05" duration="83.00" routeLength="243.46" waitingTime="40.00" waitingCount="1" stopTime="0.00" timeLoss="67.80" rerouteNo="0" devices="tripinfo_flow_route_84_duration_20250327_2120.7" vType="car" speedFactor="1.17" vaporized=""/>
    <tripinfo id="flow_route_85_duration_20250327_2120.1" depart="16.00" departLane="1091883842_0" departPos="57.16" departSpeed="0.00" departDelay="1.00" arrival="108.00" arrivalLane="133000063_0" arrivalPos="123.25" arrivalSpeed="14.46" duration="92.00" routeLength="260.84" waitingTime="51.00" waitingCount="1" stopTime="0.00" timeLoss="72.54" rerouteNo="0" devices="tripinfo_flow_route_85_duration_20250327_2120.1" vType="car" speedFactor="0.89" vaporized=""/>
    <tripinfo id="flow_route_85_duration_20250327_2120.3" depart="47.00" departLane="1091883842_0" departPos="0.16" departSpeed="0.00" departDelay="2.00" arrival="108.00" arrivalLane="133000063_0" arrivalPos="2.52" arrivalSpeed="7.38" duration="61.00" routeLength="197.11" waitingTime="25.00" waitingCount="1" stopTime="0.00" timeLoss="48.22" rerouteNo="0" devices="tripinfo_flow_route_85_duration_20250327_2120.3" vType="car" speedFactor="1.02" vaporized=""/>
    <tripinfo id="flow_route_84_duration_20250327_2120.6" depart="20.00" departLane="1091883842_0" departPos="12.44" departSpeed="0.00" departDelay="0.00" arrival="109.00" arrivalLane="136617981_1" arrivalPos="154.97" arrivalSpeed="15.49" duration="89.00" routeLength="360.82" waitingTime="45.00" waitingCount="1" stopTime="0.00" timeLoss="65.69" rerouteNo="0" devices="tripinfo_flow_route_84_duration_20250327_2120.6" vType="car" speedFactor="0.93" vaporized=""/>
    <tripinfo id="flow_route_79_duration_20250327_2120.1" depart="30.00" departLane="380344611#0_0" departPos="29.70" departSpeed="0.00" departDelay="0.00" arrival="109.00" arrivalLane="423956929_0" arrivalPos="153.16" arrivalSpeed="14.86" duration="79.00" routeLength="439.29" waitingTime="28.00" waitingCount="1" stopTime="0.00" timeLoss="49.26" rerouteNo="0" devices="tripinfo_flow_route_79_duration_20250327_2120.1" vType="car" speedFactor="0.90" vaporized=""/>
    <tripinfo id="flow_route_84_duration_20250327_2120.9" depart="30.00" departLane="1091883842_0" departPos="116.11" departSpeed="0.00" departDelay="0.00" arrival="109.00" arrivalLane="136617981_1" arrivalPos="118.24" arrivalSpeed="15.94" duration="79.00" routeLength="220.41" waitingTime="44.00" waitingCount="1" stopTime="0.00" timeLoss="64.53" rerouteNo="0" devices="tripinfo_flow_route_84_duration_20250327_2120.9" vType="car" speedFactor="0.96" vaporized=""/>
    <tripinfo id="flow_route_84_duration_20250327_2120.16" depart="54.00" departLane="1091883842_0" departPos="146.62" departSpeed="0.00" departDelay="0.67" arrival="109.00" arrivalLane="136617981_0" arrivalPos="44.67" arrivalSpeed="12.63" duration="55.00" routeLength="116.34" waitingTime="33.00" waitingCount="1" stopTime="0.00" timeLoss="47.83" rerouteNo="0" devices="tripinfo_flow_route_84_duration_20250327_2120.16" vType="car" speedFactor="1.02" vaporized=""/>
    <tripinfo id="flow_route_84_duration_20250327_2120.5" depart="18.00" departLane="1091883842_0" departPos="119.16" departSpeed="0.00" departDelay="1.34" arrival="110.00" arrivalLane="136617981_0" arrivalPos="164.40" arrivalSpeed="14.54" duration="92.00" routeLength="263.53" waitingTime="53.00" waitingCount="1" stopTime="0.00" timeLoss="73.67" rerouteNo="0" devices="tripinfo_flow_route_84_duration_20250327_2120.5" vType="car" speedFactor="0.87" vaporized=""/>
    <tripinfo id="flow_route_84_duration_20250327_2120.14" depart="48.00" departLane="1091883842_0" departPos="158.09" departSpeed="0.00" departDelay="1.34" arrival="110.00" arrivalLane="136617981_0" arrivalPos="96.04" arrivalSpeed="14.75" duration="62.00" routeLength="156.23" waitingTime="38.00" waitingCount="1" stopTime="0.00" timeLoss="52.57" rerouteNo="0" devices="tripinfo_flow_route_84_duration_20250327_2120.14" vType="car" speedFactor="1.12" vaporized=""/>
    <tripinfo id="flow_route_84_duration_20250327_2120.17" depart="59.00" departLane="1091883842_0" departPos="35.38" departSpeed="0.00" departDelay="2.34" arrival="110.00" arrivalLane="136617981_2" arrivalPos="55.36" arrivalSpeed="13.14" duration="51.00" routeLength="238.27" waitingTime="12.00" waitingCount="1" stopTime="0.00" timeLoss="35.43" rerouteNo="0" devices="tripinfo_flow_route_84_duration_20250327_2120.17" vType="car" speedFactor="0.94" vaporized=""/>
    <tripinfo id="flow_route_84_duration_20250327_2120.11" depart="37.00" departLane="1091883842_0" departPos="72.55" departSpeed="0.00" departDelay="0.34" arrival="112.00" arrivalLane="136617981_2" arrivalPos="136.05" arrivalSpeed="14.11" duration="75.00" routeLength="281.79" waitingTime="35.00" waitingCount="1" stopTime="0.00" timeLoss="55.05" rerouteNo="0" devices="tripinfo_flow_route_84_duration_20250327_2120.11" vType="car" speedFactor="0.85" vaporized=""/>
    <tripinfo id="flow_route_84_duration_20250327_2120.10" depart="36.00" departLane="1091883842_0" departPos="26.21" departSpeed="0.00" departDelay="2.67" arrival="113.00" arrivalLane="136617981_2" arrivalPos="116.51" arrivalSpeed="14.90" duration="77.00" routeLength="308.58" waitingTime="33.00" waitingCount="1" stopTime="0.00" timeLoss="57.68" rerouteNo="0" devices="tripinfo_flow_route_84_duration_20250327_2120.10" vType="car" speedFactor="1.00" vaporized=""/>
    <tripinfo id="flow_route_84_duration_20250327_2120.12" depart="41.00" departLane="1091883842_0" departPos="110.07" departSpeed="0.00" departDelay="1.00" arrival="113.00" arrivalLane="136617981_1" arrivalPos="122.11" arrivalSpeed="16.37" duration="72.00" routeLength="230.34" waitingTime="36.00" waitingCount="1" stopTime="0.00" timeLoss="57.55" rerouteNo="0" devices="tripinfo_flow_route_84_duration_20250327_2120.12" vType="car" speedFactor="1.00" vaporized=""/>
    <tripinfo id="flow_route_81_duration_20250327_2120.6" depart="26.00" departLane="380344611#0_0" departPos="204.70" departSpeed="0.00" departDelay="0.29" arrival="117.00" arrivalLane="133000063_2" arrivalPos="8.07" arrivalSpeed="6.72" duration="91.00" routeLength="119.24" waitingTime="58.00" waitingCount="2" stopTime="0.00" timeLoss="83.17" rerouteNo="0" devices="tripinfo_flow_route_81_duration_20250327_2120.6" vType="car" speedFactor="0.99" vaporized=""/>
    <tripinfo id="flow_route_84_duration_20250327_2120.13" depart="45.00" departLane="1091883842_0" departPos="89.64" departSpeed="0.00" departDelay="1.67" arrival="122.00" arrivalLane="136617981_1" arrivalPos="232.72" arrivalSpeed="16.30" duration="77.00" routeLength="361.37" waitingTime="31.00" waitingCount="1" stopTime="0.00" timeLoss="54.50" rerouteNo="0" devices="tripinfo_flow_route_84_duration_20250327_2120.13" vType="car" speedFactor="1.14" vaporized=""/>
    <tripinfo id="flow_route_81_duration_20250327_2120.7" depart="30.00" departLane="380344611#0_0" departPos="248.28" departSpeed="0.00" departDelay="0.01" arrival="124.00" arrivalLane="133000063_2" arrivalPos="100.76" arrivalSpeed="13.65" duration="94.00" routeLength="168.36" waitingTime="58.00" waitingCount="2" stopTime="0.00" timeLoss="82.91" rerouteNo="0" devices="tripinfo_flow_route_81_duration_20250327_2120.7" vType="car" speedFactor="1.03" vaporized=""/>
    <tripinfo id="flow_route_84_duration_20250327_2120.15" depart="51.00" departLane="1091883842_0" departPos="85.96" departSpeed="0.00" departDelay="1.01" arrival="127.00" arrivalLane="136617981_0" arrivalPos="282.50" arrivalSpeed="15.21" duration="76.00" routeLength="414.83" waitingTime="27.00" waitingCount="1" stopTime="0.00" timeLoss="48.85" rerouteNo="0" devices="tripinfo_flow_route_84_duration_20250327_2120.15" vType="car" speedFactor="0.94" vaporized=""/>
    <tripinfo id="flow_route_81_duration_20250327_2120.3" depart="13.00" departLane="380344611#0_0" departPos="47.63" departSpeed="0.00" departDelay="0.15" arrival="128.00" arrivalLane="133000063_2" arrivalPos="45.48" arrivalSpeed="11.78" duration="115.00" routeLength="313.73" waitingTime="55.00" waitingCount="3" stopTime="0.00" timeLoss="95.44" rerouteNo="0" devices="tripinfo_flow_route_81_duration_20250327_2120.3" vType="car" speedFactor="1.16" vaporized=""/>
    <tripinfo id="flow_route_81_duration_20250327_2120.8" depart="36.00" departLane="380344611#0_0" departPos="250.11" departSpeed="0.00" departDelay="1.72" arrival="129.00" arrivalLane="133000063_2" arrivalPos="113.99" arrivalSpeed="14.75" duration="93.00" routeLength="179.75" waitingTime="56.00" waitingCount="2" stopTime="0.00" timeLoss="79.79" rerouteNo="0" devices="tripinfo_flow_route_81_duration_20250327_2120.8" vType="car" speedFactor="0.90" vaporized=""/>
    <tripinfo id="flow_route_81_duration_20250327_2120.10" depart="43.00" departLane="380344611#0_0" departPos="242.89" departSpeed="0.00" departDelay="0.15" arrival="130.00" arrivalLane="133000063_2" arrivalPos="98.75" arrivalSpeed="13.47" duration="87.00" routeLength="171.73" waitingTime="53.00" waitingCount="3" stopTime="0.00" timeLoss="75.98" rerouteNo="0" devices="tripinfo_flow_route_81_duration_20250327_2120.10" vType="car" speedFactor="1.00" vaporized=""/>
    <tripinfo id="flow_route_81_duration_20250327_2120.5" depart="22.00" departLane="380344611#0_0" departPos="89.00" departSpeed="0.00" departDelay="0.58" arrival="133.00" arrivalLane="133000063_2" arrivalPos="30.83" arrivalSpeed="10.00" duration="111.00" routeLength="257.70" waitingTime="61.00" waitingCount="2" stopTime="0.00" timeLoss="94.91" rerouteNo="0" devices="tripinfo_flow_route_81_duration_20250327_2120.5" vType="car" speedFactor="1.18" vaporized=""/>