<?xml version="1.0" encoding="UTF-8"?>

<!-- generated on 2025-05-06 21:08:37 by Eclipse SUMO sumo Version 1.20.0
<configuration xmlns:xsi="http://www.w3.org/2001/XMLSchema-instance" xsi:noNamespaceSchemaLocation="http://sumo.dlr.de/xsd/sumoConfiguration.xsd">

    <input>
        <net-file value="osm.net.xml"/>
        <route-files value="xml/route_static_cluster_11644940323_11644940324_3828703845_5.rou.xml"/>
    </input>

    <output>
        <tripinfo-output value="xml/tripinfo_static_cluster_11644940323_11644940324_3828703845_5.xml"/>
    </output>

    <traci_server>
        <remote-port value="34639"/>
    </traci_server>

</configuration>
-->

<tripinfos xmlns:xsi="http://www.w3.org/2001/XMLSchema-instance" xsi:noNamespaceSchemaLocation="http://sumo.dlr.de/xsd/tripinfo_file.xsd">
    <tripinfo id="flow_route_3_duration_20250327_2010.0" depart="0.00" departLane="1318793173#0_0" departPos="80.53" departSpeed="0.00" departDelay="0.00" arrival="19.00" arrivalLane="291974733#0_1" arrivalPos="66.76" arrivalSpeed="13.99" duration="19.00" routeLength="123.20" waitingTime="0.00" waitingCount="0" stopTime="0.00" timeLoss="10.27" rerouteNo="0" devices="tripinfo_flow_route_3_duration_20250327_2010.0" vType="car" speedFactor="0.94" vaporized=""/>
    <tripinfo id="flow_route_2_duration_20250327_2010.0" depart="0.00" departLane="1318793173#0_0" departPos="58.93" departSpeed="0.00" departDelay="0.00" arrival="21.00" arrivalLane="189835257_0" arrivalPos="46.92" arrivalSpeed="16.15" duration="21.00" routeLength="167.93" waitingTime="0.00" waitingCount="0" stopTime="0.00" timeLoss="9.40" rerouteNo="0" devices="tripinfo_flow_route_2_duration_20250327_2010.0" vType="car" speedFactor="1.06" vaporized=""/>
    <tripinfo id="flow_route_16_duration_20250327_2010.0" depart="0.00" departLane="137406408#0_0" departPos="52.27" departSpeed="0.00" departDelay="0.00" arrival="21.00" arrivalLane="133126040#0_0" arrivalPos="80.39" arrivalSpeed="14.92" duration="21.00" routeLength="149.31" waitingTime="0.00" waitingCount="0" stopTime="0.00" timeLoss="11.11" rerouteNo="0" devices="tripinfo_flow_route_16_duration_20250327_2010.0" vType="car" speedFactor="1.05" vaporized=""/>
    <tripinfo id="flow_route_17_duration_20250327_2010.0" depart="0.00" departLane="137406408#0_0" departPos="24.41" departSpeed="0.00" departDelay="0.00" arrival="22.00" arrivalLane="1254771874#0_0" arrivalPos="63.27" arrivalSpeed="16.22" duration="22.00" routeLength="182.06" waitingTime="0.00" waitingCount="0" stopTime="0.00" timeLoss="9.92" rerouteNo="0" devices="tripinfo_flow_route_17_duration_20250327_2010.0" vType="car" speedFactor="0.89" vaporized=""/>
    <tripinfo id="flow_route_9_duration_20250327_2010.0" depart="0.00" departLane="1318793173#0_0" departPos="0.65" departSpeed="0.00" departDelay="0.00" arrival="26.00" arrivalLane="1254771874#0_1" arrivalPos="11.63" arrivalSpeed="11.86" duration="26.00" routeLength="169.44" waitingTime="0.00" waitingCount="0" stopTime="0.00" timeLoss="14.26" rerouteNo="0" devices="tripinfo_flow_route_9_duration_20250327_2010.0" vType="car" speedFactor="1.01" vaporized=""/>
    <tripinfo id="flow_route_2_duration_20250327_2010.3" depart="9.00" departLane="1318793173#0_0" departPos="68.46" departSpeed="0.00" departDelay="0.43" arrival="29.00" arrivalLane="189835257_0" arrivalPos="27.01" arrivalSpeed="14.22" duration="20.00" routeLength="138.49" waitingTime="0.00" waitingCount="0" stopTime="0.00" timeLoss="10.51" rerouteNo="0" devices="tripinfo_flow_route_2_duration_20250327_2010.3" vType="car" speedFactor="1.09" vaporized=""/>
    <tripinfo id="flow_route_9_duration_20250327_2010.1" depart="10.00" departLane="1318793173#0_0" departPos="89.08" departSpeed="0.00" departDelay="1.43" arrival="29.00" arrivalLane="1254771874#0_1" arrivalPos="78.49" arrivalSpeed="14.36" duration="19.00" routeLength="147.88" waitingTime="0.00" waitingCount="0" stopTime="0.00" timeLoss="8.99" rerouteNo="0" devices="tripinfo_flow_route_9_duration_20250327_2010.1" vType="car" speedFactor="1.03" vaporized=""/>
    <tripinfo id="flow_route_2_duration_20250327_2010.1" depart="3.00" departLane="1318793173#0_0" departPos="34.79" departSpeed="0.00" departDelay="0.14" arrival="32.00" arrivalLane="189835257_0" arrivalPos="46.11" arrivalSpeed="15.42" duration="29.00" routeLength="191.25" waitingTime="0.00" waitingCount="0" stopTime="0.00" timeLoss="15.58" rerouteNo="0" devices="tripinfo_flow_route_2_duration_20250327_2010.1" vType="car" speedFactor="0.94" vaporized=""/>
    <tripinfo id="flow_route_2_duration_20250327_2010.2" depart="6.00" departLane="1318793173#0_0" departPos="4.99" departSpeed="0.00" departDelay="0.29" arrival="34.00" arrivalLane="189835257_0" arrivalPos="36.00" arrivalSpeed="14.00" duration="28.00" routeLength="210.95" waitingTime="0.00" waitingCount="0" stopTime="0.00" timeLoss="11.81" rerouteNo="0" devices="tripinfo_flow_route_2_duration_20250327_2010.2" vType="car" speedFactor="0.86" vaporized=""/>
    <tripinfo id="flow_route_13_duration_20250327_2010.1" depart="15.00" departLane="1252820503#0_0" departPos="49.05" departSpeed="0.00" departDelay="0.00" arrival="39.00" arrivalLane="291974733#0_0" arrivalPos="2.79" arrivalSpeed="4.70" duration="24.00" routeLength="110.90" waitingTime="0.00" waitingCount="0" stopTime="0.00" timeLoss="16.01" rerouteNo="0" devices="tripinfo_flow_route_13_duration_20250327_2010.1" vType="car" speedFactor="0.88" vaporized=""/>
    <tripinfo id="flow_route_13_duration_20250327_2010.0" depart="0.00" departLane="1252820503#0_0" departPos="99.64" departSpeed="0.00" departDelay="0.00" arrival="43.00" arrivalLane="291974733#0_0" arrivalPos="46.05" arrivalSpeed="9.56" duration="43.00" routeLength="103.57" waitingTime="19.00" waitingCount="1" stopTime="0.00" timeLoss="35.56" rerouteNo="0" devices="tripinfo_flow_route_13_duration_20250327_2010.0" vType="car" speedFactor="1.08" vaporized=""/>
    <tripinfo id="flow_route_15_duration_20250327_2010.0" depart="1.00" departLane="1252820503#0_0" departPos="8.92" departSpeed="0.00" departDelay="1.00" arrival="44.00" arrivalLane="133126040#0_1" arrivalPos="4.72" arrivalSpeed="7.74" duration="43.00" routeLength="174.98" waitingTime="10.00" waitingCount="1" stopTime="0.00" timeLoss="31.32" rerouteNo="0" devices="tripinfo_flow_route_15_duration_20250327_2010.0" vType="car" speedFactor="0.83" vaporized=""/>
    <tripinfo id="flow_route_14_duration_20250327_2010.0" depart="0.00" departLane="1252820503#0_0" departPos="69.02" departSpeed="0.00" departDelay="0.00" arrival="56.00" arrivalLane="1254771874#0_0" arrivalPos="150.80" arrivalSpeed="16.49" duration="56.00" routeLength="291.67" waitingTime="15.00" waitingCount="1" stopTime="0.00" timeLoss="37.71" rerouteNo="0" devices="tripinfo_flow_route_14_duration_20250327_2010.0" vType="car" speedFactor="1.03" vaporized=""/>
    <tripinfo id="flow_route_13_duration_20250327_2010.2" depart="30.00" departLane="1252820503#0_0" departPos="50.19" departSpeed="0.00" departDelay="0.00" arrival="58.00" arrivalLane="291974733#0_0" arrivalPos="92.98" arrivalSpeed="12.86" duration="28.00" routeLength="199.94" waitingTime="0.00" waitingCount="0" stopTime="0.00" timeLoss="14.79" rerouteNo="0" devices="tripinfo_flow_route_13_duration_20250327_2010.2" vType="car" speedFactor="0.95" vaporized=""/>
    <tripinfo id="flow_route_16_duration_20250327_2010.3" depart="36.00" departLane="137406408#0_0" departPos="56.78" departSpeed="0.00" departDelay="0.00" arrival="71.00" arrivalLane="133126040#0_1" arrivalPos="22.97" arrivalSpeed="9.38" duration="35.00" routeLength="87.38" waitingTime="12.00" waitingCount="1" stopTime="0.00" timeLoss="29.31" rerouteNo="0" devices="tripinfo_flow_route_16_duration_20250327_2010.3" vType="car" speedFactor="1.15" vaporized=""/>
    <tripinfo id="flow_route_16_duration_20250327_2010.1" depart="12.00" departLane="137406408#0_0" departPos="2.99" departSpeed="0.00" departDelay="0.00" arrival="73.00" arrivalLane="133126040#0_0" arrivalPos="42.89" arrivalSpeed="10.82" duration="61.00" routeLength="161.09" waitingTime="31.00" waitingCount="1" stopTime="0.00" timeLoss="50.76" rerouteNo="0" devices="tripinfo_flow_route_16_duration_20250327_2010.1" vType="car" speedFactor="1.12" vaporized=""/>
    <tripinfo id="flow_route_3_duration_20250327_2010.1" depart="25.00" departLane="1318793173#0_0" departPos="103.20" departSpeed="0.00" departDelay="5.00" arrival="73.00" arrivalLane="291974733#0_1" arrivalPos="53.56" arrivalSpeed="11.26" duration="48.00" routeLength="87.32" waitingTime="30.00" waitingCount="1" stopTime="0.00" timeLoss="42.55" rerouteNo="0" devices="tripinfo_flow_route_3_duration_20250327_2010.1" vType="car" speedFactor="1.02" vaporized=""/>
    <tripinfo id="flow_route_2_duration_20250327_2010.7" depart="23.00" departLane="1318793173#0_0" departPos="74.74" departSpeed="0.00" departDelay="3.00" arrival="77.00" arrivalLane="189835257_0" arrivalPos="8.84" arrivalSpeed="11.75" duration="54.00" routeLength="114.04" waitingTime="30.00" waitingCount="1" stopTime="0.00" timeLoss="46.38" rerouteNo="0" devices="tripinfo_flow_route_2_duration_20250327_2010.7" vType="car" speedFactor="1.16" vaporized=""/>
    <tripinfo id="flow_route_16_duration_20250327_2010.4" depart="48.00" departLane="137406408#0_0" departPos="61.09" departSpeed="0.00" departDelay="0.00" arrival="78.00" arrivalLane="133126040#0_1" arrivalPos="75.66" arrivalSpeed="13.14" duration="30.00" routeLength="135.76" waitingTime="2.00" waitingCount="1" stopTime="0.00" timeLoss="21.44" rerouteNo="0" devices="tripinfo_flow_route_16_duration_20250327_2010.4" vType="car" speedFactor="1.03" vaporized=""/>
    <tripinfo id="flow_route_16_duration_20250327_2010.2" depart="24.00" departLane="137406408#0_0" departPos="53.54" departSpeed="0.00" departDelay="0.00" arrival="80.00" arrivalLane="133126040#0_0" arrivalPos="103.83" arrivalSpeed="14.62" duration="56.00" routeLength="171.48" waitingTime="25.00" waitingCount="1" stopTime="0.00" timeLoss="45.13" rerouteNo="0" devices="tripinfo_flow_route_16_duration_20250327_2010.2" vType="car" speedFactor="0.97" vaporized=""/>
    <tripinfo id="flow_route_17_duration_20250327_2010.2" depart="24.00" departLane="137406408#0_0" departPos="15.54" departSpeed="0.00" departDelay="0.00" arrival="81.00" arrivalLane="1254771874#0_0" arrivalPos="78.68" arrivalSpeed="14.59" duration="57.00" routeLength="206.34" waitingTime="22.00" waitingCount="1" stopTime="0.00" timeLoss="43.40" rerouteNo="0" devices="tripinfo_flow_route_17_duration_20250327_2010.2" vType="car" speedFactor="0.89" vaporized=""/>
    <tripinfo id="flow_route_17_duration_20250327_2010.4" depart="49.00" departLane="137406408#0_0" departPos="11.47" departSpeed="0.00" departDelay="1.00" arrival="81.00" arrivalLane="1254771874#0_0" arrivalPos="25.95" arrivalSpeed="12.41" duration="32.00" routeLength="157.69" waitingTime="1.00" waitingCount="1" stopTime="0.00" timeLoss="21.58" rerouteNo="0" devices="tripinfo_flow_route_17_duration_20250327_2010.4" vType="car" speedFactor="0.96" vaporized=""/>
    <tripinfo id="flow_route_2_duration_20250327_2010.4" depart="14.00" departLane="1318793173#0_0" departPos="17.19" departSpeed="0.00" departDelay="2.57" arrival="82.00" arrivalLane="189835257_0" arrivalPos="46.74" arrivalSpeed="14.91" duration="68.00" routeLength="209.49" waitingTime="28.00" waitingCount="1" stopTime="0.00" timeLoss="54.12" rerouteNo="0" devices="tripinfo_flow_route_2_duration_20250327_2010.4" vType="car" speedFactor="1.05" vaporized=""/>
    <tripinfo id="flow_route_17_duration_20250327_2010.1" depart="12.00" departLane="137406408#0_0" departPos="27.85" departSpeed="0.00" departDelay="0.00" arrival="82.00" arrivalLane="1254771874#0_0" arrivalPos="139.14" arrivalSpeed="16.35" duration="70.00" routeLength="254.49" waitingTime="32.00" waitingCount="1" stopTime="0.00" timeLoss="53.85" rerouteNo="0" devices="tripinfo_flow_route_17_duration_20250327_2010.1" vType="car" speedFactor="0.99" vaporized=""/>
    <tripinfo id="flow_route_2_duration_20250327_2010.5" depart="17.00" departLane="1318793173#0_0" departPos="13.55" departSpeed="0.00" departDelay="2.72" arrival="84.00" arrivalLane="189835257_0" arrivalPos="50.37" arrivalSpeed="14.73" duration="67.00" routeLength="216.76" waitingTime="28.00" waitingCount="1" stopTime="0.00" timeLoss="51.56" rerouteNo="0" devices="tripinfo_flow_route_2_duration_20250327_2010.5" vType="car" speedFactor="0.93" vaporized=""/>
    <tripinfo id="flow_route_2_duration_20250327_2010.9" depart="26.00" departLane="1318793173#0_0" departPos="30.13" departSpeed="0.00" departDelay="0.29" arrival="85.00" arrivalLane="189835257_0" arrivalPos="33.79" arrivalSpeed="13.69" duration="59.00" routeLength="183.59" waitingTime="27.00" waitingCount="1" stopTime="0.00" timeLoss="44.36" rerouteNo="0" devices="tripinfo_flow_route_2_duration_20250327_2010.9" vType="car" speedFactor="0.83" vaporized=""/>
    <tripinfo id="flow_route_2_duration_20250327_2010.6" depart="22.00" departLane="1318793173#0_0" departPos="9.62" departSpeed="0.00" departDelay="4.86" arrival="86.00" arrivalLane="189835257_0" arrivalPos="21.66" arrivalSpeed="13.99" duration="64.00" routeLength="191.98" waitingTime="26.00" waitingCount="1" stopTime="0.00" timeLoss="50.32" rerouteNo="0" devices="tripinfo_flow_route_2_duration_20250327_2010.6" vType="car" speedFactor="0.94" vaporized=""/>
    <tripinfo id="flow_route_2_duration_20250327_2010.8" depart="26.00" departLane="1318793173#0_0" departPos="3.01" departSpeed="0.00" departDelay="3.14" arrival="88.00" arrivalLane="189835257_0" arrivalPos="31.40" arrivalSpeed="14.45" duration="62.00" routeLength="208.33" waitingTime="25.00" waitingCount="1" stopTime="0.00" timeLoss="48.34" rerouteNo="0" devices="tripinfo_flow_route_2_duration_20250327_2010.8" vType="car" speedFactor="1.01" vaporized=""/>
    <tripinfo id="flow_route_2_duration_20250327_2010.11" depart="39.00" departLane="1318793173#0_0" departPos="45.08" departSpeed="0.00" departDelay="7.57" arrival="89.00" arrivalLane="189835257_0" arrivalPos="29.87" arrivalSpeed="14.68" duration="50.00" routeLength="164.72" waitingTime="25.00" waitingCount="1" stopTime="0.00" timeLoss="39.54" rerouteNo="0" devices="tripinfo_flow_route_2_duration_20250327_2010.11" vType="car" speedFactor="1.13" vaporized=""/>
    <tripinfo id="flow_route_17_duration_20250327_2010.3" depart="36.00" departLane="137406408#0_0" departPos="35.97" departSpeed="0.00" departDelay="0.00" arrival="89.00" arrivalLane="1254771874#0_0" arrivalPos="173.48" arrivalSpeed="16.36" duration="53.00" routeLength="280.72" waitingTime="15.00" waitingCount="1" stopTime="0.00" timeLoss="35.48" rerouteNo="0" devices="tripinfo_flow_route_17_duration_20250327_2010.3" vType="car" speedFactor="1.01" vaporized=""/>
    <tripinfo id="flow_route_3_duration_20250327_2010.2" depart="71.00" departLane="1318793173#0_0" departPos="1.58" departSpeed="0.00" departDelay="31.00" arrival="90.00" arrivalLane="291974733#0_1" arrivalPos="2.23" arrivalSpeed="15.16" duration="19.00" routeLength="137.61" waitingTime="0.00" waitingCount="0" stopTime="0.00" timeLoss="9.92" rerouteNo="0" devices="tripinfo_flow_route_3_duration_20250327_2010.2" vType="car" speedFactor="1.02" vaporized=""/>
    <tripinfo id="flow_route_2_duration_20250327_2010.10" depart="34.00" departLane="1318793173#0_0" departPos="5.06" departSpeed="0.00" departDelay="5.43" arrival="91.00" arrivalLane="189835257_0" arrivalPos="3.53" arrivalSpeed="12.60" duration="57.00" routeLength="178.40" waitingTime="23.00" waitingCount="1" stopTime="0.00" timeLoss="44.40" rerouteNo="0" devices="tripinfo_flow_route_2_duration_20250327_2010.10" vType="car" speedFactor="0.92" vaporized=""/>
    <tripinfo id="flow_route_9_duration_20250327_2010.3" depart="27.00" departLane="1318793173#0_0" departPos="100.30" departSpeed="0.00" departDelay="1.29" arrival="92.00" arrivalLane="1254771874#0_1" arrivalPos="38.81" arrivalSpeed="12.04" duration="65.00" routeLength="96.98" waitingTime="45.00" waitingCount="2" stopTime="0.00" timeLoss="56.86" rerouteNo="0" devices="tripinfo_flow_route_9_duration_20250327_2010.3" vType="car" speedFactor="0.87" vaporized=""/>
    <tripinfo id="flow_route_9_duration_20250327_2010.4" depart="46.00" departLane="1318793173#0_0" departPos="32.02" departSpeed="0.00" departDelay="11.72" arrival="92.00" arrivalLane="1254771874#0_1" arrivalPos="89.94" arrivalSpeed="14.02" duration="46.00" routeLength="216.39" waitingTime="7.00" waitingCount="1" stopTime="0.00" timeLoss="31.91" rerouteNo="0" devices="tripinfo_flow_route_9_duration_20250327_2010.4" vType="car" speedFactor="1.18" vaporized=""/>
    <tripinfo id="flow_route_2_duration_20250327_2010.12" depart="41.00" departLane="1318793173#0_0" departPos="11.32" departSpeed="0.00" departDelay="6.72" arrival="96.00" arrivalLane="189835257_0" arrivalPos="38.01" arrivalSpeed="15.01" duration="55.00" routeLength="206.64" waitingTime="18.00" waitingCount="1" stopTime="0.00" timeLoss="39.99" rerouteNo="0" devices="tripinfo_flow_route_2_duration_20250327_2010.12" vType="car" speedFactor="0.93" vaporized=""/>
    <tripinfo id="flow_route_2_duration_20250327_2010.13" depart="51.00" departLane="1318793173#0_0" departPos="15.25" departSpeed="0.00" departDelay="13.86" arrival="97.00" arrivalLane="189835257_0" arrivalPos="43.47" arrivalSpeed="15.21" duration="46.00" routeLength="208.16" waitingTime="15.00" waitingCount="1" stopTime="0.00" timeLoss="33.01" rerouteNo="0" devices="tripinfo_flow_route_2_duration_20250327_2010.13" vType="car" speedFactor="1.17" vaporized=""/>
    <tripinfo id="flow_route_9_duration_20250327_2010.2" depart="22.00" departLane="1318793173#0_0" departPos="72.20" departSpeed="0.00" departDelay="4.86" arrival="100.00" arrivalLane="1254771874#0_0" arrivalPos="246.56" arrivalSpeed="16.46" duration="78.00" routeLength="332.82" waitingTime="33.00" waitingCount="2" stopTime="0.00" timeLoss="55.65" rerouteNo="0" devices="tripinfo_flow_route_9_duration_20250327_2010.2" vType="car" speedFactor="0.94" vaporized=""/>
    <tripinfo id="flow_route_2_duration_20250327_2010.14" depart="52.00" departLane="1318793173#0_0" departPos="4.60" departSpeed="0.00" departDelay="12.00" arrival="100.00" arrivalLane="189835257_0" arrivalPos="51.44" arrivalSpeed="16.36" duration="48.00" routeLength="226.78" waitingTime="14.00" waitingCount="1" stopTime="0.00" timeLoss="33.04" rerouteNo="0" devices="tripinfo_flow_route_2_duration_20250327_2010.14" vType="car" speedFactor="0.99" vaporized=""/>
    <tripinfo id="flow_route_13_duration_20250327_2010.3" depart="45.00" departLane="1252820503#0_0" departPos="84.93" departSpeed="0.00" departDelay="0.00" arrival="103.00" arrivalLane="291974733#0_0" arrivalPos="42.71" arrivalSpeed="8.95" duration="58.00" routeLength="114.94" waitingTime="32.00" waitingCount="1" stopTime="0.00" timeLoss="50.02" rerouteNo="0" devices="tripinfo_flow_route_13_duration_20250327_2010.3" vType="car" speedFactor="1.10" vaporized=""/>
    <tripinfo id="flow_route_2_duration_20250327_2010.18" depart="90.00" departLane="1318793173#0_0" departPos="84.73" departSpeed="0.00" departDelay="38.57" arrival="108.00" arrivalLane="189835257_0" arrivalPos="19.57" arrivalSpeed="12.64" duration="18.00" routeLength="114.78" waitingTime="0.00" waitingCount="0" stopTime="0.00" timeLoss="10.04" rerouteNo="0" devices="tripinfo_flow_route_2_duration_20250327_2010.18" vType="car" speedFactor="1.04" vaporized=""/>
    <tripinfo id="flow_route_2_duration_20250327_2010.17" depart="89.00" departLane="1318793173#0_0" departPos="52.68" departSpeed="0.00" departDelay="40.43" arrival="109.00" arrivalLane="189835257_0" arrivalPos="14.81" arrivalSpeed="12.60" duration="20.00" routeLength="142.07" waitingTime="0.00" waitingCount="0" stopTime="0.00" timeLoss="10.76" rerouteNo="0" devices="tripinfo_flow_route_2_duration_20250327_2010.17" vType="car" speedFactor="1.09" vaporized=""/>
    <tripinfo id="flow_route_2_duration_20250327_2010.16" depart="88.00" departLane="1318793173#0_0" departPos="42.52" departSpeed="0.00" departDelay="42.29" arrival="114.00" arrivalLane="189835257_0" arrivalPos="51.16" arrivalSpeed="14.97" duration="26.00" routeLength="188.58" waitingTime="0.00" waitingCount="0" stopTime="0.00" timeLoss="11.81" rerouteNo="0" devices="tripinfo_flow_route_2_duration_20250327_2010.16" vType="car" speedFactor="0.90" vaporized=""/>
    <tripinfo id="flow_route_2_duration_20250327_2010.15" depart="80.00" departLane="1318793173#0_0" departPos="0.09" departSpeed="0.00" departDelay="37.15" arrival="116.00" arrivalLane="189835257_0" arrivalPos="48.71" arrivalSpeed="15.82" duration="36.00" routeLength="228.55" waitingTime="0.00" waitingCount="0" stopTime="0.00" timeLoss="20.47" rerouteNo="0" devices="tripinfo_flow_route_2_duration_20250327_2010.15" vType="car" speedFactor="0.97" vaporized=""/>
    <tripinfo id="flow_route_2_duration_20250327_2010.19" depart="95.00" departLane="1318793173#0_0" departPos="34.95" departSpeed="0.00" departDelay="40.72" arrival="118.00" arrivalLane="189835257_0" arrivalPos="44.52" arrivalSpeed="15.81" duration="23.00" routeLength="189.51" waitingTime="0.00" waitingCount="0" stopTime="0.00" timeLoss="11.15" rerouteNo="0" devices="tripinfo_flow_route_2_duration_20250327_2010.19" vType="car" speedFactor="1.09" vaporized=""/>
    <tripinfo id="flow_route_2_duration_20250327_2010.20" depart="99.00" departLane="1318793173#0_0" departPos="17.03" departSpeed="0.00" departDelay="41.86" arrival="123.00" arrivalLane="189835257_0" arrivalPos="34.93" arrivalSpeed="15.13" duration="24.00" routeLength="197.84" waitingTime="0.00" waitingCount="0" stopTime="0.00" timeLoss="10.94" rerouteNo="0" devices="tripinfo_flow_route_2_duration_20250327_2010.20" vType="car" speedFactor="1.00" vaporized=""/>
    <tripinfo id="flow_route_9_duration_20250327_2010.5" depart="85.00" departLane="1318793173#0_0" departPos="44.51" departSpeed="0.00" departDelay="42.15" arrival="141.00" arrivalLane="1254771874#0_1" arrivalPos="125.94" arrivalSpeed="16.48" duration="56.00" routeLength="239.90" waitingTime="19.00" waitingCount="1" stopTime="0.00" timeLoss="39.92" rerouteNo="0" devices="tripinfo_flow_route_9_duration_20250327_2010.5" vType="car" speedFactor="1.18" vaporized=""/>
    <tripinfo id="flow_route_9_duration_20250327_2010.6" depart="93.00" departLane="1318793173#0_0" departPos="22.43" departSpeed="0.00" departDelay="41.57" arrival="143.00" arrivalLane="1254771874#0_1" arrivalPos="122.70" arrivalSpeed="16.28" duration="50.00" routeLength="258.75" waitingTime="12.00" waitingCount="1" stopTime="0.00" timeLoss="32.83" rerouteNo="0" devices="tripinfo_flow_route_9_duration_20250327_2010.6" vType="car" speedFactor="1.04" vaporized=""/>
</tripinfos>
