<?xml version="1.0" encoding="UTF-8"?>

<!-- generated on 2025-05-06 21:08:22 by Eclipse SUMO sumo Version 1.20.0
<configuration xmlns:xsi="http://www.w3.org/2001/XMLSchema-instance" xsi:noNamespaceSchemaLocation="http://sumo.dlr.de/xsd/sumoConfiguration.xsd">

    <input>
        <net-file value="osm.net.xml"/>
        <route-files value="xml/route_rl_11644940310_4.rou.xml"/>
    </input>

    <output>
        <tripinfo-output value="xml/tripinfo_rl_11644940310_4.xml"/>
    </output>

    <traci_server>
        <remote-port value="57229"/>
    </traci_server>

</configuration>
-->

<tripinfos xmlns:xsi="http://www.w3.org/2001/XMLSchema-instance" xsi:noNamespaceSchemaLocation="http://sumo.dlr.de/xsd/tripinfo_file.xsd">
    <tripinfo id="flow_route_27_duration_20250327_1930.1" depart="3.00" departLane="1254771874#0_0" departPos="223.82" departSpeed="0.00" departDelay="0.78" arrival="17.00" arrivalLane="138002006#0_1" arrivalPos="5.35" arrivalSpeed="7.86" duration="14.00" routeLength="53.42" waitingTime="0.00" waitingCount="0" stopTime="0.00" timeLoss="9.38" rerouteNo="0" devices="tripinfo_flow_route_27_duration_20250327_1930.1" vType="car" speedFactor="0.89" vaporized=""/>
    <tripinfo id="flow_route_27_duration_20250327_1930.2" depart="5.00" departLane="1254771874#0_0" departPos="240.04" departSpeed="0.00" departDelay="0.56" arrival="19.00" arrivalLane="138002006#0_1" arrivalPos="45.54" arrivalSpeed="10.40" duration="14.00" routeLength="77.39" waitingTime="0.00" waitingCount="0" stopTime="0.00" timeLoss="8.65" rerouteNo="0" devices="tripinfo_flow_route_27_duration_20250327_1930.2" vType="car" speedFactor="1.09" vaporized=""/>
    <tripinfo id="flow_route_27_duration_20250327_1930.4" depart="9.00" departLane="1254771874#0_0" departPos="244.52" departSpeed="0.00" departDelay="0.11" arrival="29.00" arrivalLane="138002006#0_1" arrivalPos="67.86" arrivalSpeed="11.53" duration="20.00" routeLength="95.23" waitingTime="1.00" waitingCount="1" stopTime="0.00" timeLoss="12.77" rerouteNo="0" devices="tripinfo_flow_route_27_duration_20250327_1930.4" vType="car" speedFactor="0.93" vaporized=""/>
    <tripinfo id="flow_route_27_duration_20250327_1930.0" depart="0.00" departLane="1254771874#0_0" departPos="190.47" departSpeed="0.00" departDelay="0.00" arrival="31.00" arrivalLane="138002006#0_1" arrivalPos="4.04" arrivalSpeed="6.77" duration="31.00" routeLength="85.46" waitingTime="2.00" waitingCount="1" stopTime="0.00" timeLoss="24.72" rerouteNo="0" devices="tripinfo_flow_route_27_duration_20250327_1930.0" vType="car" speedFactor="1.01" vaporized=""/>
    <tripinfo id="flow_route_27_duration_20250327_1930.3" depart="7.00" departLane="1254771874#0_0" departPos="226.89" departSpeed="0.00" departDelay="0.33" arrival="32.00" arrivalLane="138002006#0_1" arrivalPos="73.17" arrivalSpeed="12.58" duration="25.00" routeLength="118.17" waitingTime="1.00" waitingCount="1" stopTime="0.00" timeLoss="16.55" rerouteNo="0" devices="tripinfo_flow_route_27_duration_20250327_1930.3" vType="car" speedFactor="1.03" vaporized=""/>
    <tripinfo id="flow_route_27_duration_20250327_1930.5" depart="12.00" departLane="1254771874#0_0" departPos="246.56" departSpeed="0.00" departDelay="0.89" arrival="32.00" arrivalLane="138002006#0_1" arrivalPos="29.41" arrivalSpeed="8.15" duration="20.00" routeLength="54.74" waitingTime="4.00" waitingCount="3" stopTime="0.00" timeLoss="15.74" rerouteNo="0" devices="tripinfo_flow_route_27_duration_20250327_1930.5" vType="car" speedFactor="0.94" vaporized=""/>
    <tripinfo id="flow_route_25_duration_20250327_1930.0" depart="0.00" departLane="1254771874#0_0" departPos="63.27" departSpeed="0.00" departDelay="0.00" arrival="34.00" arrivalLane="1341093415#0_0" arrivalPos="158.81" arrivalSpeed="16.47" duration="34.00" routeLength="373.33" waitingTime="0.00" waitingCount="0" stopTime="0.00" timeLoss="10.87" rerouteNo="0" devices="tripinfo_flow_route_25_duration_20250327_1930.0" vType="car" speedFactor="1.06" vaporized=""/>
    <tripinfo id="flow_route_26_duration_20250327_1930.0" depart="0.00" departLane="1254771874#0_0" departPos="139.38" departSpeed="0.00" departDelay="0.00" arrival="38.00" arrivalLane="-422986370#2_0" arrivalPos="213.43" arrivalSpeed="15.56" duration="38.00" routeLength="338.64" waitingTime="0.00" waitingCount="0" stopTime="0.00" timeLoss="15.98" rerouteNo="0" devices="tripinfo_flow_route_26_duration_20250327_1930.0" vType="car" speedFactor="0.94" vaporized=""/>
    <tripinfo id="flow_route_27_duration_20250327_1930.6" depart="14.00" departLane="1254771874#0_0" departPos="207.49" departSpeed="0.00" departDelay="0.67" arrival="39.00" arrivalLane="138002006#0_1" arrivalPos="14.91" arrivalSpeed="7.98" duration="25.00" routeLength="79.31" waitingTime="0.00" waitingCount="0" stopTime="0.00" timeLoss="19.41" rerouteNo="0" devices="tripinfo_flow_route_27_duration_20250327_1930.6" vType="car" speedFactor="1.02" vaporized=""/>
    <tripinfo id="flow_route_27_duration_20250327_1930.7" depart="18.00" departLane="1254771874#0_0" departPos="244.09" departSpeed="0.00" departDelay="2.45" arrival="41.00" arrivalLane="138002006#0_1" arrivalPos="52.93" arrivalSpeed="10.36" duration="23.00" routeLength="80.72" waitingTime="4.00" waitingCount="2" stopTime="0.00" timeLoss="17.10" rerouteNo="0" devices="tripinfo_flow_route_27_duration_20250327_1930.7" vType="car" speedFactor="0.97" vaporized=""/>
    <tripinfo id="flow_route_26_duration_20250327_1930.1" depart="9.00" departLane="1254771874#0_0" departPos="40.67" departSpeed="0.00" departDelay="0.43" arrival="45.00" arrivalLane="-422986370#2_0" arrivalPos="90.39" arrivalSpeed="13.53" duration="36.00" routeLength="314.32" waitingTime="0.00" waitingCount="0" stopTime="0.00" timeLoss="15.66" rerouteNo="0" devices="tripinfo_flow_route_26_duration_20250327_1930.1" vType="car" speedFactor="0.99" vaporized=""/>
    <tripinfo id="flow_route_50_duration_20250327_1930.0" depart="0.00" departLane="-138002006#3_0" departPos="41.39" departSpeed="0.00" departDelay="0.00" arrival="47.00" arrivalLane="-422986370#2_0" arrivalPos="13.06" arrivalSpeed="7.38" duration="47.00" routeLength="82.72" waitingTime="25.00" waitingCount="1" stopTime="0.00" timeLoss="40.73" rerouteNo="0" devices="tripinfo_flow_route_50_duration_20250327_1930.0" vType="car" speedFactor="0.83" vaporized=""/>
    <tripinfo id="flow_route_41_duration_20250327_1930.3" depart="15.00" departLane="1369578054_0" departPos="200.20" departSpeed="0.00" departDelay="3.00" arrival="49.00" arrivalLane="138002006#0_1" arrivalPos="11.48" arrivalSpeed="7.58" duration="34.00" routeLength="133.22" waitingTime="5.00" waitingCount="1" stopTime="0.00" timeLoss="25.35" rerouteNo="0" devices="tripinfo_flow_route_41_duration_20250327_1930.3" vType="car" speedFactor="0.94" vaporized=""/>
    <tripinfo id="flow_route_41_duration_20250327_1930.0" depart="0.00" departLane="1369578054_0" departPos="201.66" departSpeed="0.00" departDelay="0.00" arrival="51.00" arrivalLane="138002006#0_0" arrivalPos="52.37" arrivalSpeed="10.49" duration="51.00" routeLength="172.64" waitingTime="20.00" waitingCount="1" stopTime="0.00" timeLoss="40.40" rerouteNo="0" devices="tripinfo_flow_route_41_duration_20250327_1930.0" vType="car" speedFactor="1.03" vaporized=""/>
    <tripinfo id="flow_route_40_duration_20250327_1930.4" depart="15.00" departLane="1369578054_0" departPos="214.41" departSpeed="0.00" departDelay="0.88" arrival="51.00" arrivalLane="1341093415#0_0" arrivalPos="15.87" arrivalSpeed="7.81" duration="36.00" routeLength="112.38" waitingTime="9.00" waitingCount="1" stopTime="0.00" timeLoss="28.18" rerouteNo="0" devices="tripinfo_flow_route_40_duration_20250327_1930.4" vType="car" speedFactor="1.01" vaporized=""/>
    <tripinfo id="flow_route_40_duration_20250327_1930.3" depart="14.00" departLane="1369578054_0" departPos="171.28" departSpeed="0.00" departDelay="3.41" arrival="52.00" arrivalLane="1341093415#0_0" arrivalPos="5.32" arrivalSpeed="6.82" duration="38.00" routeLength="144.96" waitingTime="7.00" waitingCount="1" stopTime="0.00" timeLoss="26.82" rerouteNo="0" devices="tripinfo_flow_route_40_duration_20250327_1930.3" vType="car" speedFactor="0.88" vaporized=""/>
    <tripinfo id="flow_route_50_duration_20250327_1930.1" depart="12.00" departLane="-138002006#3_0" departPos="23.44" departSpeed="0.00" departDelay="0.00" arrival="52.00" arrivalLane="-422986370#2_0" arrivalPos="37.56" arrivalSpeed="9.34" duration="40.00" routeLength="125.15" waitingTime="12.00" waitingCount="1" stopTime="0.00" timeLoss="32.17" rerouteNo="0" devices="tripinfo_flow_route_50_duration_20250327_1930.1" vType="car" speedFactor="1.16" vaporized=""/>
    <tripinfo id="flow_route_41_duration_20250327_1930.4" depart="16.00" departLane="1369578054_0" departPos="287.64" departSpeed="0.00" departDelay="0.00" arrival="52.00" arrivalLane="138002006#0_0" arrivalPos="61.39" arrivalSpeed="11.50" duration="36.00" routeLength="95.69" waitingTime="15.00" waitingCount="1" stopTime="0.00" timeLoss="29.32" rerouteNo="0" devices="tripinfo_flow_route_41_duration_20250327_1930.4" vType="car" speedFactor="0.89" vaporized=""/>
    <tripinfo id="flow_route_41_duration_20250327_1930.1" depart="5.00" departLane="1369578054_0" departPos="189.81" departSpeed="0.00" departDelay="1.00" arrival="54.00" arrivalLane="138002006#0_0" arrivalPos="60.68" arrivalSpeed="11.75" duration="49.00" routeLength="192.80" waitingTime="14.00" waitingCount="1" stopTime="0.00" timeLoss="35.04" rerouteNo="0" devices="tripinfo_flow_route_41_duration_20250327_1930.1" vType="car" speedFactor="0.86" vaporized=""/>
    <tripinfo id="flow_route_41_duration_20250327_1930.2" depart="8.00" departLane="1369578054_0" departPos="9.71" departSpeed="0.00" departDelay="0.00" arrival="55.00" arrivalLane="138002006#0_1" arrivalPos="48.32" arrivalSpeed="10.81" duration="47.00" routeLength="360.54" waitingTime="3.00" waitingCount="1" stopTime="0.00" timeLoss="25.15" rerouteNo="0" devices="tripinfo_flow_route_41_duration_20250327_1930.2" vType="car" speedFactor="1.12" vaporized=""/>
    <tripinfo id="flow_route_41_duration_20250327_1930.7" depart="32.00" departLane="1369578054_0" departPos="171.89" departSpeed="0.00" departDelay="4.00" arrival="56.00" arrivalLane="138002006#0_1" arrivalPos="37.03" arrivalSpeed="11.74" duration="24.00" routeLength="187.07" waitingTime="0.00" waitingCount="0" stopTime="0.00" timeLoss="12.47" rerouteNo="0" devices="tripinfo_flow_route_41_duration_20250327_1930.7" vType="car" speedFactor="1.18" vaporized=""/>
    <tripinfo id="flow_route_40_duration_20250327_1930.1" depart="5.00" departLane="1369578054_0" departPos="92.01" departSpeed="0.00" departDelay="1.47" arrival="59.00" arrivalLane="1341093415#0_0" arrivalPos="57.39" arrivalSpeed="11.10" duration="54.00" routeLength="276.30" waitingTime="7.00" waitingCount="1" stopTime="0.00" timeLoss="35.54" rerouteNo="0" devices="tripinfo_flow_route_40_duration_20250327_1930.1" vType="car" speedFactor="0.94" vaporized=""/>
    <tripinfo id="flow_route_41_duration_20250327_1930.5" depart="21.00" departLane="1369578054_0" departPos="20.07" departSpeed="0.00" departDelay="1.00" arrival="59.00" arrivalLane="138002006#0_1" arrivalPos="24.75" arrivalSpeed="13.36" duration="38.00" routeLength="326.61" waitingTime="0.00" waitingCount="0" stopTime="0.00" timeLoss="17.53" rerouteNo="0" devices="tripinfo_flow_route_41_duration_20250327_1930.5" vType="car" speedFactor="1.13" vaporized=""/>
    <tripinfo id="flow_route_41_duration_20250327_1930.6" depart="25.00" departLane="1369578054_0" departPos="86.91" departSpeed="0.00" departDelay="1.00" arrival="59.00" arrivalLane="138002006#0_1" arrivalPos="50.35" arrivalSpeed="13.99" duration="34.00" routeLength="285.37" waitingTime="0.00" waitingCount="0" stopTime="0.00" timeLoss="16.20" rerouteNo="0" devices="tripinfo_flow_route_41_duration_20250327_1930.6" vType="car" speedFactor="1.15" vaporized=""/>
    <tripinfo id="flow_route_50_duration_20250327_1930.4" depart="48.00" departLane="-138002006#3_0" departPos="80.71" departSpeed="0.00" departDelay="0.00" arrival="59.00" arrivalLane="-422986370#2_0" arrivalPos="3.49" arrivalSpeed="7.56" duration="11.00" routeLength="33.82" waitingTime="1.00" waitingCount="1" stopTime="0.00" timeLoss="8.63" rerouteNo="0" devices="tripinfo_flow_route_50_duration_20250327_1930.4" vType="car" speedFactor="1.02" vaporized=""/>
    <tripinfo id="flow_route_50_duration_20250327_1930.2" depart="24.00" departLane="-138002006#3_0" departPos="4.16" departSpeed="0.00" departDelay="0.00" arrival="60.00" arrivalLane="-422986370#2_0" arrivalPos="62.06" arrivalSpeed="11.90" duration="36.00" routeLength="168.94" waitingTime="3.00" waitingCount="1" stopTime="0.00" timeLoss="25.23" rerouteNo="0" devices="tripinfo_flow_route_50_duration_20250327_1930.2" vType="car" speedFactor="1.01" vaporized=""/>
    <tripinfo id="flow_route_40_duration_20250327_1930.8" depart="34.00" departLane="1369578054_0" departPos="209.59" departSpeed="0.00" departDelay="5.77" arrival="60.00" arrivalLane="1341093415#0_0" arrivalPos="4.25" arrivalSpeed="6.66" duration="26.00" routeLength="105.58" waitingTime="0.00" waitingCount="0" stopTime="0.00" timeLoss="17.93" rerouteNo="0" devices="tripinfo_flow_route_40_duration_20250327_1930.8" vType="car" speedFactor="0.90" vaporized=""/>
    <tripinfo id="flow_route_40_duration_20250327_1930.2" depart="8.00" departLane="1369578054_0" departPos="70.93" departSpeed="0.00" departDelay="0.94" arrival="62.00" arrivalLane="1341093415#0_0" arrivalPos="70.69" arrivalSpeed="12.72" duration="54.00" routeLength="310.68" waitingTime="6.00" waitingCount="1" stopTime="0.00" timeLoss="34.61" rerouteNo="0" devices="tripinfo_flow_route_40_duration_20250327_1930.2" vType="car" speedFactor="1.05" vaporized=""/>
    <tripinfo id="flow_route_41_duration_20250327_1930.9" depart="39.00" departLane="1369578054_0" departPos="103.24" departSpeed="0.00" departDelay="3.00" arrival="64.00" arrivalLane="138002006#0_1" arrivalPos="12.53" arrivalSpeed="14.51" duration="25.00" routeLength="231.22" waitingTime="0.00" waitingCount="0" stopTime="0.00" timeLoss="8.66" rerouteNo="0" devices="tripinfo_flow_route_41_duration_20250327_1930.9" vType="car" speedFactor="0.88" vaporized=""/>
    <tripinfo id="flow_route_40_duration_20250327_1930.0" depart="0.00" departLane="1369578054_0" departPos="1.81" departSpeed="0.00" departDelay="0.00" arrival="65.00" arrivalLane="1341093415#0_0" arrivalPos="87.60" arrivalSpeed="14.15" duration="65.00" routeLength="396.71" waitingTime="5.00" waitingCount="1" stopTime="0.00" timeLoss="40.39" rerouteNo="0" devices="tripinfo_flow_route_40_duration_20250327_1930.0" vType="car" speedFactor="1.08" vaporized=""/>
    <tripinfo id="flow_route_41_duration_20250327_1930.8" depart="35.00" departLane="1369578054_0" departPos="84.26" departSpeed="0.00" departDelay="3.00" arrival="65.00" arrivalLane="138002006#0_1" arrivalPos="77.57" arrivalSpeed="16.43" duration="30.00" routeLength="315.24" waitingTime="0.00" waitingCount="0" stopTime="0.00" timeLoss="10.46" rerouteNo="0" devices="tripinfo_flow_route_41_duration_20250327_1930.8" vType="car" speedFactor="1.04" vaporized=""/>
    <tripinfo id="flow_route_40_duration_20250327_1930.6" depart="25.00" departLane="1369578054_0" departPos="105.43" departSpeed="0.00" departDelay="3.83" arrival="68.00" arrivalLane="1341093415#0_0" arrivalPos="31.90" arrivalSpeed="9.39" duration="43.00" routeLength="237.39" waitingTime="0.00" waitingCount="0" stopTime="0.00" timeLoss="27.14" rerouteNo="0" devices="tripinfo_flow_route_40_duration_20250327_1930.6" vType="car" speedFactor="0.93" vaporized=""/>
    <tripinfo id="flow_route_40_duration_20250327_1930.5" depart="18.00" departLane="1369578054_0" departPos="45.49" departSpeed="0.00" departDelay="0.36" arrival="70.00" arrivalLane="1341093415#0_0" arrivalPos="30.02" arrivalSpeed="9.82" duration="52.00" routeLength="295.44" waitingTime="0.00" waitingCount="0" stopTime="0.00" timeLoss="32.04" rerouteNo="0" devices="tripinfo_flow_route_40_duration_20250327_1930.5" vType="car" speedFactor="0.92" vaporized=""/>
    <tripinfo id="flow_route_40_duration_20250327_1930.7" depart="30.00" departLane="1369578054_0" departPos="187.34" departSpeed="0.00" departDelay="5.30" arrival="73.00" arrivalLane="1341093415#0_0" arrivalPos="128.67" arrivalSpeed="15.26" duration="43.00" routeLength="252.24" waitingTime="0.00" waitingCount="0" stopTime="0.00" timeLoss="26.46" rerouteNo="0" devices="tripinfo_flow_route_40_duration_20250327_1930.7" vType="car" speedFactor="0.99" vaporized=""/>
    <tripinfo id="flow_route_40_duration_20250327_1930.9" depart="34.00" departLane="1369578054_0" departPos="30.42" departSpeed="0.00" departDelay="2.24" arrival="81.00" arrivalLane="1341093415#0_0" arrivalPos="81.24" arrivalSpeed="12.60" duration="47.00" routeLength="361.74" waitingTime="0.00" waitingCount="0" stopTime="0.00" timeLoss="24.66" rerouteNo="0" devices="tripinfo_flow_route_40_duration_20250327_1930.9" vType="car" speedFactor="1.09" vaporized=""/>
    <tripinfo id="flow_route_40_duration_20250327_1930.10" depart="37.00" departLane="1369578054_0" departPos="117.06" departSpeed="0.00" departDelay="1.71" arrival="81.00" arrivalLane="1341093415#0_0" arrivalPos="127.13" arrivalSpeed="15.11" duration="44.00" routeLength="321.00" waitingTime="0.00" waitingCount="0" stopTime="0.00" timeLoss="21.88" rerouteNo="0" devices="tripinfo_flow_route_40_duration_20250327_1930.10" vType="car" speedFactor="0.90" vaporized=""/>
    <tripinfo id="flow_route_51_duration_20250327_1930.0" depart="2.00" departLane="-138002006#3_0" departPos="23.48" departSpeed="0.00" departDelay="2.00" arrival="83.00" arrivalLane="1341093415#0_3" arrivalPos="132.48" arrivalSpeed="15.67" duration="81.00" routeLength="212.67" waitingTime="45.00" waitingCount="2" stopTime="0.00" timeLoss="66.45" rerouteNo="0" devices="tripinfo_flow_route_51_duration_20250327_1930.0" vType="car" speedFactor="1.05" vaporized=""/>
    <tripinfo id="flow_route_40_duration_20250327_1930.11" depart="40.00" departLane="1369578054_0" departPos="83.09" departSpeed="0.00" departDelay="1.18" arrival="85.00" arrivalLane="1341093415#0_0" arrivalPos="161.20" arrivalSpeed="16.44" duration="45.00" routeLength="389.04" waitingTime="0.00" waitingCount="0" stopTime="0.00" timeLoss="20.13" rerouteNo="0" devices="tripinfo_flow_route_40_duration_20250327_1930.11" vType="car" speedFactor="1.17" vaporized=""/>
    <tripinfo id="flow_route_50_duration_20250327_1930.3" depart="36.00" departLane="-138002006#3_0" departPos="3.78" departSpeed="0.00" departDelay="0.00" arrival="87.00" arrivalLane="-422986370#2_0" arrivalPos="264.20" arrivalSpeed="13.79" duration="51.00" routeLength="371.46" waitingTime="4.00" waitingCount="1" stopTime="0.00" timeLoss="24.64" rerouteNo="0" devices="tripinfo_flow_route_50_duration_20250327_1930.3" vType="car" speedFactor="0.85" vaporized=""/>
    <tripinfo id="flow_route_27_duration_20250327_1930.9" depart="20.00" departLane="1254771874#0_0" departPos="139.77" departSpeed="0.00" departDelay="0.00" arrival="120.00" arrivalLane="138002006#0_1" arrivalPos="2.47" arrivalSpeed="6.12" duration="100.00" routeLength="134.60" waitingTime="71.00" waitingCount="1" stopTime="0.00" timeLoss="90.75" rerouteNo="0" devices="tripinfo_flow_route_27_duration_20250327_1930.9" vType="car" speedFactor="0.95" vaporized=""/>
    <tripinfo id="flow_route_26_duration_20250327_1930.5" depart="43.00" departLane="1254771874#0_0" departPos="241.51" departSpeed="0.00" departDelay="0.15" arrival="121.00" arrivalLane="-422986370#2_0" arrivalPos="30.82" arrivalSpeed="7.96" duration="78.00" routeLength="53.91" waitingTime="60.00" waitingCount="1" stopTime="0.00" timeLoss="73.57" rerouteNo="0" devices="tripinfo_flow_route_26_duration_20250327_1930.5" vType="car" speedFactor="1.00" vaporized=""/>
    <tripinfo id="flow_route_27_duration_20250327_1930.8" depart="18.00" departLane="1254771874#0_0" departPos="164.02" departSpeed="0.00" departDelay="0.22" arrival="123.00" arrivalLane="138002006#0_1" arrivalPos="51.49" arrivalSpeed="10.04" duration="105.00" routeLength="159.37" waitingTime="73.00" waitingCount="1" stopTime="0.00" timeLoss="93.79" rerouteNo="0" devices="tripinfo_flow_route_27_duration_20250327_1930.8" vType="car" speedFactor="0.87" vaporized=""/>
    <tripinfo id="flow_route_27_duration_20250327_1930.12" depart="27.00" departLane="1254771874#0_0" departPos="149.54" departSpeed="0.00" departDelay="0.34" arrival="127.00" arrivalLane="138002006#0_1" arrivalPos="45.52" arrivalSpeed="10.76" duration="100.00" routeLength="167.87" waitingTime="68.00" waitingCount="1" stopTime="0.00" timeLoss="88.79" rerouteNo="0" devices="tripinfo_flow_route_27_duration_20250327_1930.12" vType="car" speedFactor="0.97" vaporized=""/>
    <tripinfo id="flow_route_27_duration_20250327_1930.26" depart="58.00" departLane="1254771874#0_0" departPos="217.47" departSpeed="0.00" departDelay="0.23" arrival="128.00" arrivalLane="138002006#0_1" arrivalPos="28.48" arrivalSpeed="9.32" duration="70.00" routeLength="82.90" waitingTime="50.00" waitingCount="1" stopTime="0.00" timeLoss="64.43" rerouteNo="0" devices="tripinfo_flow_route_27_duration_20250327_1930.26" vType="car" speedFactor="1.06" vaporized=""/>
    <tripinfo id="flow_route_25_duration_20250327_1930.1" depart="30.00" departLane="1254771874#0_0" departPos="125.94" departSpeed="0.00" departDelay="0.00" arrival="132.00" arrivalLane="1341093415#0_0" arrivalPos="156.06" arrivalSpeed="16.21" duration="102.00" routeLength="307.90" waitingTime="60.00" waitingCount="1" stopTime="0.00" timeLoss="82.90" rerouteNo="0" devices="tripinfo_flow_route_25_duration_20250327_1930.1" vType="car" speedFactor="1.03" vaporized=""/>
    <tripinfo id="flow_route_27_duration_20250327_1930.11" depart="25.00" departLane="1254771874#0_0" departPos="54.29" departSpeed="0.00" departDelay="0.56" arrival="134.00" arrivalLane="138002006#0_1" arrivalPos="7.10" arrivalSpeed="8.56" duration="109.00" routeLength="224.71" waitingTime="66.00" waitingCount="2" stopTime="0.00" timeLoss="94.62" rerouteNo="0" devices="tripinfo_flow_route_27_duration_20250327_1930.11" vType="car" speedFactor="1.17" vaporized=""/>
    <tripinfo id="flow_route_26_duration_20250327_1930.3" depart="26.00" departLane="1254771874#0_0" departPos="99.63" departSpeed="0.00" departDelay="0.29" arrival="134.00" arrivalLane="-422986370#2_0" arrivalPos="126.78" arrivalSpeed="14.08" duration="108.00" routeLength="291.75" waitingTime="59.00" waitingCount="1" stopTime="0.00" timeLoss="89.08" rerouteNo="0" devices="tripinfo_flow_route_26_duration_20250327_1930.3" vType="car" speedFactor="1.02" vaporized=""/>
    <tripinfo id="flow_route_27_duration_20250327_1930.15" depart="34.00" departLane="1254771874#0_0" departPos="169.17" departSpeed="0.00" departDelay="0.67" arrival="134.00" arrivalLane="138002006#0_1" arrivalPos="30.44" arrivalSpeed="10.75" duration="100.00" routeLength="133.15" waitingTime="68.00" waitingCount="2" stopTime="0.00" timeLoss="90.84" rerouteNo="0" devices="tripinfo_flow_route_27_duration_20250327_1930.15" vType="car" speedFactor="1.04" vaporized=""/>
    <tripinfo id="flow_route_26_duration_20250327_1930.2" depart="18.00" departLane="1254771874#0_0" departPos="46.87" departSpeed="0.00" departDelay="0.86" arrival="138.00" arrivalLane="-422986370#2_0" arrivalPos="147.55" arrivalSpeed="13.69" duration="120.00" routeLength="365.28" waitingTime="59.00" waitingCount="1" stopTime="0.00" timeLoss="94.37" rerouteNo="0" devices="tripinfo_flow_route_26_duration_20250327_1930.2" vType="car" speedFactor="0.83" vaporized=""/>
    <tripinfo id="flow_route_27_duration_20250327_1930.10" depart="23.00" departLane="1254771874#0_0" departPos="21.99" departSpeed="0.00" departDelay="0.78" arrival="138.00" arrivalLane="138002006#0_1" arrivalPos="27.86" arrivalSpeed="10.05" duration="115.00" routeLength="277.76" waitingTime="65.00" waitingCount="2" stopTime="0.00" timeLoss="97.72" rerouteNo="0" devices="tripinfo_flow_route_27_duration_20250327_1930.10" vType="car" speedFactor="1.18" vaporized=""/>
    <tripinfo id="flow_route_26_duration_20250327_1930.4" depart="35.00" departLane="1254771874#0_0" departPos="182.06" departSpeed="0.00" departDelay="0.72" arrival="139.00" arrivalLane="-422986370#2_0" arrivalPos="233.95" arrivalSpeed="16.59" duration="104.00" routeLength="316.49" waitingTime="60.00" waitingCount="1" stopTime="0.00" timeLoss="83.50" rerouteNo="0" devices="tripinfo_flow_route_26_duration_20250327_1930.4" vType="car" speedFactor="1.09" vaporized=""/>
    <tripinfo id="flow_route_27_duration_20250327_1930.16" depart="36.00" departLane="1254771874#0_0" departPos="94.99" departSpeed="0.00" departDelay="0.45" arrival="139.00" arrivalLane="138002006#0_1" arrivalPos="11.03" arrivalSpeed="9.78" duration="103.00" routeLength="187.93" waitingTime="60.00" waitingCount="1" stopTime="0.00" timeLoss="90.36" rerouteNo="0" devices="tripinfo_flow_route_27_duration_20250327_1930.16" vType="car" speedFactor="1.00" vaporized=""/>
    <tripinfo id="flow_route_27_duration_20250327_1930.21" depart="47.00" departLane="1254771874#0_0" departPos="168.36" departSpeed="0.00" departDelay="0.34" arrival="143.00" arrivalLane="138002006#0_1" arrivalPos="41.75" arrivalSpeed="12.95" duration="96.00" routeLength="145.28" waitingTime="60.00" waitingCount="1" stopTime="0.00" timeLoss="86.53" rerouteNo="0" devices="tripinfo_flow_route_27_duration_20250327_1930.21" vType="car" speedFactor="1.08" vaporized=""/>
    <tripinfo id="flow_route_26_duration_20250327_1930.6" depart="52.00" departLane="1254771874#0_0" departPos="114.14" departSpeed="0.00" departDelay="0.57" arrival="146.00" arrivalLane="-422986370#2_0" arrivalPos="234.86" arrivalSpeed="14.69" duration="94.00" routeLength="385.32" waitingTime="43.00" waitingCount="1" stopTime="0.00" timeLoss="67.86" rerouteNo="0" devices="tripinfo_flow_route_26_duration_20250327_1930.6" vType="car" speedFactor="0.88" vaporized=""/>
    <tripinfo id="flow_route_27_duration_20250327_1930.19" depart="43.00" departLane="1254771874#0_0" departPos="140.40" departSpeed="0.00" departDelay="0.78" arrival="148.00" arrivalLane="138002006#0_1" arrivalPos="76.04" arrivalSpeed="14.16" duration="105.00" routeLength="207.53" waitingTime="60.00" waitingCount="2" stopTime="0.00" timeLoss="91.02" rerouteNo="0" devices="tripinfo_flow_route_27_duration_20250327_1930.19" vType="car" speedFactor="1.00" vaporized=""/>
    <tripinfo id="flow_route_27_duration_20250327_1930.18" depart="40.00" departLane="1254771874#0_0" departPos="97.00" departSpeed="0.00" departDelay="0.00" arrival="149.00" arrivalLane="138002006#0_1" arrivalPos="38.25" arrivalSpeed="12.26" duration="109.00" routeLength="213.14" waitingTime="58.00" waitingCount="1" stopTime="0.00" timeLoss="95.33" rerouteNo="0" devices="tripinfo_flow_route_27_duration_20250327_1930.18" vType="car" speedFactor="1.02" vaporized=""/>
    <tripinfo id="flow_route_27_duration_20250327_1930.13" depart="29.00" departLane="1254771874#0_0" departPos="26.77" departSpeed="0.00" departDelay="0.11" arrival="150.00" arrivalLane="138002006#0_1" arrivalPos="86.71" arrivalSpeed="15.13" duration="121.00" routeLength="331.83" waitingTime="59.00" waitingCount="1" stopTime="0.00" timeLoss="99.91" rerouteNo="0" devices="tripinfo_flow_route_27_duration_20250327_1930.13" vType="car" speedFactor="1.10" vaporized=""/>
    <tripinfo id="flow_route_27_duration_20250327_1930.22" depart="50.00" departLane="1254771874#0_0" departPos="124.60" departSpeed="0.00" departDelay="1.12" arrival="152.00" arrivalLane="138002006#0_1" arrivalPos="36.56" arrivalSpeed="11.61" duration="102.00" routeLength="183.85" waitingTime="57.00" waitingCount="1" stopTime="0.00" timeLoss="89.43" rerouteNo="0" devices="tripinfo_flow_route_27_duration_20250327_1930.22" vType="car" speedFactor="0.99" vaporized=""/>
    <tripinfo id="flow_route_41_duration_20250327_1930.11" depart="52.00" departLane="1369578054_0" departPos="62.18" departSpeed="0.00" departDelay="8.00" arrival="158.00" arrivalLane="138002006#0_1" arrivalPos="1.30" arrivalSpeed="7.19" duration="106.00" routeLength="261.05" waitingTime="65.00" waitingCount="1" stopTime="0.00" timeLoss="89.96" rerouteNo="0" devices="tripinfo_flow_route_41_duration_20250327_1930.11" vType="car" speedFactor="1.14" vaporized=""/>
    <tripinfo id="flow_route_41_duration_20250327_1930.10" depart="49.00" departLane="1369578054_0" departPos="34.26" departSpeed="0.00" departDelay="9.00" arrival="161.00" arrivalLane="138002006#0_1" arrivalPos="52.29" arrivalSpeed="10.60" duration="112.00" routeLength="339.96" waitingTime="70.00" waitingCount="1" stopTime="0.00" timeLoss="91.49" rerouteNo="0" devices="tripinfo_flow_route_41_duration_20250327_1930.10" vType="car" speedFactor="1.10" vaporized=""/>
    <tripinfo id="flow_route_41_duration_20250327_1930.13" depart="64.00" departLane="1369578054_0" departPos="170.37" departSpeed="0.00" departDelay="12.00" arrival="166.00" arrivalLane="138002006#0_0" arrivalPos="74.89" arrivalSpeed="13.04" duration="102.00" routeLength="226.45" waitingTime="66.00" waitingCount="1" stopTime="0.00" timeLoss="86.45" rerouteNo="0" devices="tripinfo_flow_route_41_duration_20250327_1930.13" vType="car" speedFactor="0.91" vaporized=""/>
    <tripinfo id="flow_route_40_duration_20250327_1930.14" depart="59.00" departLane="1369578054_0" departPos="139.58" departSpeed="0.00" departDelay="9.59" arrival="167.00" arrivalLane="1341093415#0_0" arrivalPos="70.13" arrivalSpeed="11.53" duration="108.00" routeLength="241.47" waitingTime="65.00" waitingCount="1" stopTime="0.00" timeLoss="91.97" rerouteNo="0" devices="tripinfo_flow_route_40_duration_20250327_1930.14" vType="car" speedFactor="0.94" vaporized=""/>