<?xml version="1.0" encoding="UTF-8"?>

<!-- generated on 2025-05-06 21:08:02 by Eclipse SUMO sumo Version 1.20.0
<configuration xmlns:xsi="http://www.w3.org/2001/XMLSchema-instance" xsi:noNamespaceSchemaLocation="http://sumo.dlr.de/xsd/sumoConfiguration.xsd">

    <input>
        <net-file value="osm.net.xml"/>
        <route-files value="xml/route_rl_cluster_4110471701_632031939_2.rou.xml"/>
    </input>

    <output>
        <tripinfo-output value="xml/tripinfo_rl_cluster_4110471701_632031939_2.xml"/>
    </output>

    <traci_server>
        <remote-port value="57693"/>
    </traci_server>

</configuration>
-->

<tripinfos xmlns:xsi="http://www.w3.org/2001/XMLSchema-instance" xsi:noNamespaceSchemaLocation="http://sumo.dlr.de/xsd/tripinfo_file.xsd">
    <tripinfo id="flow_route_83_duration_20250327_2100.0" depart="0.00" departLane="423956929_0" departPos="101.16" departSpeed="0.00" departDelay="0.00" arrival="17.00" arrivalLane="186407685_0" arrivalPos="8.05" arrivalSpeed="6.86" duration="17.00" routeLength="101.45" waitingTime="0.00" waitingCount="0" stopTime="0.00" timeLoss="10.18" rerouteNo="0" devices="tripinfo_flow_route_83_duration_20250327_2100.0" vType="car" speedFactor="1.01" vaporized=""/>
    <tripinfo id="flow_route_62_duration_20250327_2100.0" depart="0.00" departLane="409155823_0" departPos="65.43" departSpeed="0.00" departDelay="0.00" arrival="23.00" arrivalLane="1091883842_0" arrivalPos="165.47" arrivalSpeed="16.29" duration="23.00" routeLength="205.45" waitingTime="0.00" waitingCount="0" stopTime="0.00" timeLoss="10.50" rerouteNo="0" devices="tripinfo_flow_route_62_duration_20250327_2100.0" vType="car" speedFactor="1.06" vaporized=""/>
    <tripinfo id="flow_route_82_duration_20250327_2100.0" depart="0.00" departLane="423956929_0" departPos="45.92" departSpeed="0.00" departDelay="0.00" arrival="24.00" arrivalLane="186407684#0_0" arrivalPos="62.79" arrivalSpeed="15.18" duration="24.00" routeLength="219.95" waitingTime="0.00" waitingCount="0" stopTime="0.00" timeLoss="8.98" rerouteNo="0" devices="tripinfo_flow_route_82_duration_20250327_2100.0" vType="car" speedFactor="0.94" vaporized=""/>
    <tripinfo id="flow_route_62_duration_20250327_2100.2" depart="15.00" departLane="409155823_0" departPos="72.56" departSpeed="0.00" departDelay="0.00" arrival="31.00" arrivalLane="1091883842_0" arrivalPos="57.02" arrivalSpeed="11.63" duration="16.00" routeLength="89.87" waitingTime="0.00" waitingCount="0" stopTime="0.00" timeLoss="10.34" rerouteNo="0" devices="tripinfo_flow_route_62_duration_20250327_2100.2" vType="car" speedFactor="1.03" vaporized=""/>
    <tripinfo id="flow_route_62_duration_20250327_2100.1" depart="8.00" departLane="409155823_0" departPos="5.30" departSpeed="0.00" departDelay="0.50" arrival="33.00" arrivalLane="1091883842_1" arrivalPos="105.16" arrivalSpeed="14.70" duration="25.00" routeLength="205.27" waitingTime="0.00" waitingCount="0" stopTime="0.00" timeLoss="10.80" rerouteNo="0" devices="tripinfo_flow_route_62_duration_20250327_2100.1" vType="car" speedFactor="0.89" vaporized=""/>
    <tripinfo id="flow_route_62_duration_20250327_2100.3" depart="23.00" departLane="409155823_0" departPos="60.31" departSpeed="0.00" departDelay="0.50" arrival="34.00" arrivalLane="1091883842_0" arrivalPos="5.54" arrivalSpeed="8.63" duration="11.00" routeLength="50.64" waitingTime="0.00" waitingCount="0" stopTime="0.00" timeLoss="7.77" rerouteNo="0" devices="tripinfo_flow_route_62_duration_20250327_2100.3" vType="car" speedFactor="0.94" vaporized=""/>
    <tripinfo id="flow_route_88_duration_20250327_2100.0" depart="0.00" departLane="430416184_0" departPos="194.63" departSpeed="0.00" departDelay="0.00" arrival="50.00" arrivalLane="186407684#0_1" arrivalPos="3.84" arrivalSpeed="8.71" duration="50.00" routeLength="126.85" waitingTime="16.00" waitingCount="1" stopTime="0.00" timeLoss="40.58" rerouteNo="0" devices="tripinfo_flow_route_88_duration_20250327_2100.0" vType="car" speedFactor="0.83" vaporized=""/>
    <tripinfo id="flow_route_88_duration_20250327_2100.2" depart="8.00" departLane="430416184_0" departPos="253.21" departSpeed="0.00" departDelay="0.00" arrival="50.00" arrivalLane="186407684#0_1" arrivalPos="23.31" arrivalSpeed="9.64" duration="42.00" routeLength="87.73" waitingTime="18.00" waitingCount="2" stopTime="0.00" timeLoss="35.07" rerouteNo="0" devices="tripinfo_flow_route_88_duration_20250327_2100.2" vType="car" speedFactor="0.94" vaporized=""/>
    <tripinfo id="flow_route_86_duration_20250327_2100.0" depart="0.00" departLane="430416184_0" departPos="215.48" departSpeed="0.00" departDelay="0.00" arrival="54.00" arrivalLane="186407685_1" arrivalPos="87.02" arrivalSpeed="13.94" duration="54.00" routeLength="195.42" waitingTime="20.00" waitingCount="1" stopTime="0.00" timeLoss="41.68" rerouteNo="0" devices="tripinfo_flow_route_86_duration_20250327_2100.0" vType="car" speedFactor="1.08" vaporized=""/>
    <tripinfo id="flow_route_88_duration_20250327_2100.5" depart="20.00" departLane="430416184_0" departPos="276.64" departSpeed="0.00" departDelay="0.00" arrival="55.00" arrivalLane="186407684#0_1" arrivalPos="14.02" arrivalSpeed="9.11" duration="35.00" routeLength="55.02" waitingTime="21.00" waitingCount="2" stopTime="0.00" timeLoss="30.04" rerouteNo="0" devices="tripinfo_flow_route_88_duration_20250327_2100.5" vType="car" speedFactor="0.88" vaporized=""/>
    <tripinfo id="flow_route_88_duration_20250327_2100.3" depart="12.00" departLane="430416184_0" departPos="148.34" departSpeed="0.00" departDelay="0.00" arrival="59.00" arrivalLane="186407684#0_1" arrivalPos="4.07" arrivalSpeed="8.98" duration="47.00" routeLength="173.36" waitingTime="11.00" waitingCount="2" stopTime="0.00" timeLoss="35.77" rerouteNo="0" devices="tripinfo_flow_route_88_duration_20250327_2100.3" vType="car" speedFactor="1.09" vaporized=""/>
    <tripinfo id="flow_route_88_duration_20250327_2100.1" depart="4.00" departLane="430416184_0" departPos="130.75" departSpeed="0.00" departDelay="0.00" arrival="60.00" arrivalLane="186407684#0_1" arrivalPos="41.08" arrivalSpeed="11.07" duration="56.00" routeLength="227.97" waitingTime="15.00" waitingCount="2" stopTime="0.00" timeLoss="41.30" rerouteNo="0" devices="tripinfo_flow_route_88_duration_20250327_2100.1" vType="car" speedFactor="1.05" vaporized=""/>
    <tripinfo id="flow_route_87_duration_20250327_2100.1" depart="9.00" departLane="430416184_0" departPos="197.69" departSpeed="0.00" departDelay="0.43" arrival="60.00" arrivalLane="1091883842_0" arrivalPos="59.79" arrivalSpeed="11.12" duration="51.00" routeLength="162.55" waitingTime="17.00" waitingCount="2" stopTime="0.00" timeLoss="39.04" rerouteNo="0" devices="tripinfo_flow_route_87_duration_20250327_2100.1" vType="car" speedFactor="0.86" vaporized=""/>
    <tripinfo id="flow_route_87_duration_20250327_2100.2" depart="18.00" departLane="430416184_0" departPos="221.09" departSpeed="0.00" departDelay="0.86" arrival="62.00" arrivalLane="1091883842_0" arrivalPos="56.04" arrivalSpeed="11.00" duration="44.00" routeLength="135.40" waitingTime="11.00" waitingCount="1" stopTime="0.00" timeLoss="34.31" rerouteNo="0" devices="tripinfo_flow_route_87_duration_20250327_2100.2" vType="car" speedFactor="0.93" vaporized=""/>
    <tripinfo id="flow_route_88_duration_20250327_2100.7" depart="29.00" departLane="430416184_0" departPos="234.74" departSpeed="0.00" departDelay="1.00" arrival="63.00" arrivalLane="186407684#0_1" arrivalPos="19.66" arrivalSpeed="10.69" duration="34.00" routeLength="102.56" waitingTime="5.00" waitingCount="1" stopTime="0.00" timeLoss="26.65" rerouteNo="0" devices="tripinfo_flow_route_88_duration_20250327_2100.7" vType="car" speedFactor="1.02" vaporized=""/>
    <tripinfo id="flow_route_87_duration_20250327_2100.5" depart="45.00" departLane="430416184_0" departPos="208.76" departSpeed="0.00" departDelay="2.15" arrival="68.00" arrivalLane="1091883842_0" arrivalPos="58.29" arrivalSpeed="10.61" duration="23.00" routeLength="149.98" waitingTime="0.00" waitingCount="0" stopTime="0.00" timeLoss="12.54" rerouteNo="0" devices="tripinfo_flow_route_87_duration_20250327_2100.5" vType="car" speedFactor="0.93" vaporized=""/>
    <tripinfo id="flow_route_87_duration_20250327_2100.0" depart="0.00" departLane="430416184_0" departPos="1.75" departSpeed="0.00" departDelay="0.00" arrival="69.00" arrivalLane="1091883842_0" arrivalPos="109.56" arrivalSpeed="14.11" duration="69.00" routeLength="408.27" waitingTime="4.00" waitingCount="1" stopTime="0.00" timeLoss="43.40" rerouteNo="0" devices="tripinfo_flow_route_87_duration_20250327_2100.0" vType="car" speedFactor="1.03" vaporized=""/>
    <tripinfo id="flow_route_88_duration_20250327_2100.8" depart="32.00" departLane="430416184_0" departPos="167.75" departSpeed="0.00" departDelay="0.00" arrival="69.00" arrivalLane="186407684#0_1" arrivalPos="43.41" arrivalSpeed="11.49" duration="37.00" routeLength="193.29" waitingTime="0.00" waitingCount="0" stopTime="0.00" timeLoss="23.34" rerouteNo="0" devices="tripinfo_flow_route_88_duration_20250327_2100.8" vType="car" speedFactor="0.83" vaporized=""/>
    <tripinfo id="flow_route_88_duration_20250327_2100.4" depart="16.00" departLane="430416184_0" departPos="9.37" departSpeed="0.00" departDelay="0.00" arrival="72.00" arrivalLane="186407684#0_1" arrivalPos="47.97" arrivalSpeed="13.15" duration="56.00" routeLength="356.23" waitingTime="0.00" waitingCount="0" stopTime="0.00" timeLoss="32.85" rerouteNo="0" devices="tripinfo_flow_route_88_duration_20250327_2100.4" vType="car" speedFactor="0.99" vaporized=""/>
    <tripinfo id="flow_route_87_duration_20250327_2100.3" depart="29.00" departLane="430416184_0" departPos="69.81" departSpeed="0.00" departDelay="3.29" arrival="72.00" arrivalLane="1091883842_0" arrivalPos="76.39" arrivalSpeed="12.50" duration="43.00" routeLength="307.03" waitingTime="0.00" waitingCount="0" stopTime="0.00" timeLoss="23.82" rerouteNo="0" devices="tripinfo_flow_route_87_duration_20250327_2100.3" vType="car" speedFactor="1.16" vaporized=""/>
    <tripinfo id="flow_route_88_duration_20250327_2100.11" depart="46.00" departLane="430416184_0" departPos="196.27" departSpeed="0.00" departDelay="2.00" arrival="75.00" arrivalLane="186407684#0_1" arrivalPos="49.98" arrivalSpeed="15.28" duration="29.00" routeLength="171.35" waitingTime="0.00" waitingCount="0" stopTime="0.00" timeLoss="17.22" rerouteNo="0" devices="tripinfo_flow_route_88_duration_20250327_2100.11" vType="car" speedFactor="1.18" vaporized=""/>
    <tripinfo id="flow_route_86_duration_20250327_2100.1" depart="15.00" departLane="430416184_0" departPos="114.69" departSpeed="0.00" departDelay="0.00" arrival="76.00" arrivalLane="186407685_1" arrivalPos="166.28" arrivalSpeed="16.10" duration="61.00" routeLength="375.47" waitingTime="6.00" waitingCount="2" stopTime="0.00" timeLoss="37.54" rerouteNo="0" devices="tripinfo_flow_route_86_duration_20250327_2100.1" vType="car" speedFactor="1.12" vaporized=""/>
    <tripinfo id="flow_route_88_duration_20250327_2100.6" depart="28.00" departLane="430416184_0" departPos="48.57" departSpeed="0.00" departDelay="4.00" arrival="76.00" arrivalLane="186407684#0_1" arrivalPos="29.20" arrivalSpeed="12.02" duration="48.00" routeLength="298.26" waitingTime="0.00" waitingCount="0" stopTime="0.00" timeLoss="28.30" rerouteNo="0" devices="tripinfo_flow_route_88_duration_20250327_2100.6" vType="car" speedFactor="0.94" vaporized=""/>
    <tripinfo id="flow_route_86_duration_20250327_2100.2" depart="31.00" departLane="430416184_0" departPos="89.01" departSpeed="0.00" departDelay="1.00" arrival="78.00" arrivalLane="186407685_1" arrivalPos="126.70" arrivalSpeed="16.32" duration="47.00" routeLength="361.58" waitingTime="0.00" waitingCount="0" stopTime="0.00" timeLoss="24.88" rerouteNo="0" devices="tripinfo_flow_route_86_duration_20250327_2100.2" vType="car" speedFactor="0.89" vaporized=""/>
    <tripinfo id="flow_route_62_duration_20250327_2100.4" depart="30.00" departLane="409155823_0" departPos="52.49" departSpeed="0.00" departDelay="0.00" arrival="84.00" arrivalLane="1091883842_0" arrivalPos="16.53" arrivalSpeed="7.75" duration="54.00" routeLength="69.46" waitingTime="34.00" waitingCount="1" stopTime="0.00" timeLoss="49.36" rerouteNo="0" devices="tripinfo_flow_route_62_duration_20250327_2100.4" vType="car" speedFactor="1.01" vaporized=""/>
    <tripinfo id="flow_route_83_duration_20250327_2100.3" depart="45.00" departLane="423956929_0" departPos="39.40" departSpeed="0.00" departDelay="0.00" arrival="86.00" arrivalLane="186407685_0" arrivalPos="8.29" arrivalSpeed="7.26" duration="41.00" routeLength="163.45" waitingTime="11.00" waitingCount="1" stopTime="0.00" timeLoss="29.93" rerouteNo="0" devices="tripinfo_flow_route_83_duration_20250327_2100.3" vType="car" speedFactor="1.01" vaporized=""/>
    <tripinfo id="flow_route_62_duration_20250327_2100.5" depart="38.00" departLane="409155823_0" departPos="48.13" departSpeed="0.00" departDelay="0.50" arrival="87.00" arrivalLane="1091883842_0" arrivalPos="51.78" arrivalSpeed="10.13" duration="49.00" routeLength="109.06" waitingTime="25.00" waitingCount="1" stopTime="0.00" timeLoss="42.01" rerouteNo="0" devices="tripinfo_flow_route_62_duration_20250327_2100.5" vType="car" speedFactor="0.95" vaporized=""/>
    <tripinfo id="flow_route_62_duration_20250327_2100.6" depart="45.00" departLane="409155823_0" departPos="25.53" departSpeed="0.00" departDelay="0.00" arrival="88.00" arrivalLane="1091883842_0" arrivalPos="33.55" arrivalSpeed="9.56" duration="43.00" routeLength="113.43" waitingTime="18.00" waitingCount="1" stopTime="0.00" timeLoss="35.77" rerouteNo="0" devices="tripinfo_flow_route_62_duration_20250327_2100.6" vType="car" speedFactor="1.15" vaporized=""/>
    <tripinfo id="flow_route_62_duration_20250327_2100.7" depart="53.00" departLane="409155823_0" departPos="2.10" departSpeed="0.00" departDelay="0.50" arrival="89.00" arrivalLane="1091883842_2" arrivalPos="67.82" arrivalSpeed="11.84" duration="36.00" routeLength="171.13" waitingTime="4.00" waitingCount="1" stopTime="0.00" timeLoss="25.48" rerouteNo="0" devices="tripinfo_flow_route_62_duration_20250327_2100.7" vType="car" speedFactor="1.18" vaporized=""/>
    <tripinfo id="flow_route_83_duration_20250327_2100.2" depart="31.00" departLane="423956929_0" departPos="178.10" departSpeed="0.00" departDelay="1.00" arrival="92.00" arrivalLane="186407685_0" arrivalPos="118.31" arrivalSpeed="14.01" duration="61.00" routeLength="134.77" waitingTime="39.00" waitingCount="1" stopTime="0.00" timeLoss="51.96" rerouteNo="0" devices="tripinfo_flow_route_83_duration_20250327_2100.2" vType="car" speedFactor="0.97" vaporized=""/>
    <tripinfo id="flow_route_87_duration_20250327_2100.4" depart="37.00" departLane="430416184_0" departPos="43.91" departSpeed="0.00" departDelay="2.72" arrival="93.00" arrivalLane="1091883842_0" arrivalPos="31.27" arrivalSpeed="9.17" duration="56.00" routeLength="287.82" waitingTime="4.00" waitingCount="1" stopTime="0.00" timeLoss="36.89" rerouteNo="0" devices="tripinfo_flow_route_87_duration_20250327_2100.4" vType="car" speedFactor="0.87" vaporized=""/>
    <tripinfo id="flow_route_83_duration_20250327_2100.1" depart="16.00" departLane="423956929_0" departPos="43.92" departSpeed="0.00" departDelay="1.00" arrival="94.00" arrivalLane="186407685_0" arrivalPos="112.17" arrivalSpeed="14.21" duration="78.00" routeLength="262.81" waitingTime="39.00" waitingCount="1" stopTime="0.00" timeLoss="60.85" rerouteNo="0" devices="tripinfo_flow_route_83_duration_20250327_2100.1" vType="car" speedFactor="1.05" vaporized=""/>
    <tripinfo id="flow_route_87_duration_20250327_2100.6" depart="54.00" departLane="430416184_0" departPos="87.55" departSpeed="0.00" departDelay="2.57" arrival="105.00" arrivalLane="1091883842_0" arrivalPos="153.31" arrivalSpeed="16.21" duration="51.00" routeLength="366.21" waitingTime="3.00" waitingCount="1" stopTime="0.00" timeLoss="27.88" rerouteNo="0" devices="tripinfo_flow_route_87_duration_20250327_2100.6" vType="car" speedFactor="1.02" vaporized=""/>
    <tripinfo id="flow_route_88_duration_20250327_2100.12" depart="49.00" departLane="430416184_0" departPos="148.30" departSpeed="0.00" departDelay="1.00" arrival="125.00" arrivalLane="186407684#0_1" arrivalPos="54.21" arrivalSpeed="11.14" duration="76.00" routeLength="223.54" waitingTime="38.00" waitingCount="1" stopTime="0.00" timeLoss="61.50" rerouteNo="0" devices="tripinfo_flow_route_88_duration_20250327_2100.12" vType="car" speedFactor="0.99" vaporized=""/>
    <tripinfo id="flow_route_86_duration_20250327_2100.3" depart="46.00" departLane="430416184_0" departPos="122.39" departSpeed="0.00" departDelay="1.00" arrival="127.00" arrivalLane="186407685_1" arrivalPos="14.17" arrivalSpeed="9.40" duration="81.00" routeLength="215.65" waitingTime="35.00" waitingCount="1" stopTime="0.00" timeLoss="67.83" rerouteNo="0" devices="tripinfo_flow_route_86_duration_20250327_2100.3" vType="car" speedFactor="1.17" vaporized=""/>
    <tripinfo id="flow_route_88_duration_20250327_2100.9" depart="37.00" departLane="430416184_0" departPos="8.05" departSpeed="0.00" departDelay="1.00" arrival="130.00" arrivalLane="186407684#0_1" arrivalPos="16.16" arrivalSpeed="10.09" duration="93.00" routeLength="325.74" waitingTime="32.00" waitingCount="1" stopTime="0.00" timeLoss="71.91" rerouteNo="0" devices="tripinfo_flow_route_88_duration_20250327_2100.9" vType="car" speedFactor="0.92" vaporized=""/>
    <tripinfo id="flow_route_88_duration_20250327_2100.14" depart="56.00" departLane="430416184_0" departPos="180.81" departSpeed="0.00" departDelay="0.00" arrival="131.00" arrivalLane="186407684#0_1" arrivalPos="77.16" arrivalSpeed="12.66" duration="75.00" routeLength="213.98" waitingTime="36.00" waitingCount="1" stopTime="0.00" timeLoss="60.71" rerouteNo="0" devices="tripinfo_flow_route_88_duration_20250327_2100.14" vType="car" speedFactor="1.10" vaporized=""/>
    <tripinfo id="flow_route_88_duration_20250327_2100.10" depart="43.00" departLane="430416184_0" departPos="98.04" departSpeed="0.00" departDelay="3.00" arrival="134.00" arrivalLane="186407684#0_1" arrivalPos="81.79" arrivalSpeed="13.79" duration="91.00" routeLength="301.38" waitingTime="34.00" waitingCount="1" stopTime="0.00" timeLoss="71.76" rerouteNo="0" devices="tripinfo_flow_route_88_duration_20250327_2100.10" vType="car" speedFactor="1.13" vaporized=""/>
    <tripinfo id="flow_route_88_duration_20250327_2100.13" depart="54.00" departLane="430416184_0" departPos="30.28" departSpeed="0.00" departDelay="2.00" arrival="136.00" arrivalLane="186407684#0_1" arrivalPos="51.56" arrivalSpeed="12.97" duration="82.00" routeLength="338.90" waitingTime="33.00" waitingCount="1" stopTime="0.00" timeLoss="60.02" rerouteNo="0" devices="tripinfo_flow_route_88_duration_20250327_2100.13" vType="car" speedFactor="0.97" vaporized=""/>
</tripinfos>
