<?xml version="1.0" encoding="UTF-8"?>

<!-- generated on 2025-05-06 21:08:01 by Eclipse SUMO sumo Version 1.20.0
<configuration xmlns:xsi="http://www.w3.org/2001/XMLSchema-instance" xsi:noNamespaceSchemaLocation="http://sumo.dlr.de/xsd/sumoConfiguration.xsd">

    <input>
        <net-file value="osm.net.xml"/>
        <route-files value="xml/route_rl_cluster10852700972_12154751993_2.rou.xml"/>
    </input>

    <output>
        <tripinfo-output value="xml/tripinfo_rl_cluster10852700972_12154751993_2.xml"/>
    </output>

    <traci_server>
        <remote-port value="37785"/>
    </traci_server>

</configuration>
-->

<tripinfos xmlns:xsi="http://www.w3.org/2001/XMLSchema-instance" xsi:noNamespaceSchemaLocation="http://sumo.dlr.de/xsd/tripinfo_file.xsd">
    <tripinfo id="flow_route_60_duration_20250327_1930.0" depart="0.00" departLane="186407684#0_0" departPos="48.06" departSpeed="0.00" departDelay="0.00" arrival="24.00" arrivalLane="791826085_0" arrivalPos="160.28" arrivalSpeed="16.41" duration="24.00" routeLength="221.15" waitingTime="0.00" waitingCount="0" stopTime="0.00" timeLoss="10.61" rerouteNo="0" devices="tripinfo_flow_route_60_duration_20250327_1930.0" vType="car" speedFactor="1.08" vaporized=""/>
    <tripinfo id="flow_route_61_duration_20250327_1930.0" depart="0.00" departLane="186407684#0_0" departPos="65.67" departSpeed="0.00" departDelay="0.00" arrival="24.00" arrivalLane="1341093416#0_1" arrivalPos="161.76" arrivalSpeed="16.14" duration="24.00" routeLength="210.27" waitingTime="0.00" waitingCount="0" stopTime="0.00" timeLoss="10.05" rerouteNo="0" devices="tripinfo_flow_route_61_duration_20250327_1930.0" vType="car" speedFactor="1.03" vaporized=""/>
    <tripinfo id="flow_route_60_duration_20250327_1930.1" depart="6.00" departLane="186407684#0_0" departPos="41.08" departSpeed="0.00" departDelay="0.00" arrival="24.00" arrivalLane="791826085_0" arrivalPos="1.97" arrivalSpeed="6.48" duration="18.00" routeLength="69.82" waitingTime="0.00" waitingCount="0" stopTime="0.00" timeLoss="12.84" rerouteNo="0" devices="tripinfo_flow_route_60_duration_20250327_1930.1" vType="car" speedFactor="0.83" vaporized=""/>
    <tripinfo id="flow_route_61_duration_20250327_1930.2" depart="13.00" departLane="186407684#0_0" departPos="72.65" departSpeed="0.00" departDelay="1.00" arrival="30.00" arrivalLane="1341093416#0_1" arrivalPos="84.19" arrivalSpeed="13.52" duration="17.00" routeLength="125.73" waitingTime="0.00" waitingCount="0" stopTime="0.00" timeLoss="8.98" rerouteNo="0" devices="tripinfo_flow_route_61_duration_20250327_1930.2" vType="car" speedFactor="1.09" vaporized=""/>
    <tripinfo id="flow_route_61_duration_20250327_1930.3" depart="19.00" departLane="186407684#0_0" departPos="60.38" departSpeed="0.00" departDelay="1.00" arrival="35.00" arrivalLane="1341093416#0_1" arrivalPos="43.63" arrivalSpeed="11.60" duration="16.00" routeLength="97.43" waitingTime="0.00" waitingCount="0" stopTime="0.00" timeLoss="9.31" rerouteNo="0" devices="tripinfo_flow_route_61_duration_20250327_1930.3" vType="car" speedFactor="0.93" vaporized=""/>
    <tripinfo id="flow_route_60_duration_20250327_1930.2" depart="13.00" departLane="186407684#0_0" departPos="82.76" departSpeed="0.00" departDelay="1.00" arrival="36.00" arrivalLane="791826085_0" arrivalPos="167.29" arrivalSpeed="13.81" duration="23.00" routeLength="193.47" waitingTime="0.00" waitingCount="0" stopTime="0.00" timeLoss="8.86" rerouteNo="0" devices="tripinfo_flow_route_60_duration_20250327_1930.2" vType="car" speedFactor="0.86" vaporized=""/>
    <tripinfo id="flow_route_61_duration_20250327_1930.1" depart="9.00" departLane="186407684#0_0" departPos="4.07" departSpeed="0.00" departDelay="3.00" arrival="37.00" arrivalLane="1341093416#0_2" arrivalPos="184.53" arrivalSpeed="16.48" duration="28.00" routeLength="290.48" waitingTime="0.00" waitingCount="0" stopTime="0.00" timeLoss="9.72" rerouteNo="0" devices="tripinfo_flow_route_61_duration_20250327_1930.1" vType="car" speedFactor="1.05" vaporized=""/>
    <tripinfo id="flow_route_56_duration_20250327_1930.1" depart="8.00" departLane="1341093415#0_0" departPos="121.85" departSpeed="0.00" departDelay="0.50" arrival="47.00" arrivalLane="409155823_0" arrivalPos="5.30" arrivalSpeed="7.16" duration="39.00" routeLength="88.30" waitingTime="16.00" waitingCount="1" stopTime="0.00" timeLoss="32.23" rerouteNo="0" devices="tripinfo_flow_route_56_duration_20250327_1930.1" vType="car" speedFactor="0.94" vaporized=""/>
    <tripinfo id="flow_route_56_duration_20250327_1930.0" depart="0.00" departLane="1341093415#0_0" departPos="44.11" departSpeed="0.00" departDelay="0.00" arrival="49.00" arrivalLane="409155823_0" arrivalPos="4.00" arrivalSpeed="7.54" duration="49.00" routeLength="164.73" waitingTime="16.00" waitingCount="1" stopTime="0.00" timeLoss="37.89" rerouteNo="0" devices="tripinfo_flow_route_56_duration_20250327_1930.0" vType="car" speedFactor="1.01" vaporized=""/>
    <tripinfo id="flow_route_60_duration_20250327_1930.3" depart="19.00" departLane="186407684#0_0" departPos="2.63" departSpeed="0.00" departDelay="1.00" arrival="51.00" arrivalLane="791826085_0" arrivalPos="249.33" arrivalSpeed="16.11" duration="32.00" routeLength="355.63" waitingTime="0.00" waitingCount="0" stopTime="0.00" timeLoss="10.12" rerouteNo="0" devices="tripinfo_flow_route_60_duration_20250327_1930.3" vType="car" speedFactor="0.99" vaporized=""/>
    <tripinfo id="flow_route_56_duration_20250327_1930.3" depart="26.00" departLane="1341093415#0_0" departPos="144.68" departSpeed="0.00" departDelay="3.50" arrival="52.00" arrivalLane="409155823_0" arrivalPos="11.39" arrivalSpeed="8.70" duration="26.00" routeLength="71.55" waitingTime="6.00" waitingCount="1" stopTime="0.00" timeLoss="20.27" rerouteNo="0" devices="tripinfo_flow_route_56_duration_20250327_1930.3" vType="car" speedFactor="0.94" vaporized=""/>
    <tripinfo id="flow_route_55_duration_20250327_1930.1" depart="8.00" departLane="1341093415#0_0" departPos="57.39" departSpeed="0.00" departDelay="0.50" arrival="55.00" arrivalLane="791826085_0" arrivalPos="86.27" arrivalSpeed="13.20" duration="47.00" routeLength="218.59" waitingTime="11.00" waitingCount="1" stopTime="0.00" timeLoss="31.91" rerouteNo="0" devices="tripinfo_flow_route_55_duration_20250327_1930.1" vType="car" speedFactor="0.89" vaporized=""/>
    <tripinfo id="flow_route_56_duration_20250327_1930.2" depart="15.00" departLane="1341093415#0_0" departPos="53.79" departSpeed="0.00" departDelay="0.00" arrival="58.00" arrivalLane="409155823_0" arrivalPos="47.92" arrivalSpeed="11.99" duration="43.00" routeLength="198.97" waitingTime="5.00" waitingCount="1" stopTime="0.00" timeLoss="29.74" rerouteNo="0" devices="tripinfo_flow_route_56_duration_20250327_1930.2" vType="car" speedFactor="1.12" vaporized=""/>
    <tripinfo id="flow_route_55_duration_20250327_1930.2" depart="15.00" departLane="1341093415#0_0" departPos="5.78" departSpeed="0.00" departDelay="0.00" arrival="60.00" arrivalLane="791826085_0" arrivalPos="129.34" arrivalSpeed="14.67" duration="45.00" routeLength="313.27" waitingTime="2.00" waitingCount="1" stopTime="0.00" timeLoss="25.47" rerouteNo="0" devices="tripinfo_flow_route_55_duration_20250327_1930.2" vType="car" speedFactor="1.05" vaporized=""/>
    <tripinfo id="flow_route_56_duration_20250327_1930.4" depart="32.00" departLane="1341093415#0_0" departPos="114.37" departSpeed="0.00" departDelay="2.00" arrival="60.00" arrivalLane="409155823_0" arrivalPos="60.88" arrivalSpeed="12.49" duration="28.00" routeLength="151.36" waitingTime="0.00" waitingCount="0" stopTime="0.00" timeLoss="17.66" rerouteNo="0" devices="tripinfo_flow_route_56_duration_20250327_1930.4" vType="car" speedFactor="0.97" vaporized=""/>
    <tripinfo id="flow_route_55_duration_20250327_1930.0" depart="0.00" departLane="1341093415#0_0" departPos="132.48" departSpeed="0.00" departDelay="0.00" arrival="63.00" arrivalLane="791826085_0" arrivalPos="232.37" arrivalSpeed="15.37" duration="63.00" routeLength="289.60" waitingTime="25.00" waitingCount="1" stopTime="0.00" timeLoss="43.24" rerouteNo="0" devices="tripinfo_flow_route_55_duration_20250327_1930.0" vType="car" speedFactor="0.94" vaporized=""/>
    <tripinfo id="flow_route_55_duration_20250327_1930.3" depart="23.00" departLane="1341093415#0_0" departPos="22.35" departSpeed="0.00" departDelay="0.50" arrival="63.00" arrivalLane="791826085_0" arrivalPos="108.05" arrivalSpeed="14.17" duration="40.00" routeLength="275.41" waitingTime="0.00" waitingCount="0" stopTime="0.00" timeLoss="20.73" rerouteNo="0" devices="tripinfo_flow_route_55_duration_20250327_1930.3" vType="car" speedFactor="0.88" vaporized=""/>
    <tripinfo id="flow_route_54_duration_20250327_1930.2" depart="30.00" departLane="1341093415#0_0" departPos="54.86" departSpeed="0.00" departDelay="0.00" arrival="63.00" arrivalLane="1341093416#0_1" arrivalPos="196.20" arrivalSpeed="16.21" duration="33.00" routeLength="348.16" waitingTime="0.00" waitingCount="0" stopTime="0.00" timeLoss="11.64" rerouteNo="0" devices="tripinfo_flow_route_54_duration_20250327_1930.2" vType="car" speedFactor="1.02" vaporized=""/>
    <tripinfo id="flow_route_54_duration_20250327_1930.0" depart="0.00" departLane="1341093415#0_0" departPos="7.77" departSpeed="0.00" departDelay="0.00" arrival="65.00" arrivalLane="1341093416#0_0" arrivalPos="244.31" arrivalSpeed="16.10" duration="65.00" routeLength="443.35" waitingTime="13.00" waitingCount="1" stopTime="0.00" timeLoss="38.20" rerouteNo="0" devices="tripinfo_flow_route_54_duration_20250327_1930.0" vType="car" speedFactor="1.06" vaporized=""/>
    <tripinfo id="flow_route_54_duration_20250327_1930.1" depart="15.00" departLane="1341093415#0_0" departPos="42.19" departSpeed="0.00" departDelay="0.00" arrival="65.00" arrivalLane="1341093416#0_2" arrivalPos="243.38" arrivalSpeed="16.51" duration="50.00" routeLength="408.01" waitingTime="1.00" waitingCount="1" stopTime="0.00" timeLoss="25.38" rerouteNo="0" devices="tripinfo_flow_route_54_duration_20250327_1930.1" vType="car" speedFactor="1.03" vaporized=""/>
    <tripinfo id="flow_route_56_duration_20250327_1930.5" depart="40.00" departLane="1341093415#0_0" departPos="36.93" departSpeed="0.00" departDelay="2.50" arrival="65.00" arrivalLane="409155823_0" arrivalPos="27.63" arrivalSpeed="12.78" duration="25.00" routeLength="195.54" waitingTime="0.00" waitingCount="0" stopTime="0.00" timeLoss="12.05" rerouteNo="0" devices="tripinfo_flow_route_56_duration_20250327_1930.5" vType="car" speedFactor="1.13" vaporized=""/>
    <tripinfo id="flow_route_55_duration_20250327_1930.4" depart="30.00" departLane="1341093415#0_0" departPos="87.80" departSpeed="0.00" departDelay="0.00" arrival="66.00" arrivalLane="791826085_0" arrivalPos="194.45" arrivalSpeed="16.16" duration="36.00" routeLength="296.36" waitingTime="0.00" waitingCount="0" stopTime="0.00" timeLoss="17.31" rerouteNo="0" devices="tripinfo_flow_route_55_duration_20250327_1930.4" vType="car" speedFactor="1.01" vaporized=""/>
    <tripinfo id="flow_route_56_duration_20250327_1930.6" depart="47.00" departLane="1341093415#0_0" departPos="91.41" departSpeed="0.00" departDelay="2.00" arrival="68.00" arrivalLane="409155823_0" arrivalPos="18.69" arrivalSpeed="12.62" duration="21.00" routeLength="132.13" waitingTime="0.00" waitingCount="0" stopTime="0.00" timeLoss="12.26" rerouteNo="0" devices="tripinfo_flow_route_56_duration_20250327_1930.6" vType="car" speedFactor="1.17" vaporized=""/>
    <tripinfo id="flow_route_54_duration_20250327_1930.3" depart="46.00" departLane="1341093415#0_0" departPos="75.43" departSpeed="0.00" departDelay="1.00" arrival="71.00" arrivalLane="1341093416#0_1" arrivalPos="96.47" arrivalSpeed="16.58" duration="25.00" routeLength="227.86" waitingTime="0.00" waitingCount="0" stopTime="0.00" timeLoss="10.56" rerouteNo="0" devices="tripinfo_flow_route_54_duration_20250327_1930.3" vType="car" speedFactor="1.15" vaporized=""/>
    <tripinfo id="flow_route_55_duration_20250327_1930.6" depart="46.00" departLane="1341093415#0_0" departPos="109.64" departSpeed="0.00" departDelay="1.00" arrival="71.00" arrivalLane="791826085_0" arrivalPos="94.59" arrivalSpeed="14.38" duration="25.00" routeLength="174.66" waitingTime="0.00" waitingCount="0" stopTime="0.00" timeLoss="13.20" rerouteNo="0" devices="tripinfo_flow_route_55_duration_20250327_1930.6" vType="car" speedFactor="1.01" vaporized=""/>
    <tripinfo id="flow_route_55_duration_20250327_1930.7" depart="54.00" departLane="1341093415#0_0" departPos="75.77" departSpeed="0.00" departDelay="1.50" arrival="76.00" arrivalLane="791826085_0" arrivalPos="34.15" arrivalSpeed="10.49" duration="22.00" routeLength="148.09" waitingTime="0.00" waitingCount="0" stopTime="0.00" timeLoss="12.18" rerouteNo="0" devices="tripinfo_flow_route_55_duration_20250327_1930.7" vType="car" speedFactor="0.97" vaporized=""/>
    <tripinfo id="flow_route_61_duration_20250327_1930.7" depart="42.00" departLane="186407684#0_0" departPos="63.62" departSpeed="0.00" departDelay="0.00" arrival="87.00" arrivalLane="1341093416#0_2" arrivalPos="12.84" arrivalSpeed="8.68" duration="45.00" routeLength="59.25" waitingTime="25.00" waitingCount="1" stopTime="0.00" timeLoss="40.67" rerouteNo="0" devices="tripinfo_flow_route_61_duration_20250327_1930.7" vType="car" speedFactor="1.18" vaporized=""/>
    <tripinfo id="flow_route_55_duration_20250327_1930.5" depart="39.00" departLane="1341093415#0_0" departPos="15.33" departSpeed="0.00" departDelay="1.50" arrival="90.00" arrivalLane="791826085_0" arrivalPos="323.61" arrivalSpeed="15.77" duration="51.00" routeLength="497.99" waitingTime="0.00" waitingCount="0" stopTime="0.00" timeLoss="18.86" rerouteNo="0" devices="tripinfo_flow_route_55_duration_20250327_1930.5" vType="car" speedFactor="0.95" vaporized=""/>
    <tripinfo id="flow_route_61_duration_20250327_1930.4" depart="26.00" departLane="186407684#0_0" departPos="58.88" departSpeed="0.00" departDelay="2.00" arrival="92.00" arrivalLane="1341093416#0_1" arrivalPos="72.41" arrivalSpeed="12.44" duration="66.00" routeLength="127.70" waitingTime="39.00" waitingCount="1" stopTime="0.00" timeLoss="57.42" rerouteNo="0" devices="tripinfo_flow_route_61_duration_20250327_1930.4" vType="car" speedFactor="1.16" vaporized=""/>
    <tripinfo id="flow_route_60_duration_20250327_1930.6" depart="36.00" departLane="186407684#0_0" departPos="81.79" departSpeed="0.00" departDelay="0.00" arrival="92.00" arrivalLane="791826085_0" arrivalPos="90.94" arrivalSpeed="13.10" duration="56.00" routeLength="118.07" waitingTime="34.00" waitingCount="1" stopTime="0.00" timeLoss="47.78" rerouteNo="0" devices="tripinfo_flow_route_60_duration_20250327_1930.6" vType="car" speedFactor="0.87" vaporized=""/>
    <tripinfo id="flow_route_60_duration_20250327_1930.7" depart="42.00" departLane="186407684#0_0" departPos="7.05" departSpeed="0.00" departDelay="0.00" arrival="93.00" arrivalLane="791826085_0" arrivalPos="58.92" arrivalSpeed="11.55" duration="51.00" routeLength="160.80" waitingTime="22.00" waitingCount="1" stopTime="0.00" timeLoss="40.53" rerouteNo="0" devices="tripinfo_flow_route_60_duration_20250327_1930.7" vType="car" speedFactor="0.93" vaporized=""/>
    <tripinfo id="flow_route_61_duration_20250327_1930.6" depart="37.00" departLane="186407684#0_0" departPos="15.77" departSpeed="0.00" departDelay="1.00" arrival="100.00" arrivalLane="1341093416#0_1" arrivalPos="149.92" arrivalSpeed="16.37" duration="63.00" routeLength="248.33" waitingTime="23.00" waitingCount="1" stopTime="0.00" timeLoss="47.02" rerouteNo="0" devices="tripinfo_flow_route_61_duration_20250327_1930.6" vType="car" speedFactor="0.92" vaporized=""/>
    <tripinfo id="flow_route_61_duration_20250327_1930.8" depart="51.00" departLane="186407684#0_0" departPos="26.68" departSpeed="0.00" departDelay="3.00" arrival="101.00" arrivalLane="1341093416#0_2" arrivalPos="160.41" arrivalSpeed="16.46" duration="50.00" routeLength="243.75" waitingTime="15.00" waitingCount="1" stopTime="0.00" timeLoss="33.94" rerouteNo="0" devices="tripinfo_flow_route_61_duration_20250327_1930.8" vType="car" speedFactor="1.02" vaporized=""/>
    <tripinfo id="flow_route_61_duration_20250327_1930.9" depart="58.00" departLane="186407684#0_0" departPos="61.65" departSpeed="0.00" departDelay="4.00" arrival="101.00" arrivalLane="1341093416#0_1" arrivalPos="135.09" arrivalSpeed="16.54" duration="43.00" routeLength="187.62" waitingTime="17.00" waitingCount="1" stopTime="0.00" timeLoss="30.61" rerouteNo="0" devices="tripinfo_flow_route_61_duration_20250327_1930.9" vType="car" speedFactor="0.90" vaporized=""/>
    <tripinfo id="flow_route_61_duration_20250327_1930.5" depart="32.00" departLane="186407684#0_0" departPos="2.45" departSpeed="0.00" departDelay="2.00" arrival="103.00" arrivalLane="1341093416#0_1" arrivalPos="263.21" arrivalSpeed="16.15" duration="71.00" routeLength="370.77" waitingTime="26.00" waitingCount="1" stopTime="0.00" timeLoss="46.35" rerouteNo="0" devices="tripinfo_flow_route_61_duration_20250327_1930.5" vType="car" speedFactor="0.83" vaporized=""/>
    <tripinfo id="flow_route_60_duration_20250327_1930.4" depart="26.00" departLane="186407684#0_0" departPos="7.85" departSpeed="0.00" departDelay="2.00" arrival="109.00" arrivalLane="791826085_0" arrivalPos="314.57" arrivalSpeed="15.54" duration="83.00" routeLength="415.65" waitingTime="33.00" waitingCount="1" stopTime="0.00" timeLoss="55.56" rerouteNo="0" devices="tripinfo_flow_route_60_duration_20250327_1930.4" vType="car" speedFactor="0.94" vaporized=""/>
    <tripinfo id="flow_route_60_duration_20250327_1930.5" depart="32.00" departLane="186407684#0_0" departPos="13.38" departSpeed="0.00" departDelay="2.00" arrival="109.00" arrivalLane="791826085_1" arrivalPos="304.95" arrivalSpeed="14.42" duration="77.00" routeLength="400.50" waitingTime="30.00" waitingCount="1" stopTime="0.00" timeLoss="49.82" rerouteNo="0" devices="tripinfo_flow_route_60_duration_20250327_1930.5" vType="car" speedFactor="0.89" vaporized=""/>
    <tripinfo id="flow_route_60_duration_20250327_1930.8" depart="51.00" departLane="186407684#0_0" departPos="2.10" departSpeed="0.00" departDelay="3.00" arrival="111.00" arrivalLane="791826085_1" arrivalPos="269.23" arrivalSpeed="16.37" duration="60.00" routeLength="376.06" waitingTime="15.00" waitingCount="1" stopTime="0.00" timeLoss="36.93" rerouteNo="0" devices="tripinfo_flow_route_60_duration_20250327_1930.8" vType="car" speedFactor="0.99" vaporized=""/>
    <tripinfo id="flow_route_60_duration_20250327_1930.9" depart="54.00" departLane="186407684#0_0" departPos="40.17" departSpeed="0.00" departDelay="0.00" arrival="111.00" arrivalLane="791826085_0" arrivalPos="301.64" arrivalSpeed="16.51" duration="57.00" routeLength="370.40" waitingTime="15.00" waitingCount="1" stopTime="0.00" timeLoss="33.79" rerouteNo="0" devices="tripinfo_flow_route_60_duration_20250327_1930.9" vType="car" speedFactor="1.10" vaporized=""/>
    <tripinfo id="flow_route_56_duration_20250327_1930.7" depart="56.00" departLane="1341093415#0_0" departPos="52.82" departSpeed="0.00" departDelay="3.50" arrival="131.00" arrivalLane="409155823_0" arrivalPos="77.07" arrivalSpeed="12.09" duration="75.00" routeLength="229.10" waitingTime="38.00" waitingCount="1" stopTime="0.00" timeLoss="60.30" rerouteNo="0" devices="tripinfo_flow_route_56_duration_20250327_1930.7" vType="car" speedFactor="1.18" vaporized=""/>
</tripinfos>
