<?xml version="1.0" encoding="UTF-8"?>

<!-- generated on 2025-05-06 21:08:05 by Eclipse SUMO sumo Version 1.20.0
<configuration xmlns:xsi="http://www.w3.org/2001/XMLSchema-instance" xsi:noNamespaceSchemaLocation="http://sumo.dlr.de/xsd/sumoConfiguration.xsd">

    <input>
        <net-file value="osm.net.xml"/>
        <route-files value="xml/route_static_J7_2.rou.xml"/>
    </input>

    <output>
        <tripinfo-output value="xml/tripinfo_static_J7_2.xml"/>
    </output>

    <traci_server>
        <remote-port value="47005"/>
    </traci_server>

</configuration>
-->

<tripinfos xmlns:xsi="http://www.w3.org/2001/XMLSchema-instance" xsi:noNamespaceSchemaLocation="http://sumo.dlr.de/xsd/tripinfo_file.xsd">
    <tripinfo id="flow_route_127_duration_20250327_2210.1" depart="8.00" departLane="-138000461_0" departPos="198.45" departSpeed="0.00" departDelay="2.00" arrival="25.00" arrivalLane="189240000#0-AddedOnRampEdge_0" arrivalPos="48.43" arrivalSpeed="13.32" duration="17.00" routeLength="109.09" waitingTime="0.00" waitingCount="0" stopTime="0.00" timeLoss="9.24" rerouteNo="0" devices="tripinfo_flow_route_127_duration_20250327_2210.1" vType="car" speedFactor="1.09" vaporized=""/>
    <tripinfo id="flow_route_131_duration_20250327_2210.0" depart="0.00" departLane="714011134#0_0" departPos="6.35" departSpeed="0.00" departDelay="0.00" arrival="26.00" arrivalLane="134194079#0_1" arrivalPos="73.02" arrivalSpeed="14.32" duration="26.00" routeLength="232.63" waitingTime="0.00" waitingCount="0" stopTime="0.00" timeLoss="9.64" rerouteNo="0" devices="tripinfo_flow_route_131_duration_20250327_2210.0" vType="car" speedFactor="0.89" vaporized=""/>
    <tripinfo id="flow_route_127_duration_20250327_2210.0" depart="0.00" departLane="-138000461_0" departPos="55.90" departSpeed="0.00" departDelay="0.00" arrival="31.00" arrivalLane="189240000#0-AddedOnRampEdge_0" arrivalPos="70.17" arrivalSpeed="13.58" duration="31.00" routeLength="273.38" waitingTime="0.00" waitingCount="0" stopTime="0.00" timeLoss="13.13" rerouteNo="0" devices="tripinfo_flow_route_127_duration_20250327_2210.0" vType="car" speedFactor="1.05" vaporized=""/>
    <tripinfo id="flow_route_132_duration_20250327_2210.0" depart="0.00" departLane="714011134#0_0" departPos="92.28" departSpeed="0.00" departDelay="0.00" arrival="34.00" arrivalLane="189240000#0-AddedOnRampEdge_1" arrivalPos="51.48" arrivalSpeed="15.25" duration="34.00" routeLength="375.34" waitingTime="0.00" waitingCount="0" stopTime="0.00" timeLoss="9.95" rerouteNo="0" devices="tripinfo_flow_route_132_duration_20250327_2210.0" vType="car" speedFactor="0.94" vaporized=""/>
    <tripinfo id="flow_route_121_duration_20250327_2210.0" depart="1.00" departLane="799091563#0_0" departPos="259.58" departSpeed="0.00" departDelay="1.00" arrival="35.00" arrivalLane="134194079#0_0" arrivalPos="144.99" arrivalSpeed="15.52" duration="34.00" routeLength="274.57" waitingTime="0.00" waitingCount="0" stopTime="0.00" timeLoss="16.12" rerouteNo="0" devices="tripinfo_flow_route_121_duration_20250327_2210.0" vType="car" speedFactor="1.08" vaporized=""/>
    <tripinfo id="flow_route_127_duration_20250327_2210.3" depart="18.00" departLane="-138000461_0" departPos="161.56" departSpeed="0.00" departDelay="0.00" arrival="35.00" arrivalLane="189240000#0-AddedOnRampEdge_0" arrivalPos="3.06" arrivalSpeed="11.44" duration="17.00" routeLength="100.61" waitingTime="0.00" waitingCount="0" stopTime="0.00" timeLoss="10.17" rerouteNo="0" devices="tripinfo_flow_route_127_duration_20250327_2210.3" vType="car" speedFactor="1.12" vaporized=""/>
    <tripinfo id="flow_route_116_duration_20250327_2210.0" depart="0.00" departLane="177211987#1_0" departPos="0.88" departSpeed="0.00" departDelay="0.00" arrival="38.00" arrivalLane="688883939#0_0" arrivalPos="93.94" arrivalSpeed="16.39" duration="38.00" routeLength="448.08" waitingTime="0.00" waitingCount="0" stopTime="0.00" timeLoss="10.65" rerouteNo="0" devices="tripinfo_flow_route_116_duration_20250327_2210.0" vType="car" speedFactor="1.06" vaporized=""/>
    <tripinfo id="flow_route_127_duration_20250327_2210.2" depart="13.00" departLane="-138000461_0" departPos="50.03" departSpeed="0.00" departDelay="1.00" arrival="42.00" arrivalLane="189240000#0-AddedOnRampEdge_0" arrivalPos="37.44" arrivalSpeed="13.05" duration="29.00" routeLength="246.53" waitingTime="0.00" waitingCount="0" stopTime="0.00" timeLoss="13.13" rerouteNo="0" devices="tripinfo_flow_route_127_duration_20250327_2210.2" vType="car" speedFactor="1.05" vaporized=""/>
    <tripinfo id="flow_route_132_duration_20250327_2210.1" depart="9.00" departLane="714011134#0_0" departPos="93.55" departSpeed="0.00" departDelay="0.43" arrival="45.00" arrivalLane="189240000#0-AddedOnRampEdge_1" arrivalPos="77.82" arrivalSpeed="16.35" duration="36.00" routeLength="400.42" waitingTime="0.00" waitingCount="0" stopTime="0.00" timeLoss="11.13" rerouteNo="0" devices="tripinfo_flow_route_132_duration_20250327_2210.1" vType="car" speedFactor="1.03" vaporized=""/>
    <tripinfo id="flow_route_126_duration_20250327_2210.0" depart="0.00" departLane="-138000461_0" departPos="119.67" departSpeed="0.00" departDelay="0.00" arrival="52.00" arrivalLane="138000492#0_1" arrivalPos="18.35" arrivalSpeed="13.82" duration="52.00" routeLength="582.25" waitingTime="0.00" waitingCount="0" stopTime="0.00" timeLoss="9.75" rerouteNo="0" devices="tripinfo_flow_route_126_duration_20250327_2210.0" vType="car" speedFactor="0.83" vaporized=""/>
    <tripinfo id="flow_route_127_duration_20250327_2210.4" depart="24.00" departLane="-138000461_0" departPos="26.50" departSpeed="0.00" departDelay="0.00" arrival="52.00" arrivalLane="189240000#0-AddedOnRampEdge_0" arrivalPos="12.21" arrivalSpeed="9.74" duration="28.00" routeLength="244.83" waitingTime="0.00" waitingCount="0" stopTime="0.00" timeLoss="11.92" rerouteNo="0" devices="tripinfo_flow_route_127_duration_20250327_2210.4" vType="car" speedFactor="0.94" vaporized=""/>
    <tripinfo id="flow_route_127_duration_20250327_2210.5" depart="30.00" departLane="-138000461_0" departPos="151.22" departSpeed="0.00" departDelay="0.00" arrival="52.00" arrivalLane="189240000#0-AddedOnRampEdge_0" arrivalPos="53.97" arrivalSpeed="12.64" duration="22.00" routeLength="161.86" waitingTime="0.00" waitingCount="0" stopTime="0.00" timeLoss="11.47" rerouteNo="0" devices="tripinfo_flow_route_127_duration_20250327_2210.5" vType="car" speedFactor="0.97" vaporized=""/>
    <tripinfo id="flow_route_131_duration_20250327_2210.1" depart="30.00" departLane="714011134#0_0" departPos="62.84" departSpeed="0.00" departDelay="0.00" arrival="53.00" arrivalLane="134194079#0_1" arrivalPos="71.21" arrivalSpeed="14.76" duration="23.00" routeLength="174.34" waitingTime="0.00" waitingCount="0" stopTime="0.00" timeLoss="11.16" rerouteNo="0" devices="tripinfo_flow_route_131_duration_20250327_2210.1" vType="car" speedFactor="0.89" vaporized=""/>
    <tripinfo id="flow_route_133_duration_20250327_2210.1" depart="20.00" departLane="714011134#0_0" departPos="34.92" departSpeed="0.00" departDelay="0.00" arrival="57.00" arrivalLane="138000492#0_1" arrivalPos="12.55" arrivalSpeed="10.18" duration="37.00" routeLength="302.47" waitingTime="0.00" waitingCount="0" stopTime="0.00" timeLoss="14.98" rerouteNo="0" devices="tripinfo_flow_route_133_duration_20250327_2210.1" vType="car" speedFactor="0.88" vaporized=""/>
    <tripinfo id="flow_route_133_duration_20250327_2210.0" depart="0.00" departLane="714011134#0_0" departPos="33.93" departSpeed="0.00" departDelay="0.00" arrival="59.00" arrivalLane="138000492#0_0" arrivalPos="313.58" arrivalSpeed="13.96" duration="59.00" routeLength="604.48" waitingTime="0.00" waitingCount="0" stopTime="0.00" timeLoss="15.68" rerouteNo="0" devices="tripinfo_flow_route_133_duration_20250327_2210.0" vType="car" speedFactor="0.86" vaporized=""/>
    <tripinfo id="flow_route_132_duration_20250327_2210.2" depart="18.00" departLane="714011134#0_0" departPos="16.77" departSpeed="0.00" departDelay="0.86" arrival="59.00" arrivalLane="189240000#0-AddedOnRampEdge_2" arrivalPos="28.49" arrivalSpeed="16.17" duration="41.00" routeLength="427.86" waitingTime="0.00" waitingCount="0" stopTime="0.00" timeLoss="14.73" rerouteNo="0" devices="tripinfo_flow_route_132_duration_20250327_2210.2" vType="car" speedFactor="0.99" vaporized=""/>
    <tripinfo id="flow_route_132_duration_20250327_2210.3" depart="26.00" departLane="714011134#0_0" departPos="101.65" departSpeed="0.00" departDelay="0.29" arrival="59.00" arrivalLane="189240000#0-AddedOnRampEdge_1" arrivalPos="38.84" arrivalSpeed="15.44" duration="33.00" routeLength="353.32" waitingTime="0.00" waitingCount="0" stopTime="0.00" timeLoss="9.61" rerouteNo="0" devices="tripinfo_flow_route_132_duration_20250327_2210.3" vType="car" speedFactor="0.94" vaporized=""/>
    <tripinfo id="flow_route_117_duration_20250327_2210.0" depart="0.00" departLane="177211987#1_0" departPos="98.51" departSpeed="0.00" departDelay="0.00" arrival="63.00" arrivalLane="138000492#0_0" arrivalPos="299.85" arrivalSpeed="15.54" duration="63.00" routeLength="701.60" waitingTime="0.00" waitingCount="0" stopTime="0.00" timeLoss="16.89" rerouteNo="0" devices="tripinfo_flow_route_117_duration_20250327_2210.0" vType="car" speedFactor="0.94" vaporized=""/>
    <tripinfo id="flow_route_127_duration_20250327_2210.8" depart="49.00" departLane="-138000461_0" departPos="196.14" departSpeed="0.00" departDelay="1.00" arrival="64.00" arrivalLane="189240000#0-AddedOnRampEdge_0" arrivalPos="26.33" arrivalSpeed="11.66" duration="15.00" routeLength="89.30" waitingTime="0.00" waitingCount="0" stopTime="0.00" timeLoss="8.88" rerouteNo="0" devices="tripinfo_flow_route_127_duration_20250327_2210.8" vType="car" speedFactor="1.18" vaporized=""/>
    <tripinfo id="flow_route_127_duration_20250327_2210.7" depart="42.00" departLane="-138000461_0" departPos="135.60" departSpeed="0.00" departDelay="0.00" arrival="65.00" arrivalLane="189240000#0-AddedOnRampEdge_0" arrivalPos="17.31" arrivalSpeed="11.44" duration="23.00" routeLength="140.82" waitingTime="0.00" waitingCount="0" stopTime="0.00" timeLoss="13.76" rerouteNo="0" devices="tripinfo_flow_route_127_duration_20250327_2210.7" vType="car" speedFactor="1.13" vaporized=""/>
    <tripinfo id="flow_route_122_duration_20250327_2210.1" depart="30.00" departLane="799091563#0_0" departPos="253.70" departSpeed="0.00" departDelay="0.00" arrival="66.00" arrivalLane="688883939#0_2" arrivalPos="17.71" arrivalSpeed="11.27" duration="36.00" routeLength="202.65" waitingTime="2.00" waitingCount="1" stopTime="0.00" timeLoss="23.50" rerouteNo="0" devices="tripinfo_flow_route_122_duration_20250327_2210.1" vType="car" speedFactor="1.01" vaporized=""/>
    <tripinfo id="flow_route_122_duration_20250327_2210.0" depart="1.00" departLane="799091563#0_0" departPos="17.54" departSpeed="0.00" departDelay="1.00" arrival="68.00" arrivalLane="688883939#0_2" arrivalPos="62.20" arrivalSpeed="13.77" duration="67.00" routeLength="483.30" waitingTime="13.00" waitingCount="1" stopTime="0.00" timeLoss="37.41" rerouteNo="0" devices="tripinfo_flow_route_122_duration_20250327_2210.0" vType="car" speedFactor="1.03" vaporized=""/>
    <tripinfo id="flow_route_121_duration_20250327_2210.1" depart="30.00" departLane="799091563#0_0" departPos="33.80" departSpeed="0.00" departDelay="0.00" arrival="72.00" arrivalLane="134194079#0_0" arrivalPos="65.83" arrivalSpeed="11.38" duration="42.00" routeLength="421.18" waitingTime="0.00" waitingCount="0" stopTime="0.00" timeLoss="15.62" rerouteNo="0" devices="tripinfo_flow_route_121_duration_20250327_2210.1" vType="car" speedFactor="1.02" vaporized=""/>
    <tripinfo id="flow_route_132_duration_20250327_2210.4" depart="35.00" departLane="714011134#0_0" departPos="98.55" departSpeed="0.00" departDelay="0.72" arrival="73.00" arrivalLane="189240000#0-AddedOnRampEdge_1" arrivalPos="65.29" arrivalSpeed="13.65" duration="38.00" routeLength="382.89" waitingTime="0.00" waitingCount="0" stopTime="0.00" timeLoss="9.35" rerouteNo="0" devices="tripinfo_flow_route_132_duration_20250327_2210.4" vType="car" speedFactor="0.83" vaporized=""/>
    <tripinfo id="flow_route_127_duration_20250327_2210.6" depart="36.00" departLane="-138000461_0" departPos="65.04" departSpeed="0.00" departDelay="0.00" arrival="74.00" arrivalLane="189240000#0-AddedOnRampEdge_0" arrivalPos="90.63" arrivalSpeed="13.83" duration="38.00" routeLength="284.69" waitingTime="0.00" waitingCount="0" stopTime="0.00" timeLoss="17.59" rerouteNo="0" devices="tripinfo_flow_route_127_duration_20250327_2210.6" vType="car" speedFactor="0.87" vaporized=""/>
    <tripinfo id="flow_route_120_duration_20250327_2210.0" depart="0.00" departLane="799091563#0_0" departPos="177.01" departSpeed="0.00" departDelay="0.00" arrival="79.00" arrivalLane="138000492#0_1" arrivalPos="19.14" arrivalSpeed="10.78" duration="79.00" routeLength="440.29" waitingTime="25.00" waitingCount="1" stopTime="0.00" timeLoss="52.05" rerouteNo="0" devices="tripinfo_flow_route_120_duration_20250327_2210.0" vType="car" speedFactor="1.01" vaporized=""/>
    <tripinfo id="flow_route_133_duration_20250327_2210.2" depart="40.00" departLane="714011134#0_0" departPos="100.64" departSpeed="0.00" departDelay="0.00" arrival="87.00" arrivalLane="138000492#0_0" arrivalPos="244.12" arrivalSpeed="15.44" duration="47.00" routeLength="468.32" waitingTime="1.00" waitingCount="1" stopTime="0.00" timeLoss="16.29" rerouteNo="0" devices="tripinfo_flow_route_133_duration_20250327_2210.2" vType="car" speedFactor="0.95" vaporized=""/>
    <tripinfo id="flow_route_127_duration_20250327_2210.9" depart="54.00" departLane="-138000461_0" departPos="66.33" departSpeed="0.00" departDelay="0.00" arrival="87.00" arrivalLane="189240000#0-AddedOnRampEdge_0" arrivalPos="93.68" arrivalSpeed="15.17" duration="33.00" routeLength="286.46" waitingTime="0.00" waitingCount="0" stopTime="0.00" timeLoss="14.09" rerouteNo="0" devices="tripinfo_flow_route_127_duration_20250327_2210.9" vType="car" speedFactor="1.01" vaporized=""/>
    <tripinfo id="flow_route_120_duration_20250327_2210.1" depart="30.00" departLane="799091563#0_0" departPos="308.22" departSpeed="0.00" departDelay="0.00" arrival="90.00" arrivalLane="138000492#0_1" arrivalPos="111.13" arrivalSpeed="16.10" duration="60.00" routeLength="401.07" waitingTime="5.00" waitingCount="2" stopTime="0.00" timeLoss="35.61" rerouteNo="0" devices="tripinfo_flow_route_120_duration_20250327_2210.1" vType="car" speedFactor="1.16" vaporized=""/>
    <tripinfo id="flow_route_132_duration_20250327_2210.5" depart="43.00" departLane="714011134#0_0" departPos="2.93" departSpeed="0.00" departDelay="0.15" arrival="157.00" arrivalLane="189240000#0-AddedOnRampEdge_1" arrivalPos="14.33" arrivalSpeed="15.40" duration="114.00" routeLength="427.54" waitingTime="65.00" waitingCount="1" stopTime="0.00" timeLoss="86.05" rerouteNo="0" devices="tripinfo_flow_route_132_duration_20250327_2210.5" vType="car" speedFactor="0.93" vaporized=""/>
    <tripinfo id="flow_route_132_duration_20250327_2210.6" depart="52.00" departLane="714011134#0_0" departPos="18.86" departSpeed="0.00" departDelay="0.57" arrival="158.00" arrivalLane="189240000#0-AddedOnRampEdge_1" arrivalPos="6.32" arrivalSpeed="16.58" duration="106.00" routeLength="403.60" waitingTime="58.00" waitingCount="1" stopTime="0.00" timeLoss="81.43" rerouteNo="0" devices="tripinfo_flow_route_132_duration_20250327_2210.6" vType="car" speedFactor="1.15" vaporized=""/>
    <tripinfo id="flow_route_117_duration_20250327_2210.2" depart="40.00" departLane="177211987#1_0" departPos="24.65" departSpeed="0.00" departDelay="0.00" arrival="170.00" arrivalLane="138000492#0_2" arrivalPos="207.29" arrivalSpeed="14.83" duration="130.00" routeLength="682.91" waitingTime="57.00" waitingCount="1" stopTime="0.00" timeLoss="84.95" rerouteNo="0" devices="tripinfo_flow_route_117_duration_20250327_2210.2" vType="car" speedFactor="0.92" vaporized=""/>
    <tripinfo id="flow_route_117_duration_20250327_2210.1" depart="20.00" departLane="177211987#1_0" departPos="100.27" departSpeed="0.00" departDelay="0.00" arrival="181.00" arrivalLane="138000492#0_0" arrivalPos="402.57" arrivalSpeed="15.29" duration="161.00" routeLength="802.56" waitingTime="81.00" waitingCount="1" stopTime="0.00" timeLoss="108.15" rerouteNo="0" devices="tripinfo_flow_route_117_duration_20250327_2210.1" vType="car" speedFactor="0.93" vaporized=""/>
</tripinfos>
