<?xml version="1.0" encoding="UTF-8"?>

<!-- generated on 2025-05-06 21:07:55 by Eclipse SUMO sumo Version 1.20.0
<configuration xmlns:xsi="http://www.w3.org/2001/XMLSchema-instance" xsi:noNamespaceSchemaLocation="http://sumo.dlr.de/xsd/sumoConfiguration.xsd">

    <input>
        <net-file value="osm.net.xml"/>
        <route-files value="xml/route_static_cluster_11648745684_256036885_3839031483_1.rou.xml"/>
    </input>

    <output>
        <tripinfo-output value="xml/tripinfo_static_cluster_11648745684_256036885_3839031483_1.xml"/>
    </output>

    <traci_server>
        <remote-port value="43107"/>
    </traci_server>

</configuration>
-->

<tripinfos xmlns:xsi="http://www.w3.org/2001/XMLSchema-instance" xsi:noNamespaceSchemaLocation="http://sumo.dlr.de/xsd/tripinfo_file.xsd">
    <tripinfo id="flow_route_72_duration_20250327_2130.0" depart="0.00" departLane="1369578052#0_0" departPos="161.40" departSpeed="0.00" departDelay="0.00" arrival="15.00" arrivalLane="133342692#0_0" arrivalPos="42.43" arrivalSpeed="11.65" duration="15.00" routeLength="81.12" waitingTime="0.00" waitingCount="0" stopTime="0.00" timeLoss="8.08" rerouteNo="0" devices="tripinfo_flow_route_72_duration_20250327_2130.0" vType="car" speedFactor="0.89" vaporized=""/>
    <tripinfo id="flow_route_68_duration_20250327_2130.0" depart="0.00" departLane="1253209803#0_0" departPos="143.52" departSpeed="0.00" departDelay="0.00" arrival="29.00" arrivalLane="-138002002#2_1" arrivalPos="90.53" arrivalSpeed="16.38" duration="29.00" routeLength="298.33" waitingTime="0.00" waitingCount="0" stopTime="0.00" timeLoss="10.81" rerouteNo="0" devices="tripinfo_flow_route_68_duration_20250327_2130.0" vType="car" speedFactor="1.08" vaporized=""/>
    <tripinfo id="flow_route_72_duration_20250327_2130.1" depart="9.00" departLane="1369578052#0_0" departPos="176.33" departSpeed="0.00" departDelay="0.43" arrival="29.00" arrivalLane="133342692#0_0" arrivalPos="131.07" arrivalSpeed="15.41" duration="20.00" routeLength="154.83" waitingTime="0.00" waitingCount="0" stopTime="0.00" timeLoss="9.35" rerouteNo="0" devices="tripinfo_flow_route_72_duration_20250327_2130.1" vType="car" speedFactor="1.05" vaporized=""/>
    <tripinfo id="flow_route_70_duration_20250327_2130.0" depart="0.00" departLane="1253209803#0_0" departPos="83.97" departSpeed="0.00" departDelay="0.00" arrival="32.00" arrivalLane="133342692#0_2" arrivalPos="7.48" arrivalSpeed="9.70" duration="32.00" routeLength="271.18" waitingTime="0.00" waitingCount="0" stopTime="0.00" timeLoss="13.58" rerouteNo="0" devices="tripinfo_flow_route_70_duration_20250327_2130.0" vType="car" speedFactor="0.83" vaporized=""/>
    <tripinfo id="flow_route_69_duration_20250327_2130.0" depart="0.00" departLane="1253209803#0_0" departPos="179.76" departSpeed="0.00" departDelay="0.00" arrival="34.00" arrivalLane="380585337#0_0" arrivalPos="14.31" arrivalSpeed="16.34" duration="34.00" routeLength="299.43" waitingTime="0.00" waitingCount="0" stopTime="0.00" timeLoss="14.73" rerouteNo="0" devices="tripinfo_flow_route_69_duration_20250327_2130.0" vType="car" speedFactor="1.03" vaporized=""/>
    <tripinfo id="flow_route_65_duration_20250327_2130.0" depart="7.00" departLane="133131666#1_0" departPos="5.26" departSpeed="0.00" departDelay="7.00" arrival="40.00" arrivalLane="138002016#0_2" arrivalPos="14.48" arrivalSpeed="7.69" duration="33.00" routeLength="193.68" waitingTime="1.00" waitingCount="1" stopTime="0.00" timeLoss="20.74" rerouteNo="0" devices="tripinfo_flow_route_65_duration_20250327_2130.0" vType="car" speedFactor="1.01" vaporized=""/>
    <tripinfo id="flow_route_63_duration_20250327_2130.1" depart="19.00" departLane="133131666#1_0" departPos="21.31" departSpeed="0.00" departDelay="4.00" arrival="44.00" arrivalLane="133342692#0_1" arrivalPos="70.53" arrivalSpeed="16.26" duration="25.00" routeLength="232.93" waitingTime="0.00" waitingCount="0" stopTime="0.00" timeLoss="10.79" rerouteNo="0" devices="tripinfo_flow_route_63_duration_20250327_2130.1" vType="car" speedFactor="0.99" vaporized=""/>
    <tripinfo id="flow_route_64_duration_20250327_2130.1" depart="10.00" departLane="133131666#1_0" departPos="0.66" departSpeed="0.00" departDelay="4.00" arrival="49.00" arrivalLane="-138002002#2_0" arrivalPos="73.05" arrivalSpeed="11.86" duration="39.00" routeLength="237.94" waitingTime="1.00" waitingCount="1" stopTime="0.00" timeLoss="23.14" rerouteNo="0" devices="tripinfo_flow_route_64_duration_20250327_2130.1" vType="car" speedFactor="1.03" vaporized=""/>
    <tripinfo id="flow_route_63_duration_20250327_2130.0" depart="0.00" departLane="133131666#1_0" departPos="14.94" departSpeed="0.00" departDelay="0.00" arrival="52.00" arrivalLane="133342692#0_0" arrivalPos="152.76" arrivalSpeed="16.43" duration="52.00" routeLength="321.54" waitingTime="10.00" waitingCount="1" stopTime="0.00" timeLoss="31.69" rerouteNo="0" devices="tripinfo_flow_route_63_duration_20250327_2130.0" vType="car" speedFactor="1.06" vaporized=""/>
    <tripinfo id="flow_route_64_duration_20250327_2130.0" depart="2.00" departLane="133131666#1_0" departPos="6.82" departSpeed="0.00" departDelay="2.00" arrival="52.00" arrivalLane="-138002002#2_0" arrivalPos="131.25" arrivalSpeed="15.05" duration="50.00" routeLength="289.98" waitingTime="9.00" waitingCount="1" stopTime="0.00" timeLoss="29.67" rerouteNo="0" devices="tripinfo_flow_route_64_duration_20250327_2130.0" vType="car" speedFactor="0.94" vaporized=""/>
    <tripinfo id="flow_route_64_duration_20250327_2130.2" depart="15.00" departLane="133131666#1_0" departPos="3.73" departSpeed="0.00" departDelay="3.00" arrival="54.00" arrivalLane="-138002002#2_0" arrivalPos="126.20" arrivalSpeed="14.79" duration="39.00" routeLength="288.02" waitingTime="0.00" waitingCount="0" stopTime="0.00" timeLoss="20.52" rerouteNo="0" devices="tripinfo_flow_route_64_duration_20250327_2130.2" vType="car" speedFactor="1.12" vaporized=""/>
    <tripinfo id="flow_route_64_duration_20250327_2130.4" depart="28.00" departLane="133131666#1_0" departPos="1.04" departSpeed="0.00" departDelay="4.00" arrival="55.00" arrivalLane="-138002002#2_0" arrivalPos="32.97" arrivalSpeed="8.92" duration="27.00" routeLength="197.48" waitingTime="0.00" waitingCount="0" stopTime="0.00" timeLoss="12.74" rerouteNo="0" devices="tripinfo_flow_route_64_duration_20250327_2130.4" vType="car" speedFactor="0.89" vaporized=""/>
    <tripinfo id="flow_route_64_duration_20250327_2130.3" depart="22.00" departLane="133131666#1_0" departPos="1.49" departSpeed="0.00" departDelay="4.00" arrival="59.00" arrivalLane="-138002002#2_0" arrivalPos="131.81" arrivalSpeed="14.94" duration="37.00" routeLength="295.88" waitingTime="0.00" waitingCount="0" stopTime="0.00" timeLoss="16.16" rerouteNo="0" devices="tripinfo_flow_route_64_duration_20250327_2130.3" vType="car" speedFactor="0.94" vaporized=""/>
    <tripinfo id="flow_route_63_duration_20250327_2130.2" depart="34.00" departLane="133131666#1_0" departPos="9.26" departSpeed="0.00" departDelay="4.00" arrival="64.00" arrivalLane="133342692#0_0" arrivalPos="123.77" arrivalSpeed="14.14" duration="30.00" routeLength="298.22" waitingTime="0.00" waitingCount="0" stopTime="0.00" timeLoss="8.90" rerouteNo="0" devices="tripinfo_flow_route_63_duration_20250327_2130.2" vType="car" speedFactor="0.87" vaporized=""/>
    <tripinfo id="flow_route_65_duration_20250327_2130.1" depart="20.00" departLane="133131666#1_0" departPos="4.07" departSpeed="0.00" departDelay="5.00" arrival="65.00" arrivalLane="138002016#0_2" arrivalPos="307.06" arrivalSpeed="15.34" duration="45.00" routeLength="487.45" waitingTime="0.00" waitingCount="0" stopTime="0.00" timeLoss="12.59" rerouteNo="0" devices="tripinfo_flow_route_65_duration_20250327_2130.1" vType="car" speedFactor="0.93" vaporized=""/>
    <tripinfo id="flow_route_64_duration_20250327_2130.5" depart="35.00" departLane="133131666#1_0" departPos="0.53" departSpeed="0.00" departDelay="5.00" arrival="65.00" arrivalLane="-138002002#2_0" arrivalPos="64.81" arrivalSpeed="11.85" duration="30.00" routeLength="229.83" waitingTime="0.00" waitingCount="0" stopTime="0.00" timeLoss="13.73" rerouteNo="0" devices="tripinfo_flow_route_64_duration_20250327_2130.5" vType="car" speedFactor="0.92" vaporized=""/>
    <tripinfo id="flow_route_65_duration_20250327_2130.2" depart="41.00" departLane="133131666#1_0" departPos="7.61" departSpeed="0.00" departDelay="11.00" arrival="72.00" arrivalLane="138002016#0_2" arrivalPos="92.33" arrivalSpeed="15.43" duration="31.00" routeLength="269.18" waitingTime="0.00" waitingCount="0" stopTime="0.00" timeLoss="12.89" rerouteNo="0" devices="tripinfo_flow_route_65_duration_20250327_2130.2" vType="car" speedFactor="0.95" vaporized=""/>
    <tripinfo id="flow_route_75_duration_20250327_2130.0" depart="0.00" departLane="380593307#0_0" departPos="8.02" departSpeed="0.00" departDelay="0.00" arrival="75.00" arrivalLane="-138002002#2_1" arrivalPos="1.11" arrivalSpeed="6.95" duration="75.00" routeLength="196.85" waitingTime="43.00" waitingCount="1" stopTime="0.00" timeLoss="62.37" rerouteNo="0" devices="tripinfo_flow_route_75_duration_20250327_2130.0" vType="car" speedFactor="1.09" vaporized=""/>
    <tripinfo id="flow_route_64_duration_20250327_2130.6" depart="45.00" departLane="133131666#1_0" departPos="10.66" departSpeed="0.00" departDelay="9.00" arrival="79.00" arrivalLane="-138002002#2_0" arrivalPos="161.28" arrivalSpeed="16.41" duration="34.00" routeLength="316.18" waitingTime="0.00" waitingCount="0" stopTime="0.00" timeLoss="13.96" rerouteNo="0" devices="tripinfo_flow_route_64_duration_20250327_2130.6" vType="car" speedFactor="1.15" vaporized=""/>
    <tripinfo id="flow_route_75_duration_20250327_2130.1" depart="15.00" departLane="380593307#0_0" departPos="140.92" departSpeed="0.00" departDelay="0.00" arrival="82.00" arrivalLane="-138002002#2_1" arrivalPos="41.10" arrivalSpeed="11.07" duration="67.00" routeLength="103.94" waitingTime="44.00" waitingCount="1" stopTime="0.00" timeLoss="59.04" rerouteNo="0" devices="tripinfo_flow_route_75_duration_20250327_2130.1" vType="car" speedFactor="0.94" vaporized=""/>
    <tripinfo id="flow_route_74_duration_20250327_2130.1" depart="15.00" departLane="380593307#0_0" departPos="41.91" departSpeed="0.00" departDelay="0.00" arrival="86.00" arrivalLane="138002016#0_0" arrivalPos="84.07" arrivalSpeed="12.33" duration="71.00" routeLength="224.85" waitingTime="34.00" waitingCount="1" stopTime="0.00" timeLoss="54.27" rerouteNo="0" devices="tripinfo_flow_route_74_duration_20250327_2130.1" vType="car" speedFactor="0.88" vaporized=""/>
    <tripinfo id="flow_route_74_duration_20250327_2130.2" depart="30.00" departLane="380593307#0_0" departPos="106.79" departSpeed="0.00" departDelay="0.00" arrival="87.00" arrivalLane="138002016#0_0" arrivalPos="67.61" arrivalSpeed="11.23" duration="57.00" routeLength="143.51" waitingTime="29.00" waitingCount="1" stopTime="0.00" timeLoss="47.19" rerouteNo="0" devices="tripinfo_flow_route_74_duration_20250327_2130.2" vType="car" speedFactor="1.13" vaporized=""/>
    <tripinfo id="flow_route_73_duration_20250327_2130.0" depart="0.00" departLane="380593307#0_0" departPos="55.90" departSpeed="0.00" departDelay="0.00" arrival="88.00" arrivalLane="380585337#0_0" arrivalPos="13.23" arrivalSpeed="15.30" duration="88.00" routeLength="294.01" waitingTime="48.00" waitingCount="1" stopTime="0.00" timeLoss="68.23" rerouteNo="0" devices="tripinfo_flow_route_73_duration_20250327_2130.0" vType="car" speedFactor="0.94" vaporized=""/>
    <tripinfo id="flow_route_75_duration_20250327_2130.3" depart="46.00" departLane="380593307#0_0" departPos="26.66" departSpeed="0.00" departDelay="1.00" arrival="88.00" arrivalLane="-138002002#2_1" arrivalPos="68.45" arrivalSpeed="13.11" duration="42.00" routeLength="245.55" waitingTime="3.00" waitingCount="1" stopTime="0.00" timeLoss="26.53" rerouteNo="0" devices="tripinfo_flow_route_75_duration_20250327_2130.3" vType="car" speedFactor="1.03" vaporized=""/>
    <tripinfo id="flow_route_73_duration_20250327_2130.1" depart="21.00" departLane="380593307#0_0" departPos="161.13" departSpeed="0.00" departDelay="1.00" arrival="90.00" arrivalLane="380585337#0_0" arrivalPos="23.17" arrivalSpeed="16.19" duration="69.00" routeLength="198.72" waitingTime="41.00" waitingCount="1" stopTime="0.00" timeLoss="56.15" rerouteNo="0" devices="tripinfo_flow_route_73_duration_20250327_2130.1" vType="car" speedFactor="0.97" vaporized=""/>
    <tripinfo id="flow_route_75_duration_20250327_2130.2" depart="30.00" departLane="380593307#0_0" departPos="67.66" departSpeed="0.00" departDelay="0.00" arrival="90.00" arrivalLane="-138002002#2_1" arrivalPos="125.02" arrivalSpeed="15.51" duration="60.00" routeLength="261.11" waitingTime="22.00" waitingCount="1" stopTime="0.00" timeLoss="42.08" rerouteNo="0" devices="tripinfo_flow_route_75_duration_20250327_2130.2" vType="car" speedFactor="0.93" vaporized=""/>
    <tripinfo id="flow_route_73_duration_20250327_2130.2" depart="40.00" departLane="380593307#0_0" departPos="71.37" departSpeed="0.00" departDelay="0.00" arrival="90.00" arrivalLane="380585337#0_1" arrivalPos="21.20" arrivalSpeed="16.35" duration="50.00" routeLength="286.51" waitingTime="11.00" waitingCount="1" stopTime="0.00" timeLoss="32.14" rerouteNo="0" devices="tripinfo_flow_route_73_duration_20250327_2130.2" vType="car" speedFactor="0.99" vaporized=""/>
    <tripinfo id="flow_route_74_duration_20250327_2130.0" depart="0.00" departLane="380593307#0_0" departPos="118.68" departSpeed="0.00" departDelay="0.00" arrival="92.00" arrivalLane="138002016#0_0" arrivalPos="237.21" arrivalSpeed="14.06" duration="92.00" routeLength="301.22" waitingTime="53.00" waitingCount="1" stopTime="0.00" timeLoss="70.01" rerouteNo="0" devices="tripinfo_flow_route_74_duration_20250327_2130.0" vType="car" speedFactor="0.86" vaporized=""/>
    <tripinfo id="flow_route_74_duration_20250327_2130.3" depart="45.00" departLane="380593307#0_0" departPos="117.24" departSpeed="0.00" departDelay="0.00" arrival="105.00" arrivalLane="138002016#0_0" arrivalPos="280.78" arrivalSpeed="14.73" duration="60.00" routeLength="346.23" waitingTime="16.00" waitingCount="1" stopTime="0.00" timeLoss="35.59" rerouteNo="0" devices="tripinfo_flow_route_74_duration_20250327_2130.3" vType="car" speedFactor="0.90" vaporized=""/>
    <tripinfo id="flow_route_71_duration_20250327_2130.1" depart="20.00" departLane="1369578052#0_0" departPos="5.13" departSpeed="0.00" departDelay="0.00" arrival="111.00" arrivalLane="138002016#0_1" arrivalPos="53.61" arrivalSpeed="12.05" duration="91.00" routeLength="266.16" waitingTime="51.00" waitingCount="1" stopTime="0.00" timeLoss="74.30" rerouteNo="0" devices="tripinfo_flow_route_71_duration_20250327_2130.1" vType="car" speedFactor="1.01" vaporized=""/>
    <tripinfo id="flow_route_72_duration_20250327_2130.3" depart="28.00" departLane="1369578052#0_0" departPos="14.75" departSpeed="0.00" departDelay="2.29" arrival="114.00" arrivalLane="133342692#0_0" arrivalPos="58.12" arrivalSpeed="11.79" duration="86.00" routeLength="243.46" waitingTime="48.00" waitingCount="1" stopTime="0.00" timeLoss="67.03" rerouteNo="0" devices="tripinfo_flow_route_72_duration_20250327_2130.3" vType="car" speedFactor="0.83" vaporized=""/>
    <tripinfo id="flow_route_72_duration_20250327_2130.2" depart="19.00" departLane="1369578052#0_0" departPos="90.80" departSpeed="0.00" departDelay="1.86" arrival="115.00" arrivalLane="133342692#0_0" arrivalPos="102.22" arrivalSpeed="14.69" duration="96.00" routeLength="211.51" waitingTime="60.00" waitingCount="1" stopTime="0.00" timeLoss="81.71" rerouteNo="0" devices="tripinfo_flow_route_72_duration_20250327_2130.2" vType="car" speedFactor="1.16" vaporized=""/>
    <tripinfo id="flow_route_71_duration_20250327_2130.2" depart="40.00" departLane="1369578052#0_0" departPos="54.62" departSpeed="0.00" departDelay="0.00" arrival="119.00" arrivalLane="138002016#0_1" arrivalPos="145.10" arrivalSpeed="16.23" duration="79.00" routeLength="308.16" waitingTime="35.00" waitingCount="1" stopTime="0.00" timeLoss="60.38" rerouteNo="0" devices="tripinfo_flow_route_71_duration_20250327_2130.2" vType="car" speedFactor="1.17" vaporized=""/>
    <tripinfo id="flow_route_72_duration_20250327_2130.6" depart="53.00" departLane="1369578052#0_0" departPos="157.89" departSpeed="0.00" departDelay="1.57" arrival="120.00" arrivalLane="133342692#0_0" arrivalPos="116.73" arrivalSpeed="14.46" duration="67.00" routeLength="158.92" waitingTime="42.00" waitingCount="1" stopTime="0.00" timeLoss="56.39" rerouteNo="0" devices="tripinfo_flow_route_72_duration_20250327_2130.6" vType="car" speedFactor="1.09" vaporized=""/>
    <tripinfo id="flow_route_71_duration_20250327_2130.0" depart="0.00" departLane="1369578052#0_0" departPos="11.11" departSpeed="0.00" departDelay="0.00" arrival="123.00" arrivalLane="138002016#0_0" arrivalPos="236.62" arrivalSpeed="16.15" duration="123.00" routeLength="443.19" waitingTime="72.00" waitingCount="1" stopTime="0.00" timeLoss="95.66" rerouteNo="0" devices="tripinfo_flow_route_71_duration_20250327_2130.0" vType="car" speedFactor="1.05" vaporized=""/>
    <tripinfo id="flow_route_72_duration_20250327_2130.5" depart="44.00" departLane="1369578052#0_0" departPos="22.91" departSpeed="0.00" departDelay="1.15" arrival="123.00" arrivalLane="133342692#0_0" arrivalPos="113.47" arrivalSpeed="15.28" duration="79.00" routeLength="290.64" waitingTime="36.00" waitingCount="1" stopTime="0.00" timeLoss="60.25" rerouteNo="0" devices="tripinfo_flow_route_72_duration_20250327_2130.5" vType="car" speedFactor="0.97" vaporized=""/>
    <tripinfo id="flow_route_72_duration_20250327_2130.4" depart="35.00" departLane="1369578052#0_0" departPos="19.30" departSpeed="0.00" departDelay="0.72" arrival="125.00" arrivalLane="133342692#0_0" arrivalPos="167.48" arrivalSpeed="16.43" duration="90.00" routeLength="348.25" waitingTime="38.00" waitingCount="1" stopTime="0.00" timeLoss="68.26" rerouteNo="0" devices="tripinfo_flow_route_72_duration_20250327_2130.4" vType="car" speedFactor="1.18" vaporized=""/>
    <tripinfo id="flow_route_70_duration_20250327_2130.1" depart="20.00" departLane="1253209803#0_0" departPos="48.20" departSpeed="0.00" departDelay="0.00" arrival="126.00" arrivalLane="133342692#0_2" arrivalPos="99.45" arrivalSpeed="13.27" duration="106.00" routeLength="398.92" waitingTime="51.00" waitingCount="2" stopTime="0.00" timeLoss="80.94" rerouteNo="0" devices="tripinfo_flow_route_70_duration_20250327_2130.1" vType="car" speedFactor="1.02" vaporized=""/>
    <tripinfo id="flow_route_70_duration_20250327_2130.2" depart="40.00" departLane="1253209803#0_0" departPos="308.40" departSpeed="0.00" departDelay="0.00" arrival="126.00" arrivalLane="133342692#0_2" arrivalPos="121.86" arrivalSpeed="13.87" duration="86.00" routeLength="161.13" waitingTime="55.00" waitingCount="2" stopTime="0.00" timeLoss="75.33" rerouteNo="0" devices="tripinfo_flow_route_70_duration_20250327_2130.2" vType="car" speedFactor="1.01" vaporized=""/>
    <tripinfo id="flow_route_64_duration_20250327_2130.7" depart="45.00" departLane="133131666#1_0" departPos="0.95" departSpeed="0.00" departDelay="3.00" arrival="135.00" arrivalLane="-138002002#2_0" arrivalPos="18.70" arrivalSpeed="5.95" duration="90.00" routeLength="183.31" waitingTime="58.00" waitingCount="1" stopTime="0.00" timeLoss="78.15" rerouteNo="0" devices="tripinfo_flow_route_64_duration_20250327_2130.7" vType="car" speedFactor="1.02" vaporized=""/>
    <tripinfo id="flow_route_65_duration_20250327_2130.3" depart="57.00" departLane="133131666#1_0" departPos="0.32" departSpeed="0.00" departDelay="12.00" arrival="140.00" arrivalLane="138002016#0_2" arrivalPos="44.94" arrivalSpeed="11.37" duration="83.00" routeLength="229.07" waitingTime="46.00" waitingCount="1" stopTime="0.00" timeLoss="68.12" rerouteNo="0" devices="tripinfo_flow_route_65_duration_20250327_2130.3" vType="car" speedFactor="1.10" vaporized=""/>
    <tripinfo id="flow_route_64_duration_20250327_2130.8" depart="60.00" departLane="133131666#1_0" departPos="20.05" departSpeed="0.00" departDelay="12.00" arrival="143.00" arrivalLane="-138002002#2_0" arrivalPos="63.47" arrivalSpeed="10.94" duration="83.00" routeLength="208.97" waitingTime="47.00" waitingCount="1" stopTime="0.00" timeLoss="68.79" rerouteNo="0" devices="tripinfo_flow_route_64_duration_20250327_2130.8" vType="car" speedFactor="0.96" vaporized=""/>
    <tripinfo id="flow_route_63_duration_20250327_2130.3" depart="51.00" departLane="133131666#1_0" departPos="6.16" departSpeed="0.00" departDelay="6.00" arrival="146.00" arrivalLane="133342692#0_0" arrivalPos="122.29" arrivalSpeed="14.94" duration="95.00" routeLength="299.86" waitingTime="54.00" waitingCount="1" stopTime="0.00" timeLoss="76.53" rerouteNo="0" devices="tripinfo_flow_route_63_duration_20250327_2130.3" vType="car" speedFactor="1.18" vaporized=""/>
    <tripinfo id="flow_route_64_duration_20250327_2130.9" depart="61.00" departLane="133131666#1_0" departPos="7.68" departSpeed="0.00" departDelay="7.00" arrival="150.00" arrivalLane="-138002002#2_0" arrivalPos="118.10" arrivalSpeed="14.53" duration="89.00" routeLength="275.97" waitingTime="47.00" waitingCount="1" stopTime="0.00" timeLoss="70.80" rerouteNo="0" devices="tripinfo_flow_route_64_duration_20250327_2130.9" vType="car" speedFactor="1.04" vaporized=""/>
</tripinfos>
