<?xml version="1.0" encoding="UTF-8"?>

<!-- generated on 2025-05-06 21:08:43 by Eclipse SUMO sumo Version 1.20.0
<configuration xmlns:xsi="http://www.w3.org/2001/XMLSchema-instance" xsi:noNamespaceSchemaLocation="http://sumo.dlr.de/xsd/sumoConfiguration.xsd">

    <input>
        <net-file value="osm.net.xml"/>
        <route-files value="xml/route_rl_cluster_11648561419_11648561420_2271142975_4854142869_6.rou.xml"/>
    </input>

    <output>
        <tripinfo-output value="xml/tripinfo_rl_cluster_11648561419_11648561420_2271142975_4854142869_6.xml"/>
    </output>

    <traci_server>
        <remote-port value="59239"/>
    </traci_server>

</configuration>
-->

<tripinfos xmlns:xsi="http://www.w3.org/2001/XMLSchema-instance" xsi:noNamespaceSchemaLocation="http://sumo.dlr.de/xsd/tripinfo_file.xsd">
    <tripinfo id="flow_route_119_duration_20250327_2220.0" depart="0.00" departLane="134194079#0_0" departPos="151.34" departSpeed="0.00" departDelay="0.00" arrival="22.00" arrivalLane="1253188486#8_0" arrivalPos="1.48" arrivalSpeed="8.97" duration="22.00" routeLength="161.10" waitingTime="0.00" waitingCount="0" stopTime="0.00" timeLoss="11.81" rerouteNo="0" devices="tripinfo_flow_route_119_duration_20250327_2220.0" vType="car" speedFactor="1.09" vaporized=""/>
    <tripinfo id="flow_route_97_duration_20250327_2220.0" depart="0.00" departLane="1328664748#0_0" departPos="149.74" departSpeed="0.00" departDelay="0.00" arrival="27.00" arrivalLane="135474719#0_0" arrivalPos="137.46" arrivalSpeed="15.89" duration="27.00" routeLength="222.45" waitingTime="0.00" waitingCount="0" stopTime="0.00" timeLoss="12.48" rerouteNo="0" devices="tripinfo_flow_route_97_duration_20250327_2220.0" vType="car" speedFactor="1.06" vaporized=""/>
    <tripinfo id="flow_route_98_duration_20250327_2220.0" depart="0.00" departLane="1328664748#0_0" departPos="103.72" departSpeed="0.00" departDelay="0.00" arrival="27.00" arrivalLane="177211987#1_0" arrivalPos="104.29" arrivalSpeed="15.41" duration="27.00" routeLength="249.04" waitingTime="0.00" waitingCount="0" stopTime="0.00" timeLoss="10.81" rerouteNo="0" devices="tripinfo_flow_route_98_duration_20250327_2220.0" vType="car" speedFactor="0.94" vaporized=""/>
    <tripinfo id="flow_route_99_duration_20250327_2220.0" depart="1.00" departLane="1328664748#0_0" departPos="68.32" departSpeed="0.00" departDelay="1.00" arrival="27.00" arrivalLane="1253188486#8_2" arrivalPos="11.16" arrivalSpeed="9.93" duration="26.00" routeLength="200.71" waitingTime="0.00" waitingCount="0" stopTime="0.00" timeLoss="13.31" rerouteNo="0" devices="tripinfo_flow_route_99_duration_20250327_2220.0" vType="car" speedFactor="1.01" vaporized=""/>
    <tripinfo id="flow_route_119_duration_20250327_2220.1" depart="8.00" departLane="134194079#0_0" departPos="277.04" departSpeed="0.00" departDelay="0.50" arrival="31.00" arrivalLane="1253188486#8_0" arrivalPos="155.42" arrivalSpeed="16.31" duration="23.00" routeLength="189.33" waitingTime="0.00" waitingCount="0" stopTime="0.00" timeLoss="9.84" rerouteNo="0" devices="tripinfo_flow_route_119_duration_20250327_2220.1" vType="car" speedFactor="1.03" vaporized=""/>
    <tripinfo id="flow_route_119_duration_20250327_2220.2" depart="15.00" departLane="134194079#0_0" departPos="225.54" departSpeed="0.00" departDelay="0.00" arrival="32.00" arrivalLane="1253188486#8_0" arrivalPos="7.95" arrivalSpeed="8.33" duration="17.00" routeLength="93.36" waitingTime="0.00" waitingCount="0" stopTime="0.00" timeLoss="9.84" rerouteNo="0" devices="tripinfo_flow_route_119_duration_20250327_2220.2" vType="car" speedFactor="0.93" vaporized=""/>
    <tripinfo id="flow_route_118_duration_20250327_2220.1" depart="9.00" departLane="134194079#0_0" departPos="261.87" departSpeed="0.00" departDelay="0.43" arrival="33.00" arrivalLane="1328664744#0_0" arrivalPos="182.87" arrivalSpeed="16.59" duration="24.00" routeLength="242.16" waitingTime="0.00" waitingCount="0" stopTime="0.00" timeLoss="9.33" rerouteNo="0" devices="tripinfo_flow_route_118_duration_20250327_2220.1" vType="car" speedFactor="1.05" vaporized=""/>
    <tripinfo id="flow_route_97_duration_20250327_2220.2" depart="24.00" departLane="1328664748#0_0" departPos="214.60" departSpeed="0.00" departDelay="0.00" arrival="39.00" arrivalLane="135474719#0_0" arrivalPos="63.46" arrivalSpeed="11.86" duration="15.00" routeLength="83.58" waitingTime="0.00" waitingCount="0" stopTime="0.00" timeLoss="8.81" rerouteNo="0" devices="tripinfo_flow_route_97_duration_20250327_2220.2" vType="car" speedFactor="1.16" vaporized=""/>
    <tripinfo id="flow_route_97_duration_20250327_2220.1" depart="12.00" departLane="1328664748#0_0" departPos="121.10" departSpeed="0.00" departDelay="0.00" arrival="40.00" arrivalLane="135474719#0_0" arrivalPos="61.18" arrivalSpeed="11.11" duration="28.00" routeLength="174.80" waitingTime="0.00" waitingCount="0" stopTime="0.00" timeLoss="16.64" rerouteNo="0" devices="tripinfo_flow_route_97_duration_20250327_2220.1" vType="car" speedFactor="1.12" vaporized=""/>
    <tripinfo id="flow_route_118_duration_20250327_2220.0" depart="0.00" departLane="134194079#0_0" departPos="13.63" departSpeed="0.00" departDelay="0.00" arrival="44.00" arrivalLane="1328664744#0_1" arrivalPos="165.30" arrivalSpeed="13.84" duration="44.00" routeLength="472.83" waitingTime="0.00" waitingCount="0" stopTime="0.00" timeLoss="10.64" rerouteNo="0" devices="tripinfo_flow_route_118_duration_20250327_2220.0" vType="car" speedFactor="0.86" vaporized=""/>
    <tripinfo id="flow_route_97_duration_20250327_2220.4" depart="48.00" departLane="1328664748#0_0" departPos="220.77" departSpeed="0.00" departDelay="0.00" arrival="59.00" arrivalLane="135474719#0_0" arrivalPos="27.61" arrivalSpeed="8.33" duration="11.00" routeLength="41.56" waitingTime="0.00" waitingCount="0" stopTime="0.00" timeLoss="7.29" rerouteNo="0" devices="tripinfo_flow_route_97_duration_20250327_2220.4" vType="car" speedFactor="1.01" vaporized=""/>
    <tripinfo id="flow_route_99_duration_20250327_2220.1" depart="30.00" departLane="1328664748#0_0" departPos="19.81" departSpeed="0.00" departDelay="0.00" arrival="62.00" arrivalLane="1253188486#8_2" arrivalPos="41.21" arrivalSpeed="12.96" duration="32.00" routeLength="279.27" waitingTime="0.00" waitingCount="0" stopTime="0.00" timeLoss="13.92" rerouteNo="0" devices="tripinfo_flow_route_99_duration_20250327_2220.1" vType="car" speedFactor="1.01" vaporized=""/>
    <tripinfo id="flow_route_97_duration_20250327_2220.3" depart="36.00" departLane="1328664748#0_0" departPos="68.48" departSpeed="0.00" departDelay="0.00" arrival="72.00" arrivalLane="135474719#0_0" arrivalPos="148.10" arrivalSpeed="15.24" duration="36.00" routeLength="314.34" waitingTime="0.00" waitingCount="0" stopTime="0.00" timeLoss="14.06" rerouteNo="0" devices="tripinfo_flow_route_97_duration_20250327_2220.3" vType="car" speedFactor="0.92" vaporized=""/>
    <tripinfo id="flow_route_110_duration_20250327_2220.0" depart="0.00" departLane="1254519225#0.109_0" departPos="3.76" departSpeed="0.00" departDelay="0.00" arrival="81.00" arrivalLane="177211987#1_2" arrivalPos="6.38" arrivalSpeed="7.88" duration="81.00" routeLength="190.24" waitingTime="47.00" waitingCount="1" stopTime="0.00" timeLoss="65.90" rerouteNo="0" devices="tripinfo_flow_route_110_duration_20250327_2220.0" vType="car" speedFactor="0.83" vaporized=""/>
    <tripinfo id="flow_route_108_duration_20250327_2220.0" depart="0.00" departLane="1254519225#0.109_0" departPos="35.33" departSpeed="0.00" departDelay="0.00" arrival="87.00" arrivalLane="135474719#0_0" arrivalPos="75.82" arrivalSpeed="13.72" duration="87.00" routeLength="240.24" waitingTime="51.00" waitingCount="1" stopTime="0.00" timeLoss="72.41" rerouteNo="0" devices="tripinfo_flow_route_108_duration_20250327_2220.0" vType="car" speedFactor="1.08" vaporized=""/>
    <tripinfo id="flow_route_109_duration_20250327_2220.0" depart="0.00" departLane="1254519225#0.109_0" departPos="16.50" departSpeed="0.00" departDelay="0.00" arrival="91.00" arrivalLane="1328664744#0_0" arrivalPos="130.88" arrivalSpeed="15.92" duration="91.00" routeLength="288.61" waitingTime="49.00" waitingCount="1" stopTime="0.00" timeLoss="72.57" rerouteNo="0" devices="tripinfo_flow_route_109_duration_20250327_2220.0" vType="car" speedFactor="1.03" vaporized=""/>
    <tripinfo id="flow_route_108_duration_20250327_2220.1" depart="30.00" departLane="1254519225#0.109_0" departPos="41.68" departSpeed="0.00" departDelay="0.00" arrival="91.00" arrivalLane="135474719#0_2" arrivalPos="88.19" arrivalSpeed="14.43" duration="61.00" routeLength="246.25" waitingTime="22.00" waitingCount="1" stopTime="0.00" timeLoss="45.55" rerouteNo="0" devices="tripinfo_flow_route_108_duration_20250327_2220.1" vType="car" speedFactor="0.97" vaporized=""/>
    <tripinfo id="flow_route_114_duration_20250327_2220.0" depart="0.00" departLane="1253188486#4_0" departPos="49.31" departSpeed="0.00" departDelay="0.00" arrival="121.00" arrivalLane="177211987#1_0" arrivalPos="36.23" arrivalSpeed="9.38" duration="121.00" routeLength="153.37" waitingTime="91.00" waitingCount="1" stopTime="0.00" timeLoss="110.27" rerouteNo="0" devices="tripinfo_flow_route_114_duration_20250327_2220.0" vType="car" speedFactor="0.89" vaporized=""/>
    <tripinfo id="flow_route_113_duration_20250327_2220.1" depart="15.00" departLane="1253188486#4_0" departPos="46.22" departSpeed="0.00" departDelay="0.00" arrival="123.00" arrivalLane="1253188486#8_1" arrivalPos="58.08" arrivalSpeed="12.36" duration="108.00" routeLength="210.49" waitingTime="75.00" waitingCount="1" stopTime="0.00" timeLoss="95.31" rerouteNo="0" devices="tripinfo_flow_route_113_duration_20250327_2220.1" vType="car" speedFactor="0.99" vaporized=""/>
    <tripinfo id="flow_route_113_duration_20250327_2220.3" depart="45.00" departLane="1253188486#4_0" departPos="83.74" departSpeed="0.00" departDelay="0.00" arrival="123.00" arrivalLane="1253188486#8_0" arrivalPos="6.83" arrivalSpeed="9.54" duration="78.00" routeLength="121.72" waitingTime="51.00" waitingCount="1" stopTime="0.00" timeLoss="70.65" rerouteNo="0" devices="tripinfo_flow_route_113_duration_20250327_2220.3" vType="car" speedFactor="1.18" vaporized=""/>
    <tripinfo id="flow_route_115_duration_20250327_2220.2" depart="41.00" departLane="1253188486#4_0" departPos="28.08" departSpeed="0.00" departDelay="1.00" arrival="125.00" arrivalLane="1328664744#0_2" arrivalPos="37.36" arrivalSpeed="11.62" duration="84.00" routeLength="194.68" waitingTime="49.00" waitingCount="1" stopTime="0.00" timeLoss="71.17" rerouteNo="0" devices="tripinfo_flow_route_115_duration_20250327_2220.2" vType="car" speedFactor="1.13" vaporized=""/>
    <tripinfo id="flow_route_113_duration_20250327_2220.2" depart="30.00" departLane="1253188486#4_0" departPos="109.60" departSpeed="0.00" departDelay="0.00" arrival="126.00" arrivalLane="1253188486#8_1" arrivalPos="59.22" arrivalSpeed="13.73" duration="96.00" routeLength="148.26" waitingTime="68.00" waitingCount="1" stopTime="0.00" timeLoss="86.65" rerouteNo="0" devices="tripinfo_flow_route_113_duration_20250327_2220.2" vType="car" speedFactor="0.89" vaporized=""/>
    <tripinfo id="flow_route_115_duration_20250327_2220.0" depart="0.00" departLane="1253188486#4_0" departPos="104.70" departSpeed="0.00" departDelay="0.00" arrival="127.00" arrivalLane="1328664744#0_2" arrivalPos="120.97" arrivalSpeed="15.09" duration="127.00" routeLength="201.67" waitingTime="95.00" waitingCount="1" stopTime="0.00" timeLoss="112.57" rerouteNo="0" devices="tripinfo_flow_route_115_duration_20250327_2220.0" vType="car" speedFactor="0.94" vaporized=""/>
    <tripinfo id="flow_route_115_duration_20250327_2220.1" depart="20.00" departLane="1253188486#4_0" departPos="50.74" departSpeed="0.00" departDelay="0.00" arrival="130.00" arrivalLane="1328664744#0_2" arrivalPos="151.98" arrivalSpeed="15.65" duration="110.00" routeLength="286.64" waitingTime="69.00" waitingCount="1" stopTime="0.00" timeLoss="90.98" rerouteNo="0" devices="tripinfo_flow_route_115_duration_20250327_2220.1" vType="car" speedFactor="0.94" vaporized=""/>
    <tripinfo id="flow_route_113_duration_20250327_2220.0" depart="0.00" departLane="1253188486#4_0" departPos="134.10" departSpeed="0.00" departDelay="0.00" arrival="132.00" arrivalLane="1253188486#8_0" arrivalPos="182.35" arrivalSpeed="16.31" duration="132.00" routeLength="246.88" waitingTime="99.00" waitingCount="1" stopTime="0.00" timeLoss="116.28" rerouteNo="0" devices="tripinfo_flow_route_113_duration_20250327_2220.0" vType="car" speedFactor="1.05" vaporized=""/>
    <tripinfo id="flow_route_118_duration_20250327_2220.2" depart="19.00" departLane="134194079#0_0" departPos="8.80" departSpeed="0.00" departDelay="1.86" arrival="156.00" arrivalLane="1328664744#0_1" arrivalPos="35.30" arrivalSpeed="9.71" duration="137.00" routeLength="347.65" waitingTime="91.00" waitingCount="1" stopTime="0.00" timeLoss="113.08" rerouteNo="0" devices="tripinfo_flow_route_118_duration_20250327_2220.2" vType="car" speedFactor="0.88" vaporized=""/>
    <tripinfo id="flow_route_118_duration_20250327_2220.3" depart="26.00" departLane="134194079#0_0" departPos="65.83" departSpeed="0.00" departDelay="0.29" arrival="159.00" arrivalLane="1328664744#0_2" arrivalPos="58.58" arrivalSpeed="11.24" duration="133.00" routeLength="313.91" waitingTime="89.00" waitingCount="1" stopTime="0.00" timeLoss="113.94" rerouteNo="0" devices="tripinfo_flow_route_118_duration_20250327_2220.3" vType="car" speedFactor="1.02" vaporized=""/>
    <tripinfo id="flow_route_119_duration_20250327_2220.3" depart="23.00" departLane="134194079#0_0" departPos="36.99" departSpeed="0.00" departDelay="0.50" arrival="162.00" arrivalLane="1253188486#8_0" arrivalPos="31.74" arrivalSpeed="9.39" duration="139.00" routeLength="305.70" waitingTime="90.00" waitingCount="1" stopTime="0.00" timeLoss="118.61" rerouteNo="0" devices="tripinfo_flow_route_119_duration_20250327_2220.3" vType="car" speedFactor="0.94" vaporized=""/>
    <tripinfo id="flow_route_118_duration_20250327_2220.6" depart="52.00" departLane="134194079#0_0" departPos="100.02" departSpeed="0.00" departDelay="0.57" arrival="162.00" arrivalLane="1328664744#0_2" arrivalPos="69.63" arrivalSpeed="12.15" duration="110.00" routeLength="290.76" waitingTime="68.00" waitingCount="1" stopTime="0.00" timeLoss="92.10" rerouteNo="0" devices="tripinfo_flow_route_118_duration_20250327_2220.6" vType="car" speedFactor="1.17" vaporized=""/>
    <tripinfo id="flow_route_119_duration_20250327_2220.7" depart="53.00" departLane="134194079#0_0" departPos="167.32" departSpeed="0.00" departDelay="0.50" arrival="163.00" arrivalLane="1253188486#8_0" arrivalPos="21.10" arrivalSpeed="9.50" duration="110.00" routeLength="164.73" waitingTime="78.00" waitingCount="1" stopTime="0.00" timeLoss="98.57" rerouteNo="0" devices="tripinfo_flow_route_119_duration_20250327_2220.7" vType="car" speedFactor="0.99" vaporized=""/>
    <tripinfo id="flow_route_118_duration_20250327_2220.4" depart="35.00" departLane="134194079#0_0" departPos="275.86" departSpeed="0.00" departDelay="0.72" arrival="166.00" arrivalLane="1328664744#0_0" arrivalPos="153.43" arrivalSpeed="14.40" duration="131.00" routeLength="198.72" waitingTime="102.00" waitingCount="1" stopTime="0.00" timeLoss="117.04" rerouteNo="0" devices="tripinfo_flow_route_118_duration_20250327_2220.4" vType="car" speedFactor="0.87" vaporized=""/>
    <tripinfo id="flow_route_118_duration_20250327_2220.5" depart="43.00" departLane="134194079#0_0" departPos="44.79" departSpeed="0.00" departDelay="0.15" arrival="167.00" arrivalLane="1328664744#0_1" arrivalPos="142.35" arrivalSpeed="15.44" duration="124.00" routeLength="418.70" waitingTime="75.00" waitingCount="1" stopTime="0.00" timeLoss="96.69" rerouteNo="0" devices="tripinfo_flow_route_118_duration_20250327_2220.5" vType="car" speedFactor="0.93" vaporized=""/>
    <tripinfo id="flow_route_119_duration_20250327_2220.5" depart="38.00" departLane="134194079#0_0" departPos="171.13" departSpeed="0.00" departDelay="0.50" arrival="168.00" arrivalLane="1253188486#8_0" arrivalPos="120.85" arrivalSpeed="14.53" duration="130.00" routeLength="260.67" waitingTime="90.00" waitingCount="1" stopTime="0.00" timeLoss="112.33" rerouteNo="0" devices="tripinfo_flow_route_119_duration_20250327_2220.5" vType="car" speedFactor="0.95" vaporized=""/>
    <tripinfo id="flow_route_119_duration_20250327_2220.6" depart="46.00" departLane="134194079#0_0" departPos="19.76" departSpeed="0.00" departDelay="1.00" arrival="169.00" arrivalLane="1253188486#8_0" arrivalPos="68.41" arrivalSpeed="12.63" duration="123.00" routeLength="359.60" waitingTime="73.00" waitingCount="1" stopTime="0.00" timeLoss="100.46" rerouteNo="0" devices="tripinfo_flow_route_119_duration_20250327_2220.6" vType="car" speedFactor="1.15" vaporized=""/>
    <tripinfo id="flow_route_119_duration_20250327_2220.4" depart="30.00" departLane="134194079#0_0" departPos="175.90" departSpeed="0.00" departDelay="0.00" arrival="170.00" arrivalLane="1253188486#8_0" arrivalPos="199.14" arrivalSpeed="16.39" duration="140.00" routeLength="334.19" waitingTime="96.00" waitingCount="1" stopTime="0.00" timeLoss="116.83" rerouteNo="0" devices="tripinfo_flow_route_119_duration_20250327_2220.4" vType="car" speedFactor="0.83" vaporized=""/>
</tripinfos>
