<?xml version="1.0" encoding="UTF-8"?>

<!-- generated on 2025-05-06 21:01:16 by Eclipse SUMO sumo Version 1.20.0
<configuration xmlns:xsi="http://www.w3.org/2001/XMLSchema-instance" xsi:noNamespaceSchemaLocation="http://sumo.dlr.de/xsd/sumoConfiguration.xsd">

    <input>
        <net-file value="osm.net.xml"/>
        <route-files value="xml/routes_sac2_cluster7571105647_7571105653_cluster_1141265322_11869698130_256036890_4227138136_#4more.rou.xml"/>
    </input>

    <output>
        <tripinfo-output value="xml/tripinfo_9780.xml"/>
    </output>

    <traci_server>
        <remote-port value="43297"/>
    </traci_server>

</configuration>
-->

<tripinfos xmlns:xsi="http://www.w3.org/2001/XMLSchema-instance" xsi:noNamespaceSchemaLocation="http://sumo.dlr.de/xsd/tripinfo_file.xsd">
    <tripinfo id="flow_route_143_duration_20250327_2050.0" depart="0.00" departLane="1253222187#0_0" departPos="157.10" departSpeed="0.00" departDelay="0.00" arrival="28.00" arrivalLane="1310781056_0" arrivalPos="55.73" arrivalSpeed="16.37" duration="28.00" routeLength="267.13" waitingTime="0.00" waitingCount="0" stopTime="0.00" timeLoss="11.65" rerouteNo="0" devices="tripinfo_flow_route_143_duration_20250327_2050.0" vType="car" speedFactor="1.08" vaporized=""/>
    <tripinfo id="flow_route_142_duration_20250327_2050.0" depart="0.00" departLane="1253222187#0_0" departPos="114.97" departSpeed="0.00" departDelay="0.00" arrival="53.00" arrivalLane="683079388#0_0" arrivalPos="1.17" arrivalSpeed="16.58" duration="53.00" routeLength="684.52" waitingTime="0.00" waitingCount="0" stopTime="0.00" timeLoss="11.60" rerouteNo="0" devices="tripinfo_flow_route_142_duration_20250327_2050.0" vType="car" speedFactor="1.01" vaporized=""/>
    <tripinfo id="flow_route_140_duration_20250327_2050.4" depart="31.00" departLane="809719540#0_0" departPos="259.08" departSpeed="0.00" departDelay="1.00" arrival="57.00" arrivalLane="-809772643#1_0" arrivalPos="68.50" arrivalSpeed="13.59" duration="26.00" routeLength="116.87" waitingTime="6.00" waitingCount="1" stopTime="0.00" timeLoss="17.56" rerouteNo="0" devices="tripinfo_flow_route_140_duration_20250327_2050.4" vType="car" speedFactor="0.88" vaporized=""/>
    <tripinfo id="flow_route_140_duration_20250327_2050.2" depart="15.00" departLane="809719540#0_0" departPos="238.42" departSpeed="0.00" departDelay="0.00" arrival="62.00" arrivalLane="-809772643#1_1" arrivalPos="170.43" arrivalSpeed="16.44" duration="47.00" routeLength="242.30" waitingTime="13.00" waitingCount="1" stopTime="0.00" timeLoss="31.98" rerouteNo="0" devices="tripinfo_flow_route_140_duration_20250327_2050.2" vType="car" speedFactor="1.09" vaporized=""/>
    <tripinfo id="flow_route_140_duration_20250327_2050.3" depart="23.00" departLane="809719540#0_0" departPos="8.71" departSpeed="0.00" departDelay="0.50" arrival="62.00" arrivalLane="-809772643#1_1" arrivalPos="48.94" arrivalSpeed="13.28" duration="39.00" routeLength="350.52" waitingTime="0.00" waitingCount="0" stopTime="0.00" timeLoss="17.85" rerouteNo="0" devices="tripinfo_flow_route_140_duration_20250327_2050.3" vType="car" speedFactor="1.05" vaporized=""/>
    <tripinfo id="flow_route_140_duration_20250327_2050.0" depart="0.00" departLane="809719540#0_0" departPos="199.64" departSpeed="0.00" departDelay="0.00" arrival="63.00" arrivalLane="-809772643#1_0" arrivalPos="184.22" arrivalSpeed="16.12" duration="63.00" routeLength="292.04" waitingTime="24.00" waitingCount="1" stopTime="0.00" timeLoss="44.68" rerouteNo="0" devices="tripinfo_flow_route_140_duration_20250327_2050.0" vType="car" speedFactor="1.06" vaporized=""/>
    <tripinfo id="flow_route_140_duration_20250327_2050.1" depart="8.00" departLane="809719540#0_0" departPos="86.48" departSpeed="0.00" departDelay="0.50" arrival="64.00" arrivalLane="-809772643#1_1" arrivalPos="181.04" arrivalSpeed="16.14" duration="56.00" routeLength="404.84" waitingTime="7.00" waitingCount="1" stopTime="0.00" timeLoss="31.39" rerouteNo="0" devices="tripinfo_flow_route_140_duration_20250327_2050.1" vType="car" speedFactor="1.05" vaporized=""/>
    <tripinfo id="flow_route_140_duration_20250327_2050.5" depart="38.00" departLane="809719540#0_0" departPos="192.20" departSpeed="0.00" departDelay="0.50" arrival="64.00" arrivalLane="-809772643#1_0" arrivalPos="138.14" arrivalSpeed="16.42" duration="26.00" routeLength="253.39" waitingTime="0.00" waitingCount="0" stopTime="0.00" timeLoss="10.45" rerouteNo="0" devices="tripinfo_flow_route_140_duration_20250327_2050.5" vType="car" speedFactor="1.01" vaporized=""/>
    <tripinfo id="flow_route_142_duration_20250327_2050.1" depart="12.00" departLane="1253222187#0_0" departPos="133.56" departSpeed="0.00" departDelay="0.00" arrival="66.00" arrivalLane="683079388#0_0" arrivalPos="13.24" arrivalSpeed="15.17" duration="54.00" routeLength="677.99" waitingTime="0.00" waitingCount="0" stopTime="0.00" timeLoss="9.91" rerouteNo="0" devices="tripinfo_flow_route_142_duration_20250327_2050.1" vType="car" speedFactor="0.94" vaporized=""/>
    <tripinfo id="flow_route_140_duration_20250327_2050.6" depart="45.00" departLane="809719540#0_0" departPos="82.67" departSpeed="0.00" departDelay="0.00" arrival="83.00" arrivalLane="-809772643#1_0" arrivalPos="198.48" arrivalSpeed="14.57" duration="38.00" routeLength="423.26" waitingTime="0.00" waitingCount="0" stopTime="0.00" timeLoss="9.36" rerouteNo="0" devices="tripinfo_flow_route_140_duration_20250327_2050.6" vType="car" speedFactor="0.89" vaporized=""/>
    <tripinfo id="flow_route_146_duration_20250327_2050.1" depart="12.00" departLane="683079387#1_0" departPos="9.59" departSpeed="0.00" departDelay="0.00" arrival="89.00" arrivalLane="-809772643#1_1" arrivalPos="63.49" arrivalSpeed="13.83" duration="77.00" routeLength="666.87" waitingTime="8.00" waitingCount="1" stopTime="0.00" timeLoss="29.48" rerouteNo="0" devices="tripinfo_flow_route_146_duration_20250327_2050.1" vType="car" speedFactor="0.86" vaporized=""/>
    <tripinfo id="flow_route_147_duration_20250327_2050.0" depart="5.00" departLane="683079387#1_0" departPos="0.62" departSpeed="0.00" departDelay="5.00" arrival="91.00" arrivalLane="1310781056_0" arrivalPos="4.95" arrivalSpeed="13.99" duration="86.00" routeLength="684.16" waitingTime="17.00" waitingCount="1" stopTime="0.00" timeLoss="36.40" rerouteNo="0" devices="tripinfo_flow_route_147_duration_20250327_2050.0" vType="car" speedFactor="0.83" vaporized=""/>
    <tripinfo id="flow_route_141_duration_20250327_2050.0" depart="0.00" departLane="809719540#0_0" departPos="66.48" departSpeed="0.00" departDelay="0.00" arrival="93.00" arrivalLane="683079387#1_1" arrivalPos="7.27" arrivalSpeed="6.50" duration="93.00" routeLength="836.36" waitingTime="13.00" waitingCount="1" stopTime="0.00" timeLoss="36.40" rerouteNo="0" devices="tripinfo_flow_route_141_duration_20250327_2050.0" vType="car" speedFactor="0.94" vaporized=""/>
    <tripinfo id="flow_route_146_duration_20250327_2050.0" depart="0.00" departLane="683079387#1_0" departPos="0.06" departSpeed="0.00" departDelay="0.00" arrival="93.00" arrivalLane="-809772643#1_0" arrivalPos="121.98" arrivalSpeed="16.31" duration="93.00" routeLength="734.89" waitingTime="25.00" waitingCount="1" stopTime="0.00" timeLoss="48.19" rerouteNo="0" devices="tripinfo_flow_route_146_duration_20250327_2050.0" vType="car" speedFactor="1.03" vaporized=""/>
    <tripinfo id="flow_route_146_duration_20250327_2050.3" depart="36.00" departLane="683079387#1_0" departPos="0.91" departSpeed="0.00" departDelay="0.00" arrival="94.00" arrivalLane="-809772643#1_0" arrivalPos="118.19" arrivalSpeed="16.59" duration="58.00" routeLength="730.25" waitingTime="0.00" waitingCount="0" stopTime="0.00" timeLoss="13.76" rerouteNo="0" devices="tripinfo_flow_route_146_duration_20250327_2050.3" vType="car" speedFactor="1.02" vaporized=""/>
    <tripinfo id="flow_route_141_duration_20250327_2050.2" depart="18.00" departLane="809719540#0_0" departPos="146.20" departSpeed="0.00" departDelay="0.86" arrival="95.00" arrivalLane="683079387#1_1" arrivalPos="4.05" arrivalSpeed="7.14" duration="77.00" routeLength="760.43" waitingTime="3.00" waitingCount="1" stopTime="0.00" timeLoss="28.29" rerouteNo="0" devices="tripinfo_flow_route_141_duration_20250327_2050.2" vType="car" speedFactor="1.03" vaporized=""/>
    <tripinfo id="flow_route_146_duration_20250327_2050.2" depart="24.00" departLane="683079387#1_0" departPos="9.77" departSpeed="0.00" departDelay="0.00" arrival="97.00" arrivalLane="-809772643#1_1" arrivalPos="158.07" arrivalSpeed="16.41" duration="73.00" routeLength="761.27" waitingTime="2.00" waitingCount="1" stopTime="0.00" timeLoss="26.27" rerouteNo="0" devices="tripinfo_flow_route_146_duration_20250327_2050.2" vType="car" speedFactor="0.99" vaporized=""/>
    <tripinfo id="flow_route_141_duration_20250327_2050.1" depart="9.00" departLane="809719540#0_0" departPos="12.41" departSpeed="0.00" departDelay="0.43" arrival="99.00" arrivalLane="683079387#1_1" arrivalPos="6.98" arrivalSpeed="5.92" duration="90.00" routeLength="890.13" waitingTime="1.00" waitingCount="1" stopTime="0.00" timeLoss="26.51" rerouteNo="0" devices="tripinfo_flow_route_141_duration_20250327_2050.1" vType="car" speedFactor="0.89" vaporized=""/>
    <tripinfo id="flow_route_141_duration_20250327_2050.3" depart="26.00" departLane="809719540#0_0" departPos="184.01" departSpeed="0.00" departDelay="0.29" arrival="100.00" arrivalLane="683079387#1_1" arrivalPos="0.30" arrivalSpeed="5.54" duration="74.00" routeLength="711.85" waitingTime="0.00" waitingCount="0" stopTime="0.00" timeLoss="24.87" rerouteNo="0" devices="tripinfo_flow_route_141_duration_20250327_2050.3" vType="car" speedFactor="0.93" vaporized=""/>
    <tripinfo id="flow_route_141_duration_20250327_2050.5" depart="44.00" departLane="809719540#0_0" departPos="251.16" departSpeed="0.00" departDelay="1.15" arrival="104.00" arrivalLane="683079387#1_1" arrivalPos="6.09" arrivalSpeed="6.27" duration="60.00" routeLength="657.51" waitingTime="0.00" waitingCount="0" stopTime="0.00" timeLoss="16.52" rerouteNo="0" devices="tripinfo_flow_route_141_duration_20250327_2050.5" vType="car" speedFactor="0.97" vaporized=""/>
    <tripinfo id="flow_route_141_duration_20250327_2050.4" depart="36.00" departLane="809719540#0_0" departPos="64.84" departSpeed="0.00" departDelay="1.72" arrival="106.00" arrivalLane="683079387#1_1" arrivalPos="2.70" arrivalSpeed="5.34" duration="70.00" routeLength="840.44" waitingTime="0.00" waitingCount="0" stopTime="0.00" timeLoss="13.23" rerouteNo="0" devices="tripinfo_flow_route_141_duration_20250327_2050.4" vType="car" speedFactor="0.94" vaporized=""/>
    <tripinfo id="flow_route_146_duration_20250327_2050.4" depart="48.00" departLane="683079387#1_0" departPos="9.75" departSpeed="0.00" departDelay="0.00" arrival="107.00" arrivalLane="-809772643#1_0" arrivalPos="119.93" arrivalSpeed="14.15" duration="59.00" routeLength="723.16" waitingTime="0.00" waitingCount="0" stopTime="0.00" timeLoss="8.91" rerouteNo="0" devices="tripinfo_flow_route_146_duration_20250327_2050.4" vType="car" speedFactor="0.87" vaporized=""/>
    <tripinfo id="flow_route_141_duration_20250327_2050.6" depart="52.00" departLane="809719540#0_0" departPos="172.34" departSpeed="0.00" departDelay="0.57" arrival="114.00" arrivalLane="683079387#1_1" arrivalPos="1.87" arrivalSpeed="5.12" duration="62.00" routeLength="732.11" waitingTime="0.00" waitingCount="0" stopTime="0.00" timeLoss="11.30" rerouteNo="0" devices="tripinfo_flow_route_141_duration_20250327_2050.6" vType="car" speedFactor="0.92" vaporized=""/>
    <tripinfo id="flow_route_142_duration_20250327_2050.2" depart="24.00" departLane="1253222187#0_0" departPos="33.55" departSpeed="0.00" departDelay="0.00" arrival="118.00" arrivalLane="683079388#0_2" arrivalPos="7.79" arrivalSpeed="16.25" duration="94.00" routeLength="772.56" waitingTime="24.00" waitingCount="1" stopTime="0.00" timeLoss="47.10" rerouteNo="0" devices="tripinfo_flow_route_142_duration_20250327_2050.2" vType="car" speedFactor="1.12" vaporized=""/>
    <tripinfo id="flow_route_143_duration_20250327_2050.1" depart="30.00" departLane="1253222187#0_0" departPos="86.73" departSpeed="0.00" departDelay="0.00" arrival="118.00" arrivalLane="1310781056_0" arrivalPos="14.67" arrivalSpeed="15.61" duration="88.00" routeLength="296.44" waitingTime="44.00" waitingCount="2" stopTime="0.00" timeLoss="69.37" rerouteNo="0" devices="tripinfo_flow_route_143_duration_20250327_2050.1" vType="car" speedFactor="0.94" vaporized=""/>
    <tripinfo id="flow_route_142_duration_20250327_2050.3" depart="36.00" departLane="1253222187#0_0" departPos="171.14" departSpeed="0.00" departDelay="0.00" arrival="118.00" arrivalLane="683079388#0_0" arrivalPos="4.34" arrivalSpeed="16.39" duration="82.00" routeLength="631.51" waitingTime="24.00" waitingCount="1" stopTime="0.00" timeLoss="43.77" rerouteNo="0" devices="tripinfo_flow_route_142_duration_20250327_2050.3" vType="car" speedFactor="1.16" vaporized=""/>
    <tripinfo id="flow_route_140_duration_20250327_2050.7" depart="53.00" departLane="809719540#0_0" departPos="7.48" departSpeed="0.00" departDelay="0.50" arrival="124.00" arrivalLane="-809772643#1_0" arrivalPos="31.39" arrivalSpeed="10.78" duration="71.00" routeLength="331.37" waitingTime="28.00" waitingCount="1" stopTime="0.00" timeLoss="49.58" rerouteNo="0" devices="tripinfo_flow_route_140_duration_20250327_2050.7" vType="car" speedFactor="0.95" vaporized=""/>
    <tripinfo id="flow_route_142_duration_20250327_2050.4" depart="48.00" departLane="1253222187#0_0" departPos="35.51" departSpeed="0.00" departDelay="0.00" arrival="126.00" arrivalLane="683079388#0_0" arrivalPos="12.72" arrivalSpeed="13.55" duration="78.00" routeLength="775.52" waitingTime="1.00" waitingCount="1" stopTime="0.00" timeLoss="21.45" rerouteNo="0" devices="tripinfo_flow_route_142_duration_20250327_2050.4" vType="car" speedFactor="0.83" vaporized=""/>
</tripinfos>
