<?xml version="1.0" encoding="UTF-8"?>

<!-- generated on 2025-05-06 21:07:45 by Eclipse SUMO sumo Version 1.20.0
<configuration xmlns:xsi="http://www.w3.org/2001/XMLSchema-instance" xsi:noNamespaceSchemaLocation="http://sumo.dlr.de/xsd/sumoConfiguration.xsd">

    <input>
        <net-file value="osm.net.xml"/>
        <route-files value="xml/route_static_cluster_11648561428_407729599_0.rou.xml"/>
    </input>

    <output>
        <tripinfo-output value="xml/tripinfo_static_cluster_11648561428_407729599_0.xml"/>
    </output>

    <traci_server>
        <remote-port value="38747"/>
    </traci_server>

</configuration>
-->

<tripinfos xmlns:xsi="http://www.w3.org/2001/XMLSchema-instance" xsi:noNamespaceSchemaLocation="http://sumo.dlr.de/xsd/tripinfo_file.xsd">
    <tripinfo id="flow_route_106_duration_20250327_2120.0" depart="0.00" departLane="1254519229#0_0" departPos="19.69" departSpeed="0.00" departDelay="0.00" arrival="17.00" arrivalLane="430416184_1" arrivalPos="13.15" arrivalSpeed="9.70" duration="17.00" routeLength="94.14" waitingTime="0.00" waitingCount="0" stopTime="0.00" timeLoss="10.35" rerouteNo="0" devices="tripinfo_flow_route_106_duration_20250327_2120.0" vType="car" speedFactor="1.01" vaporized=""/>
    <tripinfo id="flow_route_107_duration_20250327_2120.0" depart="0.00" departLane="1254519229#0_0" departPos="43.39" departSpeed="0.00" departDelay="0.00" arrival="20.00" arrivalLane="1342963997_0" arrivalPos="88.24" arrivalSpeed="14.75" duration="20.00" routeLength="145.44" waitingTime="0.00" waitingCount="0" stopTime="0.00" timeLoss="10.92" rerouteNo="0" devices="tripinfo_flow_route_107_duration_20250327_2120.0" vType="car" speedFactor="1.08" vaporized=""/>
    <tripinfo id="flow_route_106_duration_20250327_2120.1" depart="10.00" departLane="1254519229#0_0" departPos="53.55" departSpeed="0.00" departDelay="0.00" arrival="23.00" arrivalLane="430416184_1" arrivalPos="1.75" arrivalSpeed="7.41" duration="13.00" routeLength="48.87" waitingTime="0.00" waitingCount="0" stopTime="0.00" timeLoss="8.57" rerouteNo="0" devices="tripinfo_flow_route_106_duration_20250327_2120.1" vType="car" speedFactor="0.83" vaporized=""/>
    <tripinfo id="flow_route_101_duration_20250327_2120.0" depart="0.00" departLane="186409193_0" departPos="43.42" departSpeed="0.00" departDelay="0.00" arrival="34.00" arrivalLane="430416184_0" arrivalPos="206.05" arrivalSpeed="16.21" duration="34.00" routeLength="297.12" waitingTime="0.00" waitingCount="0" stopTime="0.00" timeLoss="14.79" rerouteNo="0" devices="tripinfo_flow_route_101_duration_20250327_2120.0" vType="car" speedFactor="0.94" vaporized=""/>
    <tripinfo id="flow_route_100_duration_20250327_2120.0" depart="0.00" departLane="186409193_0" departPos="2.55" departSpeed="0.00" departDelay="0.00" arrival="37.00" arrivalLane="1254519229#0_1" arrivalPos="70.90" arrivalSpeed="2.17" duration="37.00" routeLength="299.97" waitingTime="0.00" waitingCount="0" stopTime="0.00" timeLoss="18.24" rerouteNo="0" devices="tripinfo_flow_route_100_duration_20250327_2120.0" vType="car" speedFactor="1.06" vaporized=""/>
    <tripinfo id="flow_route_106_duration_20250327_2120.2" depart="20.00" departLane="1254519229#0_0" departPos="25.62" departSpeed="0.00" departDelay="0.00" arrival="38.00" arrivalLane="430416184_1" arrivalPos="17.43" arrivalSpeed="9.93" duration="18.00" routeLength="92.49" waitingTime="0.00" waitingCount="0" stopTime="0.00" timeLoss="11.15" rerouteNo="0" devices="tripinfo_flow_route_106_duration_20250327_2120.2" vType="car" speedFactor="0.94" vaporized=""/>
    <tripinfo id="flow_route_107_duration_20250327_2120.1" depart="20.00" departLane="1254519229#0_0" departPos="54.39" departSpeed="0.00" departDelay="0.00" arrival="43.00" arrivalLane="1342963997_0" arrivalPos="157.22" arrivalSpeed="16.58" duration="23.00" routeLength="203.41" waitingTime="0.00" waitingCount="0" stopTime="0.00" timeLoss="10.38" rerouteNo="0" devices="tripinfo_flow_route_107_duration_20250327_2120.1" vType="car" speedFactor="0.86" vaporized=""/>
    <tripinfo id="flow_route_149_duration_20250327_2120.0" depart="0.00" departLane="186410975#0_0" departPos="192.32" departSpeed="0.00" departDelay="0.00" arrival="61.00" arrivalLane="430416184_1" arrivalPos="170.61" arrivalSpeed="16.29" duration="61.00" routeLength="523.96" waitingTime="4.00" waitingCount="1" stopTime="0.00" timeLoss="25.44" rerouteNo="0" devices="tripinfo_flow_route_149_duration_20250327_2120.0" vType="car" speedFactor="1.03" vaporized=""/>
    <tripinfo id="flow_route_101_duration_20250327_2120.2" depart="24.00" departLane="186409193_0" departPos="29.97" departSpeed="0.00" departDelay="0.00" arrival="64.00" arrivalLane="430416184_0" arrivalPos="13.36" arrivalSpeed="6.71" duration="40.00" routeLength="117.89" waitingTime="14.00" waitingCount="1" stopTime="0.00" timeLoss="31.52" rerouteNo="0" devices="tripinfo_flow_route_101_duration_20250327_2120.2" vType="car" speedFactor="1.09" vaporized=""/>
    <tripinfo id="flow_route_107_duration_20250327_2120.2" depart="40.00" departLane="1254519229#0_0" departPos="24.01" departSpeed="0.00" departDelay="0.00" arrival="64.00" arrivalLane="1342963997_0" arrivalPos="42.51" arrivalSpeed="10.49" duration="24.00" routeLength="119.07" waitingTime="0.00" waitingCount="0" stopTime="0.00" timeLoss="16.40" rerouteNo="0" devices="tripinfo_flow_route_107_duration_20250327_2120.2" vType="car" speedFactor="0.93" vaporized=""/>
    <tripinfo id="flow_route_106_duration_20250327_2120.3" depart="30.00" departLane="1254519229#0_0" departPos="74.72" departSpeed="0.00" departDelay="0.00" arrival="69.00" arrivalLane="430416184_1" arrivalPos="88.80" arrivalSpeed="12.56" duration="39.00" routeLength="114.76" waitingTime="19.00" waitingCount="2" stopTime="0.00" timeLoss="31.53" rerouteNo="0" devices="tripinfo_flow_route_106_duration_20250327_2120.3" vType="car" speedFactor="1.03" vaporized=""/>
    <tripinfo id="flow_route_101_duration_20250327_2120.1" depart="12.00" departLane="186409193_0" departPos="26.41" departSpeed="0.00" departDelay="0.00" arrival="73.00" arrivalLane="430416184_0" arrivalPos="134.81" arrivalSpeed="14.00" duration="61.00" routeLength="242.90" waitingTime="23.00" waitingCount="1" stopTime="0.00" timeLoss="45.31" rerouteNo="0" devices="tripinfo_flow_route_101_duration_20250327_2120.1" vType="car" speedFactor="1.05" vaporized=""/>
    <tripinfo id="flow_route_106_duration_20250327_2120.4" depart="40.00" departLane="1254519229#0_0" departPos="2.58" departSpeed="0.00" departDelay="0.00" arrival="77.00" arrivalLane="430416184_1" arrivalPos="157.41" arrivalSpeed="16.38" duration="37.00" routeLength="255.51" waitingTime="0.00" waitingCount="0" stopTime="0.00" timeLoss="20.23" rerouteNo="0" devices="tripinfo_flow_route_106_duration_20250327_2120.4" vType="car" speedFactor="0.99" vaporized=""/>
    <tripinfo id="flow_route_106_duration_20250327_2120.5" depart="50.00" departLane="1254519229#0_0" departPos="26.36" departSpeed="0.00" departDelay="0.00" arrival="81.00" arrivalLane="430416184_1" arrivalPos="198.12" arrivalSpeed="16.32" duration="31.00" routeLength="272.43" waitingTime="0.00" waitingCount="0" stopTime="0.00" timeLoss="13.18" rerouteNo="0" devices="tripinfo_flow_route_106_duration_20250327_2120.5" vType="car" speedFactor="0.94" vaporized=""/>
    <tripinfo id="flow_route_101_duration_20250327_2120.3" depart="36.00" departLane="186409193_0" departPos="23.17" departSpeed="0.00" departDelay="0.00" arrival="85.00" arrivalLane="430416184_0" arrivalPos="256.69" arrivalSpeed="16.20" duration="49.00" routeLength="368.02" waitingTime="1.00" waitingCount="1" stopTime="0.00" timeLoss="25.12" rerouteNo="0" devices="tripinfo_flow_route_101_duration_20250327_2120.3" vType="car" speedFactor="1.12" vaporized=""/>
    <tripinfo id="flow_route_101_duration_20250327_2120.4" depart="48.00" departLane="186409193_0" departPos="1.74" departSpeed="0.00" departDelay="0.00" arrival="91.00" arrivalLane="430416184_0" arrivalPos="276.64" arrivalSpeed="16.22" duration="43.00" routeLength="409.39" waitingTime="0.00" waitingCount="0" stopTime="0.00" timeLoss="15.70" rerouteNo="0" devices="tripinfo_flow_route_101_duration_20250327_2120.4" vType="car" speedFactor="0.94" vaporized=""/>
    <tripinfo id="flow_route_149_duration_20250327_2120.2" depart="30.00" departLane="186410975#0_0" departPos="212.76" departSpeed="0.00" departDelay="0.00" arrival="116.00" arrivalLane="430416184_1" arrivalPos="183.20" arrivalSpeed="16.29" duration="86.00" routeLength="516.10" waitingTime="29.00" waitingCount="1" stopTime="0.00" timeLoss="51.13" rerouteNo="0" devices="tripinfo_flow_route_149_duration_20250327_2120.2" vType="car" speedFactor="1.05" vaporized=""/>
    <tripinfo id="flow_route_149_duration_20250327_2120.1" depart="15.00" departLane="186410975#0_0" departPos="68.27" departSpeed="0.00" departDelay="0.00" arrival="117.00" arrivalLane="430416184_1" arrivalPos="163.76" arrivalSpeed="16.47" duration="102.00" routeLength="641.16" waitingTime="27.00" waitingCount="1" stopTime="0.00" timeLoss="51.42" rerouteNo="0" devices="tripinfo_flow_route_149_duration_20250327_2120.1" vType="car" speedFactor="0.89" vaporized=""/>
    <tripinfo id="flow_route_149_duration_20250327_2120.3" depart="45.00" departLane="186410975#0_0" departPos="41.07" departSpeed="0.00" departDelay="0.00" arrival="122.00" arrivalLane="430416184_1" arrivalPos="221.09" arrivalSpeed="16.18" duration="77.00" routeLength="725.69" waitingTime="0.00" waitingCount="0" stopTime="0.00" timeLoss="20.54" rerouteNo="0" devices="tripinfo_flow_route_149_duration_20250327_2120.3" vType="car" speedFactor="0.88" vaporized=""/>
</tripinfos>
