<?xml version="1.0" encoding="UTF-8"?>

<!-- generated on 2025-05-06 21:07:41 by Eclipse SUMO sumo Version 1.20.0
<configuration xmlns:xsi="http://www.w3.org/2001/XMLSchema-instance" xsi:noNamespaceSchemaLocation="http://sumo.dlr.de/xsd/sumoConfiguration.xsd">

    <input>
        <net-file value="osm.net.xml"/>
        <route-files value="xml/route_rl_cluster_2271368471_4779869278_0.rou.xml"/>
    </input>

    <output>
        <tripinfo-output value="xml/tripinfo_rl_cluster_2271368471_4779869278_0.xml"/>
    </output>

    <traci_server>
        <remote-port value="53097"/>
    </traci_server>

</configuration>
-->

<tripinfos xmlns:xsi="http://www.w3.org/2001/XMLSchema-instance" xsi:noNamespaceSchemaLocation="http://sumo.dlr.de/xsd/tripinfo_file.xsd">
    <tripinfo id="flow_route_36_duration_20250327_1940.0" depart="0.00" departLane="485211947#0_0" departPos="162.24" departSpeed="0.00" departDelay="0.00" arrival="23.00" arrivalLane="137415945#0_0" arrivalPos="6.94" arrivalSpeed="15.19" duration="23.00" routeLength="189.23" waitingTime="0.00" waitingCount="0" stopTime="0.00" timeLoss="9.94" rerouteNo="0" devices="tripinfo_flow_route_36_duration_20250327_1940.0" vType="car" speedFactor="0.94" vaporized=""/>
    <tripinfo id="flow_route_35_duration_20250327_1940.5" depart="15.00" departLane="485211947#0_0" departPos="181.00" departSpeed="0.00" departDelay="3.47" arrival="26.00" arrivalLane="1369578054_0" arrivalPos="25.77" arrivalSpeed="7.89" duration="11.00" routeLength="42.24" waitingTime="0.00" waitingCount="0" stopTime="0.00" timeLoss="7.30" rerouteNo="0" devices="tripinfo_flow_route_35_duration_20250327_1940.5" vType="car" speedFactor="1.01" vaporized=""/>
    <tripinfo id="flow_route_36_duration_20250327_1940.3" depart="9.00" departLane="485211947#0_0" departPos="176.93" departSpeed="0.00" departDelay="0.82" arrival="31.00" arrivalLane="137415945#0_0" arrivalPos="12.22" arrivalSpeed="14.55" duration="22.00" routeLength="179.82" waitingTime="0.00" waitingCount="0" stopTime="0.00" timeLoss="9.07" rerouteNo="0" devices="tripinfo_flow_route_36_duration_20250327_1940.3" vType="car" speedFactor="0.87" vaporized=""/>
    <tripinfo id="flow_route_37_duration_20250327_1940.0" depart="0.00" departLane="485211947#0_0" departPos="59.66" departSpeed="0.00" departDelay="0.00" arrival="33.00" arrivalLane="-430406005#1_1" arrivalPos="133.07" arrivalSpeed="16.05" duration="33.00" routeLength="286.39" waitingTime="0.00" waitingCount="0" stopTime="0.00" timeLoss="12.84" rerouteNo="0" devices="tripinfo_flow_route_37_duration_20250327_1940.0" vType="car" speedFactor="0.86" vaporized=""/>
    <tripinfo id="flow_route_36_duration_20250327_1940.2" depart="7.00" departLane="485211947#0_0" departPos="105.91" departSpeed="0.00" departDelay="1.55" arrival="33.00" arrivalLane="137415945#0_1" arrivalPos="1.65" arrivalSpeed="15.17" duration="26.00" routeLength="240.26" waitingTime="0.00" waitingCount="0" stopTime="0.00" timeLoss="10.24" rerouteNo="0" devices="tripinfo_flow_route_36_duration_20250327_1940.2" vType="car" speedFactor="0.94" vaporized=""/>
    <tripinfo id="flow_route_35_duration_20250327_1940.3" depart="8.00" departLane="485211947#0_0" departPos="132.59" departSpeed="0.00" departDelay="1.08" arrival="33.00" arrivalLane="1369578054_0" arrivalPos="79.13" arrivalSpeed="11.83" duration="25.00" routeLength="144.00" waitingTime="0.00" waitingCount="0" stopTime="0.00" timeLoss="15.69" rerouteNo="0" devices="tripinfo_flow_route_35_duration_20250327_1940.3" vType="car" speedFactor="1.16" vaporized=""/>
    <tripinfo id="flow_route_36_duration_20250327_1940.1" depart="4.00" departLane="485211947#0_0" departPos="6.01" departSpeed="0.00" departDelay="1.27" arrival="36.00" arrivalLane="137415945#0_1" arrivalPos="11.95" arrivalSpeed="16.38" duration="32.00" routeLength="350.48" waitingTime="0.00" waitingCount="0" stopTime="0.00" timeLoss="10.41" rerouteNo="0" devices="tripinfo_flow_route_36_duration_20250327_1940.1" vType="car" speedFactor="1.05" vaporized=""/>
    <tripinfo id="flow_route_35_duration_20250327_1940.0" depart="0.00" departLane="485211947#0_0" departPos="11.17" departSpeed="0.00" departDelay="0.00" arrival="39.00" arrivalLane="1369578054_0" arrivalPos="74.16" arrivalSpeed="13.23" duration="39.00" routeLength="260.46" waitingTime="0.00" waitingCount="0" stopTime="0.00" timeLoss="19.57" rerouteNo="0" devices="tripinfo_flow_route_35_duration_20250327_1940.0" vType="car" speedFactor="0.89" vaporized=""/>
    <tripinfo id="flow_route_35_duration_20250327_1940.1" depart="4.00" departLane="485211947#0_0" departPos="43.86" departSpeed="0.00" departDelay="1.69" arrival="44.00" arrivalLane="1369578054_1" arrivalPos="189.81" arrivalSpeed="15.86" duration="40.00" routeLength="343.41" waitingTime="0.00" waitingCount="0" stopTime="0.00" timeLoss="18.02" rerouteNo="0" devices="tripinfo_flow_route_35_duration_20250327_1940.1" vType="car" speedFactor="1.03" vaporized=""/>
    <tripinfo id="flow_route_35_duration_20250327_1940.2" depart="6.00" departLane="485211947#0_0" departPos="76.22" departSpeed="0.00" departDelay="1.39" arrival="45.00" arrivalLane="1369578054_0" arrivalPos="229.08" arrivalSpeed="15.10" duration="39.00" routeLength="350.32" waitingTime="0.00" waitingCount="0" stopTime="0.00" timeLoss="15.07" rerouteNo="0" devices="tripinfo_flow_route_35_duration_20250327_1940.2" vType="car" speedFactor="0.93" vaporized=""/>
    <tripinfo id="flow_route_36_duration_20250327_1940.4" depart="12.00" departLane="485211947#0_0" departPos="8.68" departSpeed="0.00" departDelay="1.09" arrival="46.00" arrivalLane="137415945#0_1" arrivalPos="11.81" arrivalSpeed="15.13" duration="34.00" routeLength="347.67" waitingTime="0.00" waitingCount="0" stopTime="0.00" timeLoss="11.41" rerouteNo="0" devices="tripinfo_flow_route_36_duration_20250327_1940.4" vType="car" speedFactor="0.93" vaporized=""/>
    <tripinfo id="flow_route_30_duration_20250327_1940.0" depart="0.00" departLane="1235147073.116_0" departPos="7.14" departSpeed="0.00" departDelay="0.00" arrival="47.00" arrivalLane="133126030#0_0" arrivalPos="8.43" arrivalSpeed="7.26" duration="47.00" routeLength="175.81" waitingTime="16.00" waitingCount="1" stopTime="0.00" timeLoss="36.20" rerouteNo="0" devices="tripinfo_flow_route_30_duration_20250327_1940.0" vType="car" speedFactor="1.01" vaporized=""/>
    <tripinfo id="flow_route_30_duration_20250327_1940.1" depart="19.00" departLane="1235147073.116_0" departPos="4.31" departSpeed="0.00" departDelay="13.00" arrival="49.00" arrivalLane="133126030#0_1" arrivalPos="126.94" arrivalSpeed="14.64" duration="30.00" routeLength="297.15" waitingTime="0.00" waitingCount="0" stopTime="0.00" timeLoss="9.37" rerouteNo="0" devices="tripinfo_flow_route_30_duration_20250327_1940.1" vType="car" speedFactor="0.88" vaporized=""/>
    <tripinfo id="flow_route_31_duration_20250327_1940.0" depart="2.00" departLane="1235147073.116_0" departPos="0.71" departSpeed="0.00" departDelay="2.00" arrival="56.00" arrivalLane="-430406005#1_0" arrivalPos="87.77" arrivalSpeed="13.02" duration="54.00" routeLength="250.02" waitingTime="14.00" waitingCount="1" stopTime="0.00" timeLoss="37.52" rerouteNo="0" devices="tripinfo_flow_route_31_duration_20250327_1940.0" vType="car" speedFactor="1.08" vaporized=""/>
    <tripinfo id="flow_route_32_duration_20250327_1940.1" depart="11.00" departLane="1235147073.116_0" departPos="1.03" departSpeed="0.00" departDelay="8.39" arrival="57.00" arrivalLane="1369578054_1" arrivalPos="92.01" arrivalSpeed="13.63" duration="46.00" routeLength="270.71" waitingTime="6.00" waitingCount="1" stopTime="0.00" timeLoss="28.81" rerouteNo="0" devices="tripinfo_flow_route_32_duration_20250327_1940.1" vType="car" speedFactor="1.09" vaporized=""/>
    <tripinfo id="flow_route_31_duration_20250327_1940.1" depart="15.00" departLane="1235147073.116_0" departPos="6.39" departSpeed="0.00" departDelay="11.25" arrival="57.00" arrivalLane="-430406005#1_0" arrivalPos="70.82" arrivalSpeed="11.41" duration="42.00" routeLength="227.40" waitingTime="5.00" waitingCount="1" stopTime="0.00" timeLoss="27.12" rerouteNo="0" devices="tripinfo_flow_route_31_duration_20250327_1940.1" vType="car" speedFactor="1.12" vaporized=""/>
    <tripinfo id="flow_route_32_duration_20250327_1940.2" depart="25.00" departLane="1235147073.116_0" departPos="10.08" departSpeed="0.00" departDelay="19.78" arrival="59.00" arrivalLane="1369578054_1" arrivalPos="99.27" arrivalSpeed="14.25" duration="34.00" routeLength="268.92" waitingTime="0.00" waitingCount="0" stopTime="0.00" timeLoss="16.04" rerouteNo="0" devices="tripinfo_flow_route_32_duration_20250327_1940.2" vType="car" speedFactor="0.94" vaporized=""/>
    <tripinfo id="flow_route_32_duration_20250327_1940.3" depart="32.00" departLane="1235147073.116_0" departPos="3.38" departSpeed="0.00" departDelay="24.18" arrival="60.00" arrivalLane="1369578054_1" arrivalPos="26.67" arrivalSpeed="11.04" duration="28.00" routeLength="203.03" waitingTime="0.00" waitingCount="0" stopTime="0.00" timeLoss="14.34" rerouteNo="0" devices="tripinfo_flow_route_32_duration_20250327_1940.3" vType="car" speedFactor="1.01" vaporized=""/>
    <tripinfo id="flow_route_32_duration_20250327_1940.0" depart="7.00" departLane="1235147073.116_0" departPos="3.42" departSpeed="0.00" departDelay="7.00" arrival="61.00" arrivalLane="1369578054_1" arrivalPos="176.77" arrivalSpeed="16.56" duration="54.00" routeLength="353.09" waitingTime="7.00" waitingCount="1" stopTime="0.00" timeLoss="31.53" rerouteNo="0" devices="tripinfo_flow_route_32_duration_20250327_1940.0" vType="car" speedFactor="1.03" vaporized=""/>
    <tripinfo id="flow_route_31_duration_20250327_1940.2" depart="28.00" departLane="1235147073.116_0" departPos="6.81" departSpeed="0.00" departDelay="20.50" arrival="64.00" arrivalLane="-430406005#1_0" arrivalPos="144.96" arrivalSpeed="15.98" duration="36.00" routeLength="301.11" waitingTime="0.00" waitingCount="0" stopTime="0.00" timeLoss="16.41" rerouteNo="0" devices="tripinfo_flow_route_31_duration_20250327_1940.2" vType="car" speedFactor="1.02" vaporized=""/>
    <tripinfo id="flow_route_30_duration_20250327_1940.2" depart="38.00" departLane="1235147073.116_0" departPos="4.05" departSpeed="0.00" departDelay="26.00" arrival="64.00" arrivalLane="133126030#0_1" arrivalPos="58.16" arrivalSpeed="16.27" duration="26.00" routeLength="228.63" waitingTime="0.00" waitingCount="0" stopTime="0.00" timeLoss="11.86" rerouteNo="0" devices="tripinfo_flow_route_30_duration_20250327_1940.2" vType="car" speedFactor="1.18" vaporized=""/>
    <tripinfo id="flow_route_31_duration_20250327_1940.3" depart="39.00" departLane="1235147073.116_0" departPos="5.60" departSpeed="0.00" departDelay="27.75" arrival="66.00" arrivalLane="-430406005#1_0" arrivalPos="60.54" arrivalSpeed="13.12" duration="27.00" routeLength="217.91" waitingTime="0.00" waitingCount="0" stopTime="0.00" timeLoss="12.81" rerouteNo="0" devices="tripinfo_flow_route_31_duration_20250327_1940.3" vType="car" speedFactor="1.15" vaporized=""/>
    <tripinfo id="flow_route_32_duration_20250327_1940.4" depart="35.00" departLane="1235147073.116_0" departPos="12.14" departSpeed="0.00" departDelay="24.57" arrival="74.00" arrivalLane="1369578054_1" arrivalPos="163.83" arrivalSpeed="16.16" duration="39.00" routeLength="331.43" waitingTime="0.00" waitingCount="0" stopTime="0.00" timeLoss="17.62" rerouteNo="0" devices="tripinfo_flow_route_32_duration_20250327_1940.4" vType="car" speedFactor="1.13" vaporized=""/>
    <tripinfo id="flow_route_31_duration_20250327_1940.4" depart="46.00" departLane="1235147073.116_0" departPos="11.33" departSpeed="0.00" departDelay="31.00" arrival="77.00" arrivalLane="-430406005#1_0" arrivalPos="104.48" arrivalSpeed="15.21" duration="31.00" routeLength="256.11" waitingTime="0.00" waitingCount="0" stopTime="0.00" timeLoss="14.55" rerouteNo="0" devices="tripinfo_flow_route_31_duration_20250327_1940.4" vType="car" speedFactor="1.10" vaporized=""/>
    <tripinfo id="flow_route_32_duration_20250327_1940.5" depart="43.00" departLane="1235147073.116_0" departPos="2.35" departSpeed="0.00" departDelay="29.96" arrival="82.00" arrivalLane="1369578054_1" arrivalPos="203.36" arrivalSpeed="16.38" duration="39.00" routeLength="380.74" waitingTime="0.00" waitingCount="0" stopTime="0.00" timeLoss="14.52" rerouteNo="0" devices="tripinfo_flow_route_32_duration_20250327_1940.5" vType="car" speedFactor="1.02" vaporized=""/>
    <tripinfo id="flow_route_33_duration_20250327_1940.0" depart="0.00" departLane="133126008#0_0" departPos="101.07" departSpeed="0.00" departDelay="0.00" arrival="85.00" arrivalLane="1369578054_0" arrivalPos="13.07" arrivalSpeed="8.58" duration="85.00" routeLength="125.36" waitingTime="58.00" waitingCount="1" stopTime="0.00" timeLoss="76.61" rerouteNo="0" devices="tripinfo_flow_route_33_duration_20250327_1940.0" vType="car" speedFactor="0.83" vaporized=""/>
    <tripinfo id="flow_route_34_duration_20250327_1940.2" depart="22.00" departLane="133126008#0_0" departPos="152.88" departSpeed="0.00" departDelay="2.00" arrival="88.00" arrivalLane="133126030#0_0" arrivalPos="26.15" arrivalSpeed="7.91" duration="66.00" routeLength="60.80" waitingTime="47.00" waitingCount="1" stopTime="0.00" timeLoss="60.33" rerouteNo="0" devices="tripinfo_flow_route_34_duration_20250327_1940.2" vType="car" speedFactor="0.85" vaporized=""/>
    <tripinfo id="flow_route_34_duration_20250327_1940.1" depart="10.00" departLane="133126008#0_0" departPos="4.97" departSpeed="0.00" departDelay="0.00" arrival="91.00" arrivalLane="133126030#0_0" arrivalPos="33.97" arrivalSpeed="9.43" duration="81.00" routeLength="216.53" waitingTime="45.00" waitingCount="1" stopTime="0.00" timeLoss="66.75" rerouteNo="0" devices="tripinfo_flow_route_34_duration_20250327_1940.1" vType="car" speedFactor="0.92" vaporized=""/>
    <tripinfo id="flow_route_29_duration_20250327_1940.1" depart="5.00" departLane="-422986370#2_0" departPos="286.55" departSpeed="0.00" departDelay="0.72" arrival="93.00" arrivalLane="137415945#0_0" arrivalPos="3.84" arrivalSpeed="15.06" duration="88.00" routeLength="163.11" waitingTime="62.00" waitingCount="1" stopTime="0.00" timeLoss="76.97" rerouteNo="0" devices="tripinfo_flow_route_29_duration_20250327_1940.1" vType="car" speedFactor="0.99" vaporized=""/>
    <tripinfo id="flow_route_33_duration_20250327_1940.2" depart="18.00" departLane="133126008#0_0" departPos="18.12" departSpeed="0.00" departDelay="0.86" arrival="93.00" arrivalLane="1369578054_1" arrivalPos="88.79" arrivalSpeed="14.22" duration="75.00" routeLength="284.03" waitingTime="34.00" waitingCount="1" stopTime="0.00" timeLoss="57.49" rerouteNo="0" devices="tripinfo_flow_route_33_duration_20250327_1940.2" vType="car" speedFactor="1.09" vaporized=""/>
    <tripinfo id="flow_route_28_duration_20250327_1940.4" depart="35.00" departLane="-422986370#2_0" departPos="57.09" departSpeed="0.00" departDelay="0.72" arrival="93.00" arrivalLane="-430406005#1_1" arrivalPos="1.31" arrivalSpeed="9.74" duration="58.00" routeLength="278.65" waitingTime="17.00" waitingCount="1" stopTime="0.00" timeLoss="41.20" rerouteNo="0" devices="tripinfo_flow_route_28_duration_20250327_1940.4" vType="car" speedFactor="1.00" vaporized=""/>
    <tripinfo id="flow_route_34_duration_20250327_1940.0" depart="0.00" departLane="133126008#0_0" departPos="47.21" departSpeed="0.00" departDelay="0.00" arrival="94.00" arrivalLane="133126030#0_0" arrivalPos="137.72" arrivalSpeed="14.64" duration="94.00" routeLength="278.03" waitingTime="55.00" waitingCount="1" stopTime="0.00" timeLoss="76.24" rerouteNo="0" devices="tripinfo_flow_route_34_duration_20250327_1940.0" vType="car" speedFactor="1.05" vaporized=""/>
    <tripinfo id="flow_route_32_duration_20250327_1940.6" depart="49.00" departLane="1235147073.116_0" departPos="5.01" departSpeed="0.00" departDelay="33.35" arrival="94.00" arrivalLane="1369578054_1" arrivalPos="262.35" arrivalSpeed="14.96" duration="45.00" routeLength="437.06" waitingTime="0.00" waitingCount="0" stopTime="0.00" timeLoss="14.54" rerouteNo="0" devices="tripinfo_flow_route_32_duration_20250327_1940.6" vType="car" speedFactor="0.90" vaporized=""/>
    <tripinfo id="flow_route_33_duration_20250327_1940.4" depart="35.00" departLane="133126008#0_0" departPos="70.40" departSpeed="0.00" departDelay="0.72" arrival="94.00" arrivalLane="1369578054_0" arrivalPos="25.49" arrivalSpeed="11.63" duration="59.00" routeLength="168.45" waitingTime="26.00" waitingCount="1" stopTime="0.00" timeLoss="48.56" rerouteNo="0" devices="tripinfo_flow_route_33_duration_20250327_1940.4" vType="car" speedFactor="0.97" vaporized=""/>
    <tripinfo id="flow_route_34_duration_20250327_1940.4" depart="40.00" departLane="133126008#0_0" departPos="50.82" departSpeed="0.00" departDelay="0.00" arrival="94.00" arrivalLane="133126030#0_0" arrivalPos="5.84" arrivalSpeed="7.84" duration="54.00" routeLength="142.54" waitingTime="23.00" waitingCount="1" stopTime="0.00" timeLoss="44.69" rerouteNo="0" devices="tripinfo_flow_route_34_duration_20250327_1940.4" vType="car" speedFactor="1.09" vaporized=""/>
    <tripinfo id="flow_route_28_duration_20250327_1940.1" depart="9.00" departLane="-422986370#2_0" departPos="147.55" departSpeed="0.00" departDelay="0.43" arrival="95.00" arrivalLane="-430406005#1_1" arrivalPos="106.48" arrivalSpeed="14.06" duration="86.00" routeLength="293.36" waitingTime="41.00" waitingCount="1" stopTime="0.00" timeLoss="67.93" rerouteNo="0" devices="tripinfo_flow_route_28_duration_20250327_1940.1" vType="car" speedFactor="0.97" vaporized=""/>
    <tripinfo id="flow_route_28_duration_20250327_1940.6" depart="53.00" departLane="-422986370#2_0" departPos="78.28" departSpeed="0.00" departDelay="1.57" arrival="95.00" arrivalLane="-430406005#1_1" arrivalPos="1.40" arrivalSpeed="10.49" duration="42.00" routeLength="257.55" waitingTime="3.00" waitingCount="1" stopTime="0.00" timeLoss="25.55" rerouteNo="0" devices="tripinfo_flow_route_28_duration_20250327_1940.6" vType="car" speedFactor="0.94" vaporized=""/>
    <tripinfo id="flow_route_29_duration_20250327_1940.0" depart="0.00" departLane="-422986370#2_0" departPos="201.60" departSpeed="0.00" departDelay="0.00" arrival="96.00" arrivalLane="137415945#0_0" arrivalPos="9.07" arrivalSpeed="15.48" duration="96.00" routeLength="253.29" waitingTime="56.00" waitingCount="1" stopTime="0.00" timeLoss="78.36" rerouteNo="0" devices="tripinfo_flow_route_29_duration_20250327_1940.0" vType="car" speedFactor="0.94" vaporized=""/>
    <tripinfo id="flow_route_34_duration_20250327_1940.3" depart="31.00" departLane="133126008#0_0" departPos="42.55" departSpeed="0.00" departDelay="1.00" arrival="96.00" arrivalLane="133126030#0_0" arrivalPos="41.87" arrivalSpeed="9.89" duration="65.00" routeLength="186.84" waitingTime="25.00" waitingCount="1" stopTime="0.00" timeLoss="52.99" rerouteNo="0" devices="tripinfo_flow_route_34_duration_20250327_1940.3" vType="car" speedFactor="1.06" vaporized=""/>
    <tripinfo id="flow_route_34_duration_20250327_1940.5" depart="50.00" departLane="133126008#0_0" departPos="57.39" departSpeed="0.00" departDelay="0.00" arrival="96.00" arrivalLane="133126030#0_0" arrivalPos="3.04" arrivalSpeed="6.27" duration="46.00" routeLength="133.17" waitingTime="15.00" waitingCount="1" stopTime="0.00" timeLoss="36.76" rerouteNo="0" devices="tripinfo_flow_route_34_duration_20250327_1940.5" vType="car" speedFactor="1.00" vaporized=""/>
    <tripinfo id="flow_route_28_duration_20250327_1940.0" depart="0.00" departLane="-422986370#2_0" departPos="1.81" departSpeed="0.00" departDelay="0.00" arrival="97.00" arrivalLane="-430406005#1_1" arrivalPos="159.13" arrivalSpeed="16.33" duration="97.00" routeLength="491.75" waitingTime="42.00" waitingCount="1" stopTime="0.00" timeLoss="66.46" rerouteNo="0" devices="tripinfo_flow_route_28_duration_20250327_1940.0" vType="car" speedFactor="1.06" vaporized=""/>
    <tripinfo id="flow_route_29_duration_20250327_1940.3" depart="14.00" departLane="-422986370#2_0" departPos="247.29" departSpeed="0.00" departDelay="1.15" arrival="97.00" arrivalLane="137415945#0_0" arrivalPos="9.19" arrivalSpeed="15.62" duration="83.00" routeLength="207.72" waitingTime="50.00" waitingCount="1" stopTime="0.00" timeLoss="69.39" rerouteNo="0" devices="tripinfo_flow_route_29_duration_20250327_1940.3" vType="car" speedFactor="0.99" vaporized=""/>
    <tripinfo id="flow_route_28_duration_20250327_1940.3" depart="26.00" departLane="-422986370#2_0" departPos="146.01" departSpeed="0.00" departDelay="0.29" arrival="97.00" arrivalLane="-430406005#1_1" arrivalPos="86.87" arrivalSpeed="13.72" duration="71.00" routeLength="275.28" waitingTime="29.00" waitingCount="1" stopTime="0.00" timeLoss="54.15" rerouteNo="0" devices="tripinfo_flow_route_28_duration_20250327_1940.3" vType="car" speedFactor="1.12" vaporized=""/>
    <tripinfo id="flow_route_28_duration_20250327_1940.5" depart="43.00" departLane="-422986370#2_0" departPos="195.63" departSpeed="0.00" departDelay="0.15" arrival="97.00" arrivalLane="-430406005#1_1" arrivalPos="60.97" arrivalSpeed="12.68" duration="54.00" routeLength="199.77" waitingTime="18.00" waitingCount="1" stopTime="0.00" timeLoss="41.34" rerouteNo="0" devices="tripinfo_flow_route_28_duration_20250327_1940.5" vType="car" speedFactor="0.96" vaporized=""/>
    <tripinfo id="flow_route_33_duration_20250327_1940.5" depart="44.00" departLane="133126008#0_0" departPos="131.96" departSpeed="0.00" departDelay="1.15" arrival="97.00" arrivalLane="1369578054_1" arrivalPos="87.93" arrivalSpeed="14.53" duration="53.00" routeLength="169.33" waitingTime="23.00" waitingCount="1" stopTime="0.00" timeLoss="42.49" rerouteNo="0" devices="tripinfo_flow_route_33_duration_20250327_1940.5" vType="car" speedFactor="0.95" vaporized=""/>
    <tripinfo id="flow_route_33_duration_20250327_1940.3" depart="27.00" departLane="133126008#0_0" departPos="79.70" departSpeed="0.00" departDelay="1.29" arrival="98.00" arrivalLane="1369578054_1" arrivalPos="123.41" arrivalSpeed="16.28" duration="71.00" routeLength="257.07" waitingTime="32.00" waitingCount="1" stopTime="0.00" timeLoss="54.72" rerouteNo="0" devices="tripinfo_flow_route_33_duration_20250327_1940.3" vType="car" speedFactor="0.99" vaporized=""/>
    <tripinfo id="flow_route_28_duration_20250327_1940.2" depart="20.00" departLane="-422986370#2_0" departPos="117.02" departSpeed="0.00" departDelay="2.86" arrival="100.00" arrivalLane="-430406005#1_1" arrivalPos="156.06" arrivalSpeed="16.54" duration="80.00" routeLength="373.46" waitingTime="32.00" waitingCount="1" stopTime="0.00" timeLoss="57.10" rerouteNo="0" devices="tripinfo_flow_route_28_duration_20250327_1940.2" vType="car" speedFactor="1.09" vaporized=""/>
    <tripinfo id="flow_route_29_duration_20250327_1940.2" depart="9.00" departLane="-422986370#2_0" departPos="173.76" departSpeed="0.00" departDelay="0.43" arrival="101.00" arrivalLane="137415945#0_0" arrivalPos="8.80" arrivalSpeed="14.76" duration="92.00" routeLength="280.86" waitingTime="47.00" waitingCount="1" stopTime="0.00" timeLoss="71.42" rerouteNo="0" devices="tripinfo_flow_route_29_duration_20250327_1940.2" vType="car" speedFactor="0.89" vaporized=""/>
    <tripinfo id="flow_route_29_duration_20250327_1940.4" depart="22.00" departLane="-422986370#2_0" departPos="171.74" departSpeed="0.00" departDelay="4.86" arrival="103.00" arrivalLane="137415945#0_0" arrivalPos="7.30" arrivalSpeed="16.12" duration="81.00" routeLength="281.38" waitingTime="38.00" waitingCount="1" stopTime="0.00" timeLoss="62.12" rerouteNo="0" devices="tripinfo_flow_route_29_duration_20250327_1940.4" vType="car" speedFactor="1.04" vaporized=""/>
    <tripinfo id="flow_route_33_duration_20250327_1940.1" depart="9.00" departLane="133126008#0_0" departPos="30.06" departSpeed="0.00" departDelay="0.43" arrival="105.00" arrivalLane="1369578054_0" arrivalPos="280.18" arrivalSpeed="13.74" duration="96.00" routeLength="463.48" waitingTime="42.00" waitingCount="1" stopTime="0.00" timeLoss="63.90" rerouteNo="0" devices="tripinfo_flow_route_33_duration_20250327_1940.1" vType="car" speedFactor="0.83" vaporized=""/>
    <tripinfo id="flow_route_29_duration_20250327_1940.8" depart="38.00" departLane="-422986370#2_0" departPos="248.09" departSpeed="0.00" departDelay="3.72" arrival="105.00" arrivalLane="137415945#0_0" arrivalPos="7.49" arrivalSpeed="16.53" duration="67.00" routeLength="205.22" waitingTime="33.00" waitingCount="1" stopTime="0.00" timeLoss="52.71" rerouteNo="0" devices="tripinfo_flow_route_29_duration_20250327_1940.8" vType="car" speedFactor="1.02" vaporized=""/>
    <tripinfo id="flow_route_29_duration_20250327_1940.5" depart="24.00" departLane="-422986370#2_0" departPos="101.50" departSpeed="0.00" departDelay="2.58" arrival="107.00" arrivalLane="137415945#0_0" arrivalPos="7.50" arrivalSpeed="15.39" duration="83.00" routeLength="351.81" waitingTime="33.00" waitingCount="1" stopTime="0.00" timeLoss="60.29" rerouteNo="0" devices="tripinfo_flow_route_29_duration_20250327_1940.5" vType="car" speedFactor="1.10" vaporized=""/>
    <tripinfo id="flow_route_29_duration_20250327_1940.11" depart="49.00" departLane="-422986370#2_0" departPos="236.64" departSpeed="0.00" departDelay="1.87" arrival="110.00" arrivalLane="137415945#0_0" arrivalPos="3.06" arrivalSpeed="13.96" duration="61.00" routeLength="212.24" waitingTime="27.00" waitingCount="1" stopTime="0.00" timeLoss="45.30" rerouteNo="0" devices="tripinfo_flow_route_29_duration_20250327_1940.11" vType="car" speedFactor="0.87" vaporized=""/>
    <tripinfo id="flow_route_33_duration_20250327_1940.6" depart="54.00" departLane="133126008#0_0" departPos="36.18" departSpeed="0.00" departDelay="2.57" arrival="110.00" arrivalLane="1369578054_1" arrivalPos="256.29" arrivalSpeed="16.29" duration="56.00" routeLength="433.46" waitingTime="4.00" waitingCount="1" stopTime="0.00" timeLoss="29.12" rerouteNo="0" devices="tripinfo_flow_route_33_duration_20250327_1940.6" vType="car" speedFactor="1.03" vaporized=""/>
    <tripinfo id="flow_route_29_duration_20250327_1940.9" depart="39.00" departLane="-422986370#2_0" departPos="172.39" departSpeed="0.00" departDelay="0.44" arrival="113.00" arrivalLane="137415945#0_0" arrivalPos="3.94" arrivalSpeed="14.47" duration="74.00" routeLength="277.37" waitingTime="25.00" waitingCount="1" stopTime="0.00" timeLoss="53.71" rerouteNo="0" devices="tripinfo_flow_route_29_duration_20250327_1940.9" vType="car" speedFactor="0.89" vaporized=""/>
    <tripinfo id="flow_route_29_duration_20250327_1940.7" depart="30.00" departLane="-422986370#2_0" departPos="75.04" departSpeed="0.00" departDelay="0.01" arrival="115.00" arrivalLane="137415945#0_0" arrivalPos="10.05" arrivalSpeed="14.71" duration="85.00" routeLength="380.83" waitingTime="25.00" waitingCount="1" stopTime="0.00" timeLoss="61.23" rerouteNo="0" devices="tripinfo_flow_route_29_duration_20250327_1940.7" vType="car" speedFactor="1.02" vaporized=""/>
    <tripinfo id="flow_route_29_duration_20250327_1940.6" depart="27.00" departLane="-422986370#2_0" departPos="45.93" departSpeed="0.00" departDelay="1.29" arrival="118.00" arrivalLane="137415945#0_0" arrivalPos="11.57" arrivalSpeed="15.62" duration="91.00" routeLength="411.46" waitingTime="23.00" waitingCount="1" stopTime="0.00" timeLoss="64.21" rerouteNo="0" devices="tripinfo_flow_route_29_duration_20250327_1940.6" vType="car" speedFactor="1.02" vaporized=""/>
    <tripinfo id="flow_route_29_duration_20250327_1940.10" depart="43.00" departLane="-422986370#2_0" departPos="72.34" departSpeed="0.00" departDelay="0.15" arrival="120.00" arrivalLane="137415945#0_0" arrivalPos="11.30" arrivalSpeed="15.66" duration="77.00" routeLength="384.78" waitingTime="23.00" waitingCount="1" stopTime="0.00" timeLoss="51.17" rerouteNo="0" devices="tripinfo_flow_route_29_duration_20250327_1940.10" vType="car" speedFactor="0.97" vaporized=""/>
    <tripinfo id="flow_route_29_duration_20250327_1940.13" depart="57.00" departLane="-422986370#2_0" departPos="128.73" departSpeed="0.00" departDelay="1.30" arrival="121.00" arrivalLane="137415945#0_0" arrivalPos="0.77" arrivalSpeed="15.50" duration="64.00" routeLength="317.85" waitingTime="14.00" waitingCount="1" stopTime="0.00" timeLoss="43.52" rerouteNo="0" devices="tripinfo_flow_route_29_duration_20250327_1940.13" vType="car" speedFactor="1.03" vaporized=""/>
    <tripinfo id="flow_route_35_duration_20250327_1940.9" depart="26.00" departLane="485211947#0_0" departPos="151.82" departSpeed="0.00" departDelay="5.24" arrival="122.00" arrivalLane="1369578054_0" arrivalPos="46.01" arrivalSpeed="9.33" duration="96.00" routeLength="91.66" waitingTime="75.00" waitingCount="1" stopTime="0.00" timeLoss="89.62" rerouteNo="0" devices="tripinfo_flow_route_35_duration_20250327_1940.9" vType="car" speedFactor="1.02" vaporized=""/>
    <tripinfo id="flow_route_37_duration_20250327_1940.3" depart="54.00" departLane="485211947#0_0" departPos="94.97" departSpeed="0.00" departDelay="18.00" arrival="124.00" arrivalLane="-430406005#1_1" arrivalPos="2.08" arrivalSpeed="8.90" duration="70.00" routeLength="120.09" waitingTime="40.00" waitingCount="2" stopTime="0.00" timeLoss="61.52" rerouteNo="0" devices="tripinfo_flow_route_37_duration_20250327_1940.3" vType="car" speedFactor="1.04" vaporized=""/>
    <tripinfo id="flow_route_37_duration_20250327_1940.1" depart="15.00" departLane="485211947#0_0" departPos="4.42" departSpeed="0.00" departDelay="3.00" arrival="128.00" arrivalLane="-430406005#1_1" arrivalPos="101.29" arrivalSpeed="14.28" duration="113.00" routeLength="309.85" waitingTime="71.00" waitingCount="1" stopTime="0.00" timeLoss="93.27" rerouteNo="0" devices="tripinfo_flow_route_37_duration_20250327_1940.1" vType="car" speedFactor="1.17" vaporized=""/>