<?xml version="1.0" encoding="UTF-8"?>

<!-- generated on 2025-05-06 21:09:15 by Eclipse SUMO sumo Version 1.20.0
<configuration xmlns:xsi="http://www.w3.org/2001/XMLSchema-instance" xsi:noNamespaceSchemaLocation="http://sumo.dlr.de/xsd/sumoConfiguration.xsd">

    <input>
        <net-file value="osm.net.xml"/>
        <route-files value="xml/route_static_cluster10852700972_12154751993_9.rou.xml"/>
    </input>

    <output>
        <tripinfo-output value="xml/tripinfo_static_cluster10852700972_12154751993_9.xml"/>
    </output>

    <traci_server>
        <remote-port value="50845"/>
    </traci_server>

</configuration>
-->

<tripinfos xmlns:xsi="http://www.w3.org/2001/XMLSchema-instance" xsi:noNamespaceSchemaLocation="http://sumo.dlr.de/xsd/tripinfo_file.xsd">
    <tripinfo id="flow_route_61_duration_20250327_2000.0" depart="0.00" departLane="186407684#0_0" departPos="65.67" departSpeed="0.00" departDelay="0.00" arrival="24.00" arrivalLane="1341093416#0_1" arrivalPos="161.76" arrivalSpeed="16.47" duration="24.00" routeLength="210.27" waitingTime="0.00" waitingCount="0" stopTime="0.00" timeLoss="10.14" rerouteNo="0" devices="tripinfo_flow_route_61_duration_20250327_2000.0" vType="car" speedFactor="1.03" vaporized=""/>
    <tripinfo id="flow_route_60_duration_20250327_2000.0" depart="0.00" departLane="186407684#0_0" departPos="48.06" departSpeed="0.00" departDelay="0.00" arrival="25.00" arrivalLane="791826085_0" arrivalPos="160.28" arrivalSpeed="16.38" duration="25.00" routeLength="221.15" waitingTime="0.00" waitingCount="0" stopTime="0.00" timeLoss="11.09" rerouteNo="0" devices="tripinfo_flow_route_60_duration_20250327_2000.0" vType="car" speedFactor="1.08" vaporized=""/>
    <tripinfo id="flow_route_60_duration_20250327_2000.1" depart="12.00" departLane="186407684#0_0" departPos="60.25" departSpeed="0.00" departDelay="0.00" arrival="32.00" arrivalLane="791826085_0" arrivalPos="105.00" arrivalSpeed="13.94" duration="20.00" routeLength="153.69" waitingTime="0.00" waitingCount="0" stopTime="0.00" timeLoss="8.85" rerouteNo="0" devices="tripinfo_flow_route_60_duration_20250327_2000.1" vType="car" speedFactor="0.86" vaporized=""/>
    <tripinfo id="flow_route_61_duration_20250327_2000.1" depart="10.00" departLane="186407684#0_0" departPos="23.31" departSpeed="0.00" departDelay="0.00" arrival="34.00" arrivalLane="1341093416#0_1" arrivalPos="123.96" arrivalSpeed="16.14" duration="24.00" routeLength="214.83" waitingTime="0.00" waitingCount="0" stopTime="0.00" timeLoss="9.27" rerouteNo="0" devices="tripinfo_flow_route_61_duration_20250327_2000.1" vType="car" speedFactor="0.89" vaporized=""/>
    <tripinfo id="flow_route_54_duration_20250327_2000.1" depart="16.00" departLane="1341093415#0_0" departPos="54.73" departSpeed="0.00" departDelay="1.00" arrival="37.00" arrivalLane="1341093416#0_2" arrivalPos="12.67" arrivalSpeed="15.44" duration="21.00" routeLength="164.76" waitingTime="0.00" waitingCount="0" stopTime="0.00" timeLoss="10.51" rerouteNo="0" devices="tripinfo_flow_route_54_duration_20250327_2000.1" vType="car" speedFactor="1.09" vaporized=""/>
    <tripinfo id="flow_route_56_duration_20250327_2000.0" depart="0.00" departLane="1341093415#0_0" departPos="44.11" departSpeed="0.00" departDelay="0.00" arrival="39.00" arrivalLane="409155823_0" arrivalPos="4.00" arrivalSpeed="6.36" duration="39.00" routeLength="164.73" waitingTime="11.00" waitingCount="1" stopTime="0.00" timeLoss="28.24" rerouteNo="0" devices="tripinfo_flow_route_56_duration_20250327_2000.0" vType="car" speedFactor="1.01" vaporized=""/>
    <tripinfo id="flow_route_55_duration_20250327_2000.1" depart="6.00" departLane="1341093415#0_0" departPos="119.96" departSpeed="0.00" departDelay="0.55" arrival="41.00" arrivalLane="791826085_0" arrivalPos="1.97" arrivalSpeed="6.46" duration="35.00" routeLength="71.72" waitingTime="12.00" waitingCount="1" stopTime="0.00" timeLoss="29.56" rerouteNo="0" devices="tripinfo_flow_route_55_duration_20250327_2000.1" vType="car" speedFactor="0.83" vaporized=""/>
    <tripinfo id="flow_route_55_duration_20250327_2000.2" depart="11.00" departLane="1341093415#0_0" departPos="156.06" departSpeed="0.00" departDelay="0.09" arrival="42.00" arrivalLane="791826085_0" arrivalPos="19.65" arrivalSpeed="7.81" duration="31.00" routeLength="53.30" waitingTime="13.00" waitingCount="1" stopTime="0.00" timeLoss="26.36" rerouteNo="0" devices="tripinfo_flow_route_55_duration_20250327_2000.2" vType="car" speedFactor="0.94" vaporized=""/>
    <tripinfo id="flow_route_56_duration_20250327_2000.1" depart="10.00" departLane="1341093415#0_0" departPos="100.93" departSpeed="0.00" departDelay="0.00" arrival="46.00" arrivalLane="409155823_0" arrivalPos="41.04" arrivalSpeed="10.27" duration="36.00" routeLength="144.94" waitingTime="6.00" waitingCount="1" stopTime="0.00" timeLoss="26.19" rerouteNo="0" devices="tripinfo_flow_route_56_duration_20250327_2000.1" vType="car" speedFactor="1.05" vaporized=""/>
    <tripinfo id="flow_route_56_duration_20250327_2000.2" depart="20.00" departLane="1341093415#0_0" departPos="5.78" departSpeed="0.00" departDelay="0.00" arrival="47.00" arrivalLane="409155823_0" arrivalPos="34.91" arrivalSpeed="10.42" duration="27.00" routeLength="233.97" waitingTime="0.00" waitingCount="0" stopTime="0.00" timeLoss="12.08" rerouteNo="0" devices="tripinfo_flow_route_56_duration_20250327_2000.2" vType="car" speedFactor="1.05" vaporized=""/>
    <tripinfo id="flow_route_55_duration_20250327_2000.6" depart="33.00" departLane="1341093415#0_0" departPos="144.68" departSpeed="0.00" departDelay="0.28" arrival="52.00" arrivalLane="791826085_0" arrivalPos="78.72" arrivalSpeed="13.06" duration="19.00" routeLength="123.76" waitingTime="0.00" waitingCount="0" stopTime="0.00" timeLoss="10.49" rerouteNo="0" devices="tripinfo_flow_route_55_duration_20250327_2000.6" vType="car" speedFactor="1.02" vaporized=""/>
    <tripinfo id="flow_route_54_duration_20250327_2000.2" depart="31.00" departLane="1341093415#0_0" departPos="39.77" departSpeed="0.00" departDelay="1.00" arrival="53.00" arrivalLane="1341093416#0_1" arrivalPos="35.47" arrivalSpeed="16.52" duration="22.00" routeLength="202.52" waitingTime="0.00" waitingCount="0" stopTime="0.00" timeLoss="9.58" rerouteNo="0" devices="tripinfo_flow_route_54_duration_20250327_2000.2" vType="car" speedFactor="0.94" vaporized=""/>
    <tripinfo id="flow_route_55_duration_20250327_2000.0" depart="0.00" departLane="1341093415#0_0" departPos="132.48" departSpeed="0.00" departDelay="0.00" arrival="55.00" arrivalLane="791826085_0" arrivalPos="232.37" arrivalSpeed="15.32" duration="55.00" routeLength="289.60" waitingTime="18.00" waitingCount="1" stopTime="0.00" timeLoss="36.07" rerouteNo="0" devices="tripinfo_flow_route_55_duration_20250327_2000.0" vType="car" speedFactor="0.94" vaporized=""/>
    <tripinfo id="flow_route_56_duration_20250327_2000.3" depart="31.00" departLane="1341093415#0_0" departPos="29.94" departSpeed="0.00" departDelay="1.00" arrival="55.00" arrivalLane="409155823_0" arrivalPos="11.04" arrivalSpeed="10.49" duration="24.00" routeLength="185.94" waitingTime="0.00" waitingCount="0" stopTime="0.00" timeLoss="11.36" rerouteNo="0" devices="tripinfo_flow_route_56_duration_20250327_2000.3" vType="car" speedFactor="0.94" vaporized=""/>
    <tripinfo id="flow_route_54_duration_20250327_2000.0" depart="0.00" departLane="1341093415#0_0" departPos="7.77" departSpeed="0.00" departDelay="0.00" arrival="58.00" arrivalLane="1341093416#0_0" arrivalPos="244.31" arrivalSpeed="16.59" duration="58.00" routeLength="443.35" waitingTime="7.00" waitingCount="1" stopTime="0.00" timeLoss="31.24" rerouteNo="0" devices="tripinfo_flow_route_54_duration_20250327_2000.0" vType="car" speedFactor="1.06" vaporized=""/>
    <tripinfo id="flow_route_55_duration_20250327_2000.3" depart="20.00" departLane="1341093415#0_0" departPos="42.19" departSpeed="0.00" departDelay="3.64" arrival="61.00" arrivalLane="791826085_0" arrivalPos="206.60" arrivalSpeed="16.55" duration="41.00" routeLength="354.11" waitingTime="0.00" waitingCount="0" stopTime="0.00" timeLoss="19.18" rerouteNo="0" devices="tripinfo_flow_route_55_duration_20250327_2000.3" vType="car" speedFactor="1.03" vaporized=""/>
    <tripinfo id="flow_route_55_duration_20250327_2000.8" depart="44.00" departLane="1341093415#0_0" departPos="97.46" departSpeed="0.00" departDelay="0.37" arrival="62.00" arrivalLane="791826085_0" arrivalPos="9.08" arrivalSpeed="7.50" duration="18.00" routeLength="101.33" waitingTime="0.00" waitingCount="0" stopTime="0.00" timeLoss="10.56" rerouteNo="0" devices="tripinfo_flow_route_55_duration_20250327_2000.8" vType="car" speedFactor="0.87" vaporized=""/>
    <tripinfo id="flow_route_55_duration_20250327_2000.5" depart="28.00" departLane="1341093415#0_0" departPos="59.05" departSpeed="0.00" departDelay="0.73" arrival="67.00" arrivalLane="791826085_0" arrivalPos="223.42" arrivalSpeed="14.28" duration="39.00" routeLength="354.08" waitingTime="0.00" waitingCount="0" stopTime="0.00" timeLoss="14.53" rerouteNo="0" devices="tripinfo_flow_route_55_duration_20250327_2000.5" vType="car" speedFactor="0.88" vaporized=""/>
    <tripinfo id="flow_route_55_duration_20250327_2000.4" depart="22.00" departLane="1341093415#0_0" departPos="28.36" departSpeed="0.00" departDelay="0.18" arrival="70.00" arrivalLane="791826085_1" arrivalPos="249.33" arrivalSpeed="16.45" duration="48.00" routeLength="410.68" waitingTime="0.00" waitingCount="0" stopTime="0.00" timeLoss="21.80" rerouteNo="0" devices="tripinfo_flow_route_55_duration_20250327_2000.4" vType="car" speedFactor="0.99" vaporized=""/>
    <tripinfo id="flow_route_56_duration_20250327_2000.4" depart="44.00" departLane="1341093415#0_0" departPos="49.70" departSpeed="0.00" departDelay="4.00" arrival="73.00" arrivalLane="409155823_0" arrivalPos="84.50" arrivalSpeed="14.28" duration="29.00" routeLength="239.64" waitingTime="0.00" waitingCount="0" stopTime="0.00" timeLoss="12.13" rerouteNo="0" devices="tripinfo_flow_route_56_duration_20250327_2000.4" vType="car" speedFactor="0.89" vaporized=""/>
    <tripinfo id="flow_route_60_duration_20250327_2000.3" depart="38.00" departLane="186407684#0_0" departPos="52.55" departSpeed="0.00" departDelay="2.00" arrival="80.00" arrivalLane="791826085_0" arrivalPos="29.03" arrivalSpeed="9.10" duration="42.00" routeLength="85.42" waitingTime="19.00" waitingCount="1" stopTime="0.00" timeLoss="36.43" rerouteNo="0" devices="tripinfo_flow_route_60_duration_20250327_2000.3" vType="car" speedFactor="1.01" vaporized=""/>
    <tripinfo id="flow_route_55_duration_20250327_2000.7" depart="41.00" departLane="1341093415#0_0" departPos="30.02" departSpeed="0.00" departDelay="2.82" arrival="80.00" arrivalLane="791826085_0" arrivalPos="225.55" arrivalSpeed="16.17" duration="39.00" routeLength="385.25" waitingTime="0.00" waitingCount="0" stopTime="0.00" timeLoss="14.40" rerouteNo="0" devices="tripinfo_flow_route_55_duration_20250327_2000.7" vType="car" speedFactor="0.97" vaporized=""/>
    <tripinfo id="flow_route_61_duration_20250327_2000.3" depart="31.00" departLane="186407684#0_0" departPos="50.38" departSpeed="0.00" departDelay="1.00" arrival="84.00" arrivalLane="1341093416#0_2" arrivalPos="112.79" arrivalSpeed="14.61" duration="53.00" routeLength="172.43" waitingTime="23.00" waitingCount="1" stopTime="0.00" timeLoss="41.56" rerouteNo="0" devices="tripinfo_flow_route_61_duration_20250327_2000.3" vType="car" speedFactor="1.16" vaporized=""/>
    <tripinfo id="flow_route_61_duration_20250327_2000.4" depart="41.00" departLane="186407684#0_0" departPos="16.16" departSpeed="0.00" departDelay="1.00" arrival="85.00" arrivalLane="1341093416#0_1" arrivalPos="84.39" arrivalSpeed="13.42" duration="44.00" routeLength="182.41" waitingTime="12.00" waitingCount="1" stopTime="0.00" timeLoss="30.44" rerouteNo="0" devices="tripinfo_flow_route_61_duration_20250327_2000.4" vType="car" speedFactor="0.83" vaporized=""/>
    <tripinfo id="flow_route_60_duration_20250327_2000.4" depart="49.00" departLane="186407684#0_0" departPos="27.66" departSpeed="0.00" departDelay="1.00" arrival="85.00" arrivalLane="791826085_0" arrivalPos="58.37" arrivalSpeed="11.71" duration="36.00" routeLength="139.64" waitingTime="6.00" waitingCount="1" stopTime="0.00" timeLoss="26.44" rerouteNo="0" devices="tripinfo_flow_route_60_duration_20250327_2000.4" vType="car" speedFactor="0.95" vaporized=""/>
    <tripinfo id="flow_route_61_duration_20250327_2000.2" depart="20.00" departLane="186407684#0_0" departPos="26.59" departSpeed="0.00" departDelay="0.00" arrival="86.00" arrivalLane="1341093416#0_1" arrivalPos="149.25" arrivalSpeed="16.12" duration="66.00" routeLength="236.83" waitingTime="32.00" waitingCount="1" stopTime="0.00" timeLoss="50.78" rerouteNo="0" devices="tripinfo_flow_route_61_duration_20250327_2000.2" vType="car" speedFactor="1.12" vaporized=""/>
    <tripinfo id="flow_route_61_duration_20250327_2000.5" depart="50.00" departLane="186407684#0_0" departPos="4.13" departSpeed="0.00" departDelay="0.00" arrival="89.00" arrivalLane="1341093416#0_2" arrivalPos="155.51" arrivalSpeed="16.36" duration="39.00" routeLength="261.40" waitingTime="0.00" waitingCount="0" stopTime="0.00" timeLoss="22.02" rerouteNo="0" devices="tripinfo_flow_route_61_duration_20250327_2000.5" vType="car" speedFactor="1.18" vaporized=""/>
    <tripinfo id="flow_route_60_duration_20250327_2000.2" depart="24.00" departLane="186407684#0_0" departPos="2.63" departSpeed="0.00" departDelay="0.00" arrival="97.00" arrivalLane="791826085_0" arrivalPos="311.97" arrivalSpeed="15.06" duration="73.00" routeLength="418.27" waitingTime="25.00" waitingCount="1" stopTime="0.00" timeLoss="45.74" rerouteNo="0" devices="tripinfo_flow_route_60_duration_20250327_2000.2" vType="car" speedFactor="0.93" vaporized=""/>
    <tripinfo id="flow_route_56_duration_20250327_2000.5" depart="51.00" departLane="1341093415#0_0" departPos="14.26" departSpeed="0.00" departDelay="1.00" arrival="106.00" arrivalLane="409155823_0" arrivalPos="7.57" arrivalSpeed="7.70" duration="55.00" routeLength="198.15" waitingTime="23.00" waitingCount="1" stopTime="0.00" timeLoss="41.72" rerouteNo="0" devices="tripinfo_flow_route_56_duration_20250327_2000.5" vType="car" speedFactor="0.93" vaporized=""/>
    <tripinfo id="flow_route_55_duration_20250327_2000.9" depart="50.00" departLane="1341093415#0_0" departPos="36.93" departSpeed="0.00" departDelay="0.91" arrival="118.00" arrivalLane="791826085_0" arrivalPos="110.56" arrivalSpeed="14.71" duration="68.00" routeLength="263.35" waitingTime="22.00" waitingCount="1" stopTime="0.00" timeLoss="51.07" rerouteNo="0" devices="tripinfo_flow_route_55_duration_20250327_2000.9" vType="car" speedFactor="1.13" vaporized=""/>
    <tripinfo id="flow_route_55_duration_20250327_2000.10" depart="55.00" departLane="1341093415#0_0" departPos="62.71" departSpeed="0.00" departDelay="0.46" arrival="124.00" arrivalLane="791826085_0" arrivalPos="235.43" arrivalSpeed="16.20" duration="69.00" routeLength="362.42" waitingTime="23.00" waitingCount="1" stopTime="0.00" timeLoss="46.00" rerouteNo="0" devices="tripinfo_flow_route_55_duration_20250327_2000.10" vType="car" speedFactor="1.15" vaporized=""/>
    <tripinfo id="flow_route_54_duration_20250327_2000.3" depart="45.00" departLane="1341093415#0_0" departPos="11.94" departSpeed="0.00" departDelay="0.00" arrival="125.00" arrivalLane="1341093416#0_0" arrivalPos="254.48" arrivalSpeed="16.40" duration="80.00" routeLength="449.36" waitingTime="28.00" waitingCount="1" stopTime="0.00" timeLoss="52.89" rerouteNo="0" devices="tripinfo_flow_route_54_duration_20250327_2000.3" vType="car" speedFactor="0.92" vaporized=""/>
</tripinfos>
