<?xml version="1.0" encoding="UTF-8"?>

<!-- generated on 2025-05-06 21:08:21 by Eclipse SUMO sumo Version 1.20.0
<configuration xmlns:xsi="http://www.w3.org/2001/XMLSchema-instance" xsi:noNamespaceSchemaLocation="http://sumo.dlr.de/xsd/sumoConfiguration.xsd">

    <input>
        <net-file value="osm.net.xml"/>
        <route-files value="xml/route_rl_GS_cluster_4854142864_4854142865_4.rou.xml"/>
    </input>

    <output>
        <tripinfo-output value="xml/tripinfo_rl_GS_cluster_4854142864_4854142865_4.xml"/>
    </output>

    <traci_server>
        <remote-port value="54425"/>
    </traci_server>

</configuration>
-->

<tripinfos xmlns:xsi="http://www.w3.org/2001/XMLSchema-instance" xsi:noNamespaceSchemaLocation="http://sumo.dlr.de/xsd/tripinfo_file.xsd">
    <tripinfo id="flow_route_39_duration_20250327_1910.0" depart="0.00" departLane="133126030#0_0" departPos="101.03" departSpeed="0.00" departDelay="0.00" arrival="29.00" arrivalLane="1328664748#0_1" arrivalPos="158.52" arrivalSpeed="15.14" duration="29.00" routeLength="263.70" waitingTime="0.00" waitingCount="0" stopTime="0.00" timeLoss="12.01" rerouteNo="0" devices="tripinfo_flow_route_39_duration_20250327_1910.0" vType="car" speedFactor="0.94" vaporized=""/>
    <tripinfo id="flow_route_38_duration_20250327_1910.2" depart="8.00" departLane="133126030#0_0" departPos="177.25" departSpeed="0.00" departDelay="0.00" arrival="29.00" arrivalLane="134193294#0_0" arrivalPos="131.14" arrivalSpeed="14.89" duration="21.00" routeLength="148.78" waitingTime="0.00" waitingCount="0" stopTime="0.00" timeLoss="10.18" rerouteNo="0" devices="tripinfo_flow_route_38_duration_20250327_1910.2" vType="car" speedFactor="0.93" vaporized=""/>
    <tripinfo id="flow_route_38_duration_20250327_1910.1" depart="4.00" departLane="133126030#0_0" departPos="126.67" departSpeed="0.00" departDelay="0.00" arrival="33.00" arrivalLane="134193294#0_0" arrivalPos="150.20" arrivalSpeed="15.23" duration="29.00" routeLength="218.41" waitingTime="0.00" waitingCount="0" stopTime="0.00" timeLoss="12.96" rerouteNo="0" devices="tripinfo_flow_route_38_duration_20250327_1910.1" vType="car" speedFactor="0.94" vaporized=""/>
    <tripinfo id="flow_route_38_duration_20250327_1910.3" depart="12.00" departLane="133126030#0_0" departPos="128.15" departSpeed="0.00" departDelay="0.00" arrival="38.00" arrivalLane="134193294#0_0" arrivalPos="122.75" arrivalSpeed="14.70" duration="26.00" routeLength="189.48" waitingTime="0.00" waitingCount="0" stopTime="0.00" timeLoss="11.93" rerouteNo="0" devices="tripinfo_flow_route_38_duration_20250327_1910.3" vType="car" speedFactor="0.89" vaporized=""/>
    <tripinfo id="flow_route_38_duration_20250327_1910.0" depart="0.00" departLane="133126030#0_0" departPos="45.86" departSpeed="0.00" departDelay="0.00" arrival="41.00" arrivalLane="134193294#0_0" arrivalPos="152.84" arrivalSpeed="16.33" duration="41.00" routeLength="301.86" waitingTime="0.00" waitingCount="0" stopTime="0.00" timeLoss="22.25" rerouteNo="0" devices="tripinfo_flow_route_38_duration_20250327_1910.0" vType="car" speedFactor="1.06" vaporized=""/>
    <tripinfo id="flow_route_38_duration_20250327_1910.5" depart="20.00" departLane="133126030#0_0" departPos="133.76" departSpeed="0.00" departDelay="0.00" arrival="42.00" arrivalLane="134193294#0_0" arrivalPos="97.29" arrivalSpeed="14.47" duration="22.00" routeLength="158.41" waitingTime="0.00" waitingCount="0" stopTime="0.00" timeLoss="11.59" rerouteNo="0" devices="tripinfo_flow_route_38_duration_20250327_1910.5" vType="car" speedFactor="1.17" vaporized=""/>
    <tripinfo id="flow_route_43_duration_20250327_1910.1" depart="5.00" departLane="1328664744#0_0" departPos="208.33" departSpeed="0.00" departDelay="0.00" arrival="51.00" arrivalLane="134193294#0_3" arrivalPos="87.99" arrivalSpeed="13.06" duration="46.00" routeLength="119.74" waitingTime="22.00" waitingCount="1" stopTime="0.00" timeLoss="37.73" rerouteNo="0" devices="tripinfo_flow_route_43_duration_20250327_1910.1" vType="car" speedFactor="1.09" vaporized=""/>
    <tripinfo id="flow_route_43_duration_20250327_1910.2" depart="10.00" departLane="1328664744#0_0" departPos="91.26" departSpeed="0.00" departDelay="0.00" arrival="52.00" arrivalLane="134193294#0_3" arrivalPos="22.19" arrivalSpeed="9.80" duration="42.00" routeLength="171.01" waitingTime="7.00" waitingCount="1" stopTime="0.00" timeLoss="30.06" rerouteNo="0" devices="tripinfo_flow_route_43_duration_20250327_1910.2" vType="car" speedFactor="0.94" vaporized=""/>
    <tripinfo id="flow_route_43_duration_20250327_1910.3" depart="15.00" departLane="1328664744#0_0" departPos="211.85" departSpeed="0.00" departDelay="0.00" arrival="54.00" arrivalLane="134193294#0_3" arrivalPos="84.50" arrivalSpeed="12.55" duration="39.00" routeLength="112.72" waitingTime="18.00" waitingCount="3" stopTime="0.00" timeLoss="29.60" rerouteNo="0" devices="tripinfo_flow_route_43_duration_20250327_1910.3" vType="car" speedFactor="0.87" vaporized=""/>
    <tripinfo id="flow_route_43_duration_20250327_1910.0" depart="0.00" departLane="1328664744#0_0" departPos="1.34" departSpeed="0.00" departDelay="0.00" arrival="55.00" arrivalLane="134193294#0_3" arrivalPos="84.30" arrivalSpeed="13.20" duration="55.00" routeLength="323.03" waitingTime="8.00" waitingCount="1" stopTime="0.00" timeLoss="34.61" rerouteNo="0" devices="tripinfo_flow_route_43_duration_20250327_1910.0" vType="car" speedFactor="1.08" vaporized=""/>
    <tripinfo id="flow_route_43_duration_20250327_1910.8" depart="40.00" departLane="1328664744#0_0" departPos="188.86" departSpeed="0.00" departDelay="0.00" arrival="64.00" arrivalLane="134193294#0_3" arrivalPos="83.44" arrivalSpeed="13.59" duration="24.00" routeLength="134.65" waitingTime="1.00" waitingCount="1" stopTime="0.00" timeLoss="14.65" rerouteNo="0" devices="tripinfo_flow_route_43_duration_20250327_1910.8" vType="car" speedFactor="1.02" vaporized=""/>
    <tripinfo id="flow_route_43_duration_20250327_1910.4" depart="20.00" departLane="1328664744#0_0" departPos="64.34" departSpeed="0.00" departDelay="0.00" arrival="66.00" arrivalLane="134193294#0_3" arrivalPos="30.99" arrivalSpeed="10.91" duration="46.00" routeLength="206.72" waitingTime="2.00" waitingCount="1" stopTime="0.00" timeLoss="32.33" rerouteNo="0" devices="tripinfo_flow_route_43_duration_20250327_1910.4" vType="car" speedFactor="1.02" vaporized=""/>
    <tripinfo id="flow_route_43_duration_20250327_1910.7" depart="35.00" departLane="1328664744#0_0" departPos="131.49" departSpeed="0.00" departDelay="0.00" arrival="70.00" arrivalLane="134193294#0_3" arrivalPos="47.57" arrivalSpeed="11.18" duration="35.00" routeLength="156.15" waitingTime="1.00" waitingCount="1" stopTime="0.00" timeLoss="24.75" rerouteNo="0" devices="tripinfo_flow_route_43_duration_20250327_1910.7" vType="car" speedFactor="1.02" vaporized=""/>
    <tripinfo id="flow_route_43_duration_20250327_1910.5" depart="25.00" departLane="1328664744#0_0" departPos="109.30" departSpeed="0.00" departDelay="0.00" arrival="71.00" arrivalLane="134193294#0_3" arrivalPos="150.19" arrivalSpeed="16.43" duration="46.00" routeLength="280.96" waitingTime="3.00" waitingCount="1" stopTime="0.00" timeLoss="27.54" rerouteNo="0" devices="tripinfo_flow_route_43_duration_20250327_1910.5" vType="car" speedFactor="1.04" vaporized=""/>
    <tripinfo id="flow_route_43_duration_20250327_1910.6" depart="30.00" departLane="1328664744#0_0" departPos="31.32" departSpeed="0.00" departDelay="0.00" arrival="82.00" arrivalLane="134193294#0_3" arrivalPos="133.97" arrivalSpeed="14.79" duration="52.00" routeLength="342.73" waitingTime="0.00" waitingCount="0" stopTime="0.00" timeLoss="30.74" rerouteNo="0" devices="tripinfo_flow_route_43_duration_20250327_1910.6" vType="car" speedFactor="1.17" vaporized=""/>
    <tripinfo id="flow_route_44_duration_20250327_1910.9" depart="22.00" departLane="791826085_0" departPos="269.23" departSpeed="0.00" departDelay="2.72" arrival="85.00" arrivalLane="134193294#0_1" arrivalPos="8.04" arrivalSpeed="8.94" duration="63.00" routeLength="93.17" waitingTime="39.00" waitingCount="1" stopTime="0.00" timeLoss="57.02" rerouteNo="0" devices="tripinfo_flow_route_44_duration_20250327_1910.9" vType="car" speedFactor="0.97" vaporized=""/>
    <tripinfo id="flow_route_45_duration_20250327_1910.0" depart="0.00" departLane="791826085_0" departPos="152.03" departSpeed="0.00" departDelay="0.00" arrival="87.00" arrivalLane="485211947#0_0" arrivalPos="8.08" arrivalSpeed="5.68" duration="87.00" routeLength="191.81" waitingTime="47.00" waitingCount="1" stopTime="0.00" timeLoss="71.92" rerouteNo="0" devices="tripinfo_flow_route_45_duration_20250327_1910.0" vType="car" speedFactor="0.83" vaporized=""/>
    <tripinfo id="flow_route_44_duration_20250327_1910.2" depart="5.00" departLane="791826085_0" departPos="268.83" departSpeed="0.00" departDelay="0.72" arrival="87.00" arrivalLane="134193294#0_0" arrivalPos="52.67" arrivalSpeed="10.26" duration="82.00" routeLength="138.21" waitingTime="53.00" waitingCount="1" stopTime="0.00" timeLoss="73.63" rerouteNo="0" devices="tripinfo_flow_route_44_duration_20250327_1910.2" vType="car" speedFactor="1.03" vaporized=""/>
    <tripinfo id="flow_route_46_duration_20250327_1910.2" depart="13.00" departLane="791826085_0" departPos="313.07" departSpeed="0.00" departDelay="2.09" arrival="87.00" arrivalLane="1328664748#0_1" arrivalPos="37.37" arrivalSpeed="10.04" duration="74.00" routeLength="73.09" waitingTime="57.00" waitingCount="1" stopTime="0.00" timeLoss="68.28" rerouteNo="0" devices="tripinfo_flow_route_46_duration_20250327_1910.2" vType="car" speedFactor="0.97" vaporized=""/>
    <tripinfo id="flow_route_44_duration_20250327_1910.5" depart="11.00" departLane="791826085_0" departPos="264.72" departSpeed="0.00" departDelay="0.29" arrival="89.00" arrivalLane="134193294#0_0" arrivalPos="45.30" arrivalSpeed="10.70" duration="78.00" routeLength="134.95" waitingTime="48.00" waitingCount="1" stopTime="0.00" timeLoss="69.25" rerouteNo="0" devices="tripinfo_flow_route_44_duration_20250327_1910.5" vType="car" speedFactor="1.02" vaporized=""/>
    <tripinfo id="flow_route_44_duration_20250327_1910.0" depart="0.00" departLane="791826085_0" departPos="219.49" departSpeed="0.00" departDelay="0.00" arrival="90.00" arrivalLane="134193294#0_1" arrivalPos="101.20" arrivalSpeed="15.00" duration="90.00" routeLength="236.08" waitingTime="54.00" waitingCount="1" stopTime="0.00" timeLoss="74.96" rerouteNo="0" devices="tripinfo_flow_route_44_duration_20250327_1910.0" vType="car" speedFactor="1.03" vaporized=""/>
    <tripinfo id="flow_route_45_duration_20250327_1910.1" depart="5.00" departLane="791826085_0" departPos="206.60" departSpeed="0.00" departDelay="1.47" arrival="90.00" arrivalLane="485211947#0_0" arrivalPos="59.66" arrivalSpeed="10.45" duration="85.00" routeLength="188.82" waitingTime="48.00" waitingCount="1" stopTime="0.00" timeLoss="70.60" rerouteNo="0" devices="tripinfo_flow_route_45_duration_20250327_1910.1" vType="car" speedFactor="0.86" vaporized=""/>
    <tripinfo id="flow_route_45_duration_20250327_1910.4" depart="15.00" departLane="791826085_0" departPos="209.26" departSpeed="0.00" departDelay="0.88" arrival="92.00" arrivalLane="485211947#0_0" arrivalPos="31.20" arrivalSpeed="8.90" duration="77.00" routeLength="157.70" waitingTime="44.00" waitingCount="1" stopTime="0.00" timeLoss="66.41" rerouteNo="0" devices="tripinfo_flow_route_45_duration_20250327_1910.4" vType="car" speedFactor="0.95" vaporized=""/>
    <tripinfo id="flow_route_44_duration_20250327_1910.3" depart="7.00" departLane="791826085_0" departPos="98.41" departSpeed="0.00" departDelay="0.57" arrival="93.00" arrivalLane="134193294#0_0" arrivalPos="5.56" arrivalSpeed="8.84" duration="86.00" routeLength="261.52" waitingTime="43.00" waitingCount="1" stopTime="0.00" timeLoss="70.11" rerouteNo="0" devices="tripinfo_flow_route_44_duration_20250327_1910.3" vType="car" speedFactor="0.99" vaporized=""/>
    <tripinfo id="flow_route_44_duration_20250327_1910.1" depart="3.00" departLane="791826085_0" departPos="19.65" departSpeed="0.00" departDelay="0.86" arrival="94.00" arrivalLane="134193294#0_2" arrivalPos="45.37" arrivalSpeed="11.33" duration="91.00" routeLength="380.09" waitingTime="41.00" waitingCount="1" stopTime="0.00" timeLoss="65.23" rerouteNo="0" devices="tripinfo_flow_route_44_duration_20250327_1910.1" vType="car" speedFactor="0.89" vaporized=""/>
    <tripinfo id="flow_route_46_duration_20250327_1910.1" depart="6.00" departLane="791826085_0" departPos="77.20" departSpeed="0.00" departDelay="0.55" arrival="95.00" arrivalLane="1328664748#0_1" arrivalPos="88.23" arrivalSpeed="13.96" duration="89.00" routeLength="359.82" waitingTime="42.00" waitingCount="1" stopTime="0.00" timeLoss="66.67" rerouteNo="0" devices="tripinfo_flow_route_46_duration_20250327_1910.1" vType="car" speedFactor="1.12" vaporized=""/>
    <tripinfo id="flow_route_44_duration_20250327_1910.11" depart="32.00" departLane="791826085_0" departPos="127.41" departSpeed="0.00" departDelay="8.44" arrival="95.00" arrivalLane="134193294#0_1" arrivalPos="4.09" arrivalSpeed="10.47" duration="63.00" routeLength="231.05" waitingTime="24.00" waitingCount="1" stopTime="0.00" timeLoss="48.96" rerouteNo="0" devices="tripinfo_flow_route_44_duration_20250327_1910.11" vType="car" speedFactor="1.09" vaporized=""/>
    <tripinfo id="flow_route_44_duration_20250327_1910.4" depart="11.00" departLane="791826085_0" departPos="186.42" departSpeed="0.00" departDelay="2.43" arrival="96.00" arrivalLane="134193294#0_1" arrivalPos="117.52" arrivalSpeed="15.46" duration="85.00" routeLength="285.47" waitingTime="38.00" waitingCount="1" stopTime="0.00" timeLoss="66.64" rerouteNo="0" devices="tripinfo_flow_route_44_duration_20250327_1910.4" vType="car" speedFactor="0.94" vaporized=""/>
    <tripinfo id="flow_route_44_duration_20250327_1910.8" depart="18.00" departLane="791826085_0" departPos="102.36" departSpeed="0.00" departDelay="0.86" arrival="96.00" arrivalLane="134193294#0_1" arrivalPos="30.70" arrivalSpeed="11.76" duration="78.00" routeLength="282.71" waitingTime="34.00" waitingCount="1" stopTime="0.00" timeLoss="60.53" rerouteNo="0" devices="tripinfo_flow_route_44_duration_20250327_1910.8" vType="car" speedFactor="1.15" vaporized=""/>
    <tripinfo id="flow_route_44_duration_20250327_1910.10" depart="30.00" departLane="791826085_0" departPos="232.28" departSpeed="0.00" departDelay="8.58" arrival="98.00" arrivalLane="134193294#0_2" arrivalPos="72.60" arrivalSpeed="13.94" duration="68.00" routeLength="194.69" waitingTime="34.00" waitingCount="1" stopTime="0.00" timeLoss="55.96" rerouteNo="0" devices="tripinfo_flow_route_44_duration_20250327_1910.10" vType="car" speedFactor="1.10" vaporized=""/>
    <tripinfo id="flow_route_46_duration_20250327_1910.0" depart="1.00" departLane="791826085_0" departPos="184.68" departSpeed="0.00" departDelay="1.00" arrival="99.00" arrivalLane="1328664748#0_1" arrivalPos="165.37" arrivalSpeed="16.58" duration="98.00" routeLength="329.48" waitingTime="53.00" waitingCount="1" stopTime="0.00" timeLoss="76.68" rerouteNo="0" devices="tripinfo_flow_route_46_duration_20250327_1910.0" vType="car" speedFactor="1.05" vaporized=""/>
    <tripinfo id="flow_route_44_duration_20250327_1910.7" depart="15.00" departLane="791826085_0" departPos="59.80" departSpeed="0.00" departDelay="0.01" arrival="99.00" arrivalLane="134193294#0_1" arrivalPos="99.50" arrivalSpeed="13.79" duration="84.00" routeLength="394.08" waitingTime="35.00" waitingCount="1" stopTime="0.00" timeLoss="58.09" rerouteNo="0" devices="tripinfo_flow_route_44_duration_20250327_1910.7" vType="car" speedFactor="0.92" vaporized=""/>
    <tripinfo id="flow_route_44_duration_20250327_1910.12" depart="36.00" departLane="791826085_0" departPos="279.35" departSpeed="0.00" departDelay="10.30" arrival="101.00" arrivalLane="134193294#0_0" arrivalPos="72.92" arrivalSpeed="14.54" duration="65.00" routeLength="147.94" waitingTime="41.00" waitingCount="1" stopTime="0.00" timeLoss="55.47" rerouteNo="0" devices="tripinfo_flow_route_44_duration_20250327_1910.12" vType="car" speedFactor="1.09" vaporized=""/>
    <tripinfo id="flow_route_44_duration_20250327_1910.14" depart="39.00" departLane="791826085_0" departPos="110.51" departSpeed="0.00" departDelay="9.01" arrival="101.00" arrivalLane="134193294#0_1" arrivalPos="48.24" arrivalSpeed="14.77" duration="62.00" routeLength="292.10" waitingTime="16.00" waitingCount="1" stopTime="0.00" timeLoss="43.62" rerouteNo="0" devices="tripinfo_flow_route_44_duration_20250327_1910.14" vType="car" speedFactor="1.02" vaporized=""/>
    <tripinfo id="flow_route_45_duration_20250327_1910.2" depart="8.00" departLane="791826085_0" departPos="9.73" departSpeed="0.00" departDelay="0.94" arrival="102.00" arrivalLane="485211947#0_0" arrivalPos="29.48" arrivalSpeed="7.98" duration="94.00" routeLength="355.51" waitingTime="36.00" waitingCount="1" stopTime="0.00" timeLoss="68.23" rerouteNo="0" devices="tripinfo_flow_route_45_duration_20250327_1910.2" vType="car" speedFactor="0.88" vaporized=""/>
    <tripinfo id="flow_route_44_duration_20250327_1910.6" depart="13.00" departLane="791826085_0" departPos="100.38" departSpeed="0.00" departDelay="0.15" arrival="102.00" arrivalLane="134193294#0_1" arrivalPos="160.40" arrivalSpeed="13.45" duration="89.00" routeLength="414.39" waitingTime="37.00" waitingCount="1" stopTime="0.00" timeLoss="58.61" rerouteNo="0" devices="tripinfo_flow_route_44_duration_20250327_1910.6" vType="car" speedFactor="0.83" vaporized=""/>
    <tripinfo id="flow_route_46_duration_20250327_1910.3" depart="17.00" departLane="791826085_0" departPos="21.84" departSpeed="0.00" departDelay="0.64" arrival="102.00" arrivalLane="1328664748#0_1" arrivalPos="121.65" arrivalSpeed="16.35" duration="85.00" routeLength="448.60" waitingTime="32.00" waitingCount="1" stopTime="0.00" timeLoss="57.18" rerouteNo="0" devices="tripinfo_flow_route_46_duration_20250327_1910.3" vType="car" speedFactor="1.18" vaporized=""/>
    <tripinfo id="flow_route_44_duration_20250327_1910.15" depart="44.00" departLane="791826085_0" departPos="50.01" departSpeed="0.00" departDelay="11.87" arrival="102.00" arrivalLane="134193294#0_1" arrivalPos="26.34" arrivalSpeed="13.69" duration="58.00" routeLength="330.70" waitingTime="12.00" waitingCount="1" stopTime="0.00" timeLoss="35.91" rerouteNo="0" devices="tripinfo_flow_route_44_duration_20250327_1910.15" vType="car" speedFactor="0.90" vaporized=""/>
    <tripinfo id="flow_route_44_duration_20250327_1910.18" depart="50.00" departLane="791826085_0" departPos="185.43" departSpeed="0.00" departDelay="11.44" arrival="103.00" arrivalLane="134193294#0_1" arrivalPos="59.32" arrivalSpeed="15.62" duration="53.00" routeLength="228.26" waitingTime="13.00" waitingCount="1" stopTime="0.00" timeLoss="37.89" rerouteNo="0" devices="tripinfo_flow_route_44_duration_20250327_1910.18" vType="car" speedFactor="0.94" vaporized=""/>
    <tripinfo id="flow_route_45_duration_20250327_1910.3" depart="11.00" departLane="791826085_0" departPos="29.03" departSpeed="0.00" departDelay="0.41" arrival="105.00" arrivalLane="485211947#0_0" arrivalPos="41.34" arrivalSpeed="9.65" duration="94.00" routeLength="348.07" waitingTime="36.00" waitingCount="1" stopTime="0.00" timeLoss="71.77" rerouteNo="0" devices="tripinfo_flow_route_45_duration_20250327_1910.3" vType="car" speedFactor="1.01" vaporized=""/>
    <tripinfo id="flow_route_45_duration_20250327_1910.8" depart="38.00" departLane="791826085_0" departPos="157.42" departSpeed="0.00" departDelay="9.77" arrival="105.00" arrivalLane="485211947#0_0" arrivalPos="18.81" arrivalSpeed="7.52" duration="67.00" routeLength="197.15" waitingTime="28.00" waitingCount="1" stopTime="0.00" timeLoss="52.49" rerouteNo="0" devices="tripinfo_flow_route_45_duration_20250327_1910.8" vType="car" speedFactor="0.85" vaporized=""/>
    <tripinfo id="flow_route_46_duration_20250327_1910.4" depart="32.00" departLane="791826085_0" departPos="13.89" departSpeed="0.00" departDelay="10.18" arrival="107.00" arrivalLane="1328664748#0_1" arrivalPos="86.72" arrivalSpeed="15.05" duration="75.00" routeLength="421.61" waitingTime="18.00" waitingCount="1" stopTime="0.00" timeLoss="48.21" rerouteNo="0" devices="tripinfo_flow_route_46_duration_20250327_1910.4" vType="car" speedFactor="1.03" vaporized=""/>
    <tripinfo id="flow_route_44_duration_20250327_1910.16" depart="47.00" departLane="791826085_0" departPos="37.40" departSpeed="0.00" departDelay="12.73" arrival="107.00" arrivalLane="134193294#0_1" arrivalPos="65.09" arrivalSpeed="15.69" duration="60.00" routeLength="382.07" waitingTime="11.00" waitingCount="1" stopTime="0.00" timeLoss="35.88" rerouteNo="0" devices="tripinfo_flow_route_44_duration_20250327_1910.16" vType="car" speedFactor="0.97" vaporized=""/>
    <tripinfo id="flow_route_44_duration_20250327_1910.13" depart="37.00" departLane="791826085_0" departPos="179.12" departSpeed="0.00" departDelay="9.15" arrival="108.00" arrivalLane="134193294#0_2" arrivalPos="166.65" arrivalSpeed="14.28" duration="71.00" routeLength="341.90" waitingTime="25.00" waitingCount="1" stopTime="0.00" timeLoss="47.33" rerouteNo="0" devices="tripinfo_flow_route_44_duration_20250327_1910.13" vType="car" speedFactor="0.88" vaporized=""/>
    <tripinfo id="flow_route_46_duration_20250327_1910.5" depart="37.00" departLane="791826085_0" departPos="4.77" departSpeed="0.00" departDelay="9.73" arrival="108.00" arrivalLane="1328664748#0_1" arrivalPos="65.93" arrivalSpeed="13.19" duration="71.00" routeLength="409.95" waitingTime="17.00" waitingCount="1" stopTime="0.00" timeLoss="41.16" rerouteNo="0" devices="tripinfo_flow_route_46_duration_20250327_1910.5" vType="car" speedFactor="0.85" vaporized=""/>
    <tripinfo id="flow_route_44_duration_20250327_1910.22" depart="68.00" departLane="791826085_0" departPos="187.69" departSpeed="0.00" departDelay="20.88" arrival="108.00" arrivalLane="134193294#0_1" arrivalPos="39.07" arrivalSpeed="15.19" duration="40.00" routeLength="205.75" waitingTime="4.00" waitingCount="1" stopTime="0.00" timeLoss="26.77" rerouteNo="0" devices="tripinfo_flow_route_44_duration_20250327_1910.22" vType="car" speedFactor="1.03" vaporized=""/>
    <tripinfo id="flow_route_45_duration_20250327_1910.5" depart="22.00" departLane="791826085_0" departPos="167.25" departSpeed="0.00" departDelay="4.36" arrival="110.00" arrivalLane="485211947#0_0" arrivalPos="183.86" arrivalSpeed="16.16" duration="88.00" routeLength="352.37" waitingTime="37.00" waitingCount="1" stopTime="0.00" timeLoss="65.83" rerouteNo="0" devices="tripinfo_flow_route_45_duration_20250327_1910.5" vType="car" speedFactor="1.01" vaporized=""/>
    <tripinfo id="flow_route_46_duration_20250327_1910.6" depart="44.00" departLane="791826085_0" departPos="145.63" departSpeed="0.00" departDelay="11.28" arrival="111.00" arrivalLane="1328664748#0_1" arrivalPos="201.23" arrivalSpeed="16.26" duration="67.00" routeLength="404.39" waitingTime="19.00" waitingCount="1" stopTime="0.00" timeLoss="41.98" rerouteNo="0" devices="tripinfo_flow_route_46_duration_20250327_1910.6" vType="car" speedFactor="1.14" vaporized=""/>
    <tripinfo id="flow_route_46_duration_20250327_1910.8" depart="63.00" departLane="791826085_0" departPos="98.61" departSpeed="0.00" departDelay="19.37" arrival="112.00" arrivalLane="1328664748#0_1" arrivalPos="46.17" arrivalSpeed="12.53" duration="49.00" routeLength="296.35" waitingTime="5.00" waitingCount="1" stopTime="0.00" timeLoss="30.09" rerouteNo="0" devices="tripinfo_flow_route_46_duration_20250327_1910.8" vType="car" speedFactor="0.98" vaporized=""/>
    <tripinfo id="flow_route_46_duration_20250327_1910.7" depart="57.00" departLane="791826085_0" departPos="75.12" departSpeed="0.00" departDelay="18.82" arrival="115.00" arrivalLane="1328664748#0_1" arrivalPos="104.63" arrivalSpeed="14.78" duration="58.00" routeLength="378.30" waitingTime="6.00" waitingCount="1" stopTime="0.00" timeLoss="31.58" rerouteNo="0" devices="tripinfo_flow_route_46_duration_20250327_1910.7" vType="car" speedFactor="0.91" vaporized=""/>
    <tripinfo id="flow_route_45_duration_20250327_1910.7" depart="33.00" departLane="791826085_0" departPos="112.37" departSpeed="0.00" departDelay="8.30" arrival="116.00" arrivalLane="485211947#0_0" arrivalPos="115.85" arrivalSpeed="14.69" duration="83.00" routeLength="339.24" waitingTime="28.00" waitingCount="1" stopTime="0.00" timeLoss="60.94" rerouteNo="0" devices="tripinfo_flow_route_45_duration_20250327_1910.7" vType="car" speedFactor="1.04" vaporized=""/>
    <tripinfo id="flow_route_45_duration_20250327_1910.9" depart="41.00" departLane="791826085_0" departPos="128.32" departSpeed="0.00" departDelay="9.24" arrival="116.00" arrivalLane="485211947#0_0" arrivalPos="88.94" arrivalSpeed="12.65" duration="75.00" routeLength="296.38" waitingTime="23.00" waitingCount="1" stopTime="0.00" timeLoss="56.51" rerouteNo="0" devices="tripinfo_flow_route_45_duration_20250327_1910.9" vType="car" speedFactor="1.00" vaporized=""/>
    <tripinfo id="flow_route_44_duration_20250327_1910.17" depart="49.00" departLane="791826085_0" departPos="81.70" departSpeed="0.00" departDelay="12.59" arrival="116.00" arrivalLane="134193294#0_2" arrivalPos="162.07" arrivalSpeed="16.22" duration="67.00" routeLength="434.74" waitingTime="8.00" waitingCount="1" stopTime="0.00" timeLoss="40.01" rerouteNo="0" devices="tripinfo_flow_route_44_duration_20250327_1910.17" vType="car" speedFactor="1.02" vaporized=""/>
    <tripinfo id="flow_route_44_duration_20250327_1910.19" depart="63.00" departLane="791826085_0" departPos="113.08" departSpeed="0.00" departDelay="22.30" arrival="116.00" arrivalLane="134193294#0_1" arrivalPos="140.55" arrivalSpeed="16.29" duration="53.00" routeLength="381.84" waitingTime="4.00" waitingCount="1" stopTime="0.00" timeLoss="29.10" rerouteNo="0" devices="tripinfo_flow_route_44_duration_20250327_1910.19" vType="car" speedFactor="1.02" vaporized=""/>
    <tripinfo id="flow_route_39_duration_20250327_1910.2" depart="40.00" departLane="133126030#0_0" departPos="21.19" departSpeed="0.00" departDelay="0.00" arrival="119.00" arrivalLane="1328664748#0_1" arrivalPos="2.60" arrivalSpeed="6.25" duration="79.00" routeLength="187.62" waitingTime="49.00" waitingCount="1" stopTime="0.00" timeLoss="67.44" rerouteNo="0" devices="tripinfo_flow_route_39_duration_20250327_1910.2" vType="car" speedFactor="1.04" vaporized=""/>
    <tripinfo id="flow_route_44_duration_20250327_1910.20" depart="63.00" departLane="791826085_0" departPos="86.19" departSpeed="0.00" departDelay="20.16" arrival="119.00" arrivalLane="134193294#0_1" arrivalPos="160.59" arrivalSpeed="16.09" duration="56.00" routeLength="428.77" waitingTime="3.00" waitingCount="1" stopTime="0.00" timeLoss="28.58" rerouteNo="0" devices="tripinfo_flow_route_44_duration_20250327_1910.20" vType="car" speedFactor="0.97" vaporized=""/>
    <tripinfo id="flow_route_44_duration_20250327_1910.23" depart="68.00" departLane="791826085_0" departPos="15.97" departSpeed="0.00" departDelay="18.73" arrival="120.00" arrivalLane="134193294#0_1" arrivalPos="161.37" arrivalSpeed="15.71" duration="52.00" routeLength="499.77" waitingTime="0.00" waitingCount="0" stopTime="0.00" timeLoss="20.92" rerouteNo="0" devices="tripinfo_flow_route_44_duration_20250327_1910.23" vType="car" speedFactor="0.97" vaporized=""/>
    <tripinfo id="flow_route_45_duration_20250327_1910.6" depart="30.00" departLane="791826085_0" departPos="40.54" departSpeed="0.00" departDelay="8.83" arrival="121.00" arrivalLane="485211947#0_0" arrivalPos="113.97" arrivalSpeed="13.34" duration="91.00" routeLength="409.20" waitingTime="22.00" waitingCount="1" stopTime="0.00" timeLoss="62.45" rerouteNo="0" devices="tripinfo_flow_route_45_duration_20250327_1910.6" vType="car" speedFactor="0.90" vaporized=""/>
    <tripinfo id="flow_route_39_duration_20250327_1910.1" depart="20.00" departLane="133126030#0_0" departPos="65.19" departSpeed="0.00" departDelay="0.00" arrival="124.00" arrivalLane="1328664748#0_0" arrivalPos="46.09" arrivalSpeed="10.43" duration="104.00" routeLength="187.11" waitingTime="72.00" waitingCount="1" stopTime="0.00" timeLoss="92.33" rerouteNo="0" devices="tripinfo_flow_route_39_duration_20250327_1910.1" vType="car" speedFactor="0.99" vaporized=""/>
    <tripinfo id="flow_route_46_duration_20250327_1910.9" depart="72.00" departLane="791826085_0" departPos="92.86" departSpeed="0.00" departDelay="22.91" arrival="124.00" arrivalLane="1328664748#0_1" arrivalPos="204.25" arrivalSpeed="15.88" duration="52.00" routeLength="460.17" waitingTime="0.00" waitingCount="0" stopTime="0.00" timeLoss="22.94" rerouteNo="0" devices="tripinfo_flow_route_46_duration_20250327_1910.9" vType="car" speedFactor="0.98" vaporized=""/>
    <tripinfo id="flow_route_38_duration_20250327_1910.8" depart="32.00" departLane="133126030#0_0" departPos="181.25" departSpeed="0.00" departDelay="0.00" arrival="125.00" arrivalLane="134193294#0_0" arrivalPos="63.75" arrivalSpeed="10.52" duration="93.00" routeLength="77.37" waitingTime="75.00" waitingCount="1" stopTime="0.00" timeLoss="87.39" rerouteNo="0" devices="tripinfo_flow_route_38_duration_20250327_1910.8" vType="car" speedFactor="1.10" vaporized=""/>
    <tripinfo id="flow_route_38_duration_20250327_1910.4" depart="16.00" departLane="133126030#0_0" departPos="5.16" departSpeed="0.00" departDelay="0.00" arrival="128.00" arrivalLane="134193294#0_0" arrivalPos="26.05" arrivalSpeed="9.20" duration="112.00" routeLength="215.77" waitingTime="68.00" waitingCount="1" stopTime="0.00" timeLoss="98.04" rerouteNo="0" devices="tripinfo_flow_route_38_duration_20250327_1910.4" vType="car" speedFactor="1.13" vaporized=""/>