<?xml version="1.0" encoding="UTF-8"?>

<!-- generated on 2025-05-06 21:09:05 by Eclipse SUMO sumo Version 1.20.0
<configuration xmlns:xsi="http://www.w3.org/2001/XMLSchema-instance" xsi:noNamespaceSchemaLocation="http://sumo.dlr.de/xsd/sumoConfiguration.xsd">

    <input>
        <net-file value="osm.net.xml"/>
        <route-files value="xml/route_rl_cluster3828547534_cluster_1507433914_2954854770_2954854771_2954854772_#9more_8.rou.xml"/>
    </input>

    <output>
        <tripinfo-output value="xml/tripinfo_rl_cluster3828547534_cluster_1507433914_2954854770_2954854771_2954854772_#9more_8.xml"/>
    </output>

    <traci_server>
        <remote-port value="44149"/>
    </traci_server>

</configuration>
-->

<tripinfos xmlns:xsi="http://www.w3.org/2001/XMLSchema-instance" xsi:noNamespaceSchemaLocation="http://sumo.dlr.de/xsd/tripinfo_file.xsd">
    <tripinfo id="flow_route_6_duration_20250327_2110.0" depart="0.00" departLane="1252820505#0_0" departPos="39.30" departSpeed="0.00" departDelay="0.00" arrival="18.00" arrivalLane="379698350#0_0" arrivalPos="9.38" arrivalSpeed="14.14" duration="18.00" routeLength="129.45" waitingTime="0.00" waitingCount="0" stopTime="0.00" timeLoss="9.93" rerouteNo="0" devices="tripinfo_flow_route_6_duration_20250327_2110.0" vType="car" speedFactor="1.01" vaporized=""/>
    <tripinfo id="flow_route_22_duration_20250327_2110.0" depart="0.00" departLane="137415945#0_0" departPos="8.70" departSpeed="0.00" departDelay="0.00" arrival="25.00" arrivalLane="1342054204_0" arrivalPos="47.56" arrivalSpeed="15.23" duration="25.00" routeLength="232.19" waitingTime="0.00" waitingCount="0" stopTime="0.00" timeLoss="9.33" rerouteNo="0" devices="tripinfo_flow_route_22_duration_20250327_2110.0" vType="car" speedFactor="0.94" vaporized=""/>
    <tripinfo id="flow_route_24_duration_20250327_2110.0" depart="5.00" departLane="137415945#0_0" departPos="5.05" departSpeed="0.00" departDelay="5.00" arrival="26.00" arrivalLane="137406408#0_0" arrivalPos="0.56" arrivalSpeed="15.71" duration="21.00" routeLength="164.51" waitingTime="0.00" waitingCount="0" stopTime="0.00" timeLoss="10.63" rerouteNo="0" devices="tripinfo_flow_route_24_duration_20250327_2110.0" vType="car" speedFactor="1.09" vaporized=""/>
    <tripinfo id="flow_route_10_duration_20250327_2110.0" depart="0.00" departLane="1252820505#0_0" departPos="5.24" departSpeed="0.00" departDelay="0.00" arrival="28.00" arrivalLane="1235147073.116_0" arrivalPos="0.67" arrivalSpeed="13.77" duration="28.00" routeLength="263.17" waitingTime="0.00" waitingCount="0" stopTime="0.00" timeLoss="8.26" rerouteNo="0" devices="tripinfo_flow_route_10_duration_20250327_2110.0" vType="car" speedFactor="0.83" vaporized=""/>
    <tripinfo id="flow_route_8_duration_20250327_2110.2" depart="14.00" departLane="133000078#0_0" departPos="193.07" departSpeed="0.00" departDelay="0.67" arrival="35.00" arrivalLane="1235147073.116_0" arrivalPos="10.96" arrivalSpeed="16.31" duration="21.00" routeLength="178.07" waitingTime="0.00" waitingCount="0" stopTime="0.00" timeLoss="9.23" rerouteNo="0" devices="tripinfo_flow_route_8_duration_20250327_2110.2" vType="car" speedFactor="1.02" vaporized=""/>
    <tripinfo id="flow_route_22_duration_20250327_2110.1" depart="8.00" departLane="137415945#0_0" departPos="0.38" departSpeed="0.00" departDelay="5.27" arrival="36.00" arrivalLane="1342054204_0" arrivalPos="81.91" arrivalSpeed="16.49" duration="28.00" routeLength="274.86" waitingTime="0.00" waitingCount="0" stopTime="0.00" timeLoss="10.47" rerouteNo="0" devices="tripinfo_flow_route_22_duration_20250327_2110.1" vType="car" speedFactor="1.03" vaporized=""/>
    <tripinfo id="flow_route_8_duration_20250327_2110.0" depart="0.00" departLane="133000078#0_0" departPos="54.62" departSpeed="0.00" departDelay="0.00" arrival="37.00" arrivalLane="1235147073.116_0" arrivalPos="9.03" arrivalSpeed="16.47" duration="37.00" routeLength="314.60" waitingTime="0.00" waitingCount="0" stopTime="0.00" timeLoss="16.95" rerouteNo="0" devices="tripinfo_flow_route_8_duration_20250327_2110.0" vType="car" speedFactor="1.03" vaporized=""/>
    <tripinfo id="flow_route_22_duration_20250327_2110.2" depart="13.00" departLane="137415945#0_0" departPos="1.13" departSpeed="0.00" departDelay="7.55" arrival="37.00" arrivalLane="1342054204_0" arrivalPos="20.65" arrivalSpeed="16.10" duration="24.00" routeLength="212.85" waitingTime="0.00" waitingCount="0" stopTime="0.00" timeLoss="10.42" rerouteNo="0" devices="tripinfo_flow_route_22_duration_20250327_2110.2" vType="car" speedFactor="1.05" vaporized=""/>
    <tripinfo id="flow_route_6_duration_20250327_2110.1" depart="15.00" departLane="1252820505#0_0" departPos="50.42" departSpeed="0.00" departDelay="0.00" arrival="45.00" arrivalLane="379698350#0_0" arrivalPos="197.98" arrivalSpeed="16.21" duration="30.00" routeLength="306.93" waitingTime="0.00" waitingCount="0" stopTime="0.00" timeLoss="10.32" rerouteNo="0" devices="tripinfo_flow_route_6_duration_20250327_2110.1" vType="car" speedFactor="0.97" vaporized=""/>
    <tripinfo id="flow_route_10_duration_20250327_2110.1" depart="20.00" departLane="1252820505#0_0" departPos="7.48" departSpeed="0.00" departDelay="0.00" arrival="49.00" arrivalLane="1235147073.116_0" arrivalPos="8.37" arrivalSpeed="14.87" duration="29.00" routeLength="268.63" waitingTime="0.00" waitingCount="0" stopTime="0.00" timeLoss="10.58" rerouteNo="0" devices="tripinfo_flow_route_10_duration_20250327_2110.1" vType="car" speedFactor="0.92" vaporized=""/>
    <tripinfo id="flow_route_6_duration_20250327_2110.2" depart="31.00" departLane="1252820505#0_0" departPos="25.76" departSpeed="0.00" departDelay="1.00" arrival="50.00" arrivalLane="379698350#0_0" arrivalPos="4.92" arrivalSpeed="14.67" duration="19.00" routeLength="138.53" waitingTime="0.00" waitingCount="0" stopTime="0.00" timeLoss="10.07" rerouteNo="0" devices="tripinfo_flow_route_6_duration_20250327_2110.2" vType="car" speedFactor="0.97" vaporized=""/>
    <tripinfo id="flow_route_11_duration_20250327_2110.1" depart="31.00" departLane="1252820505#0_0" departPos="35.73" departSpeed="0.00" departDelay="1.00" arrival="51.00" arrivalLane="137406408#0_2" arrivalPos="9.67" arrivalSpeed="12.46" duration="20.00" routeLength="135.51" waitingTime="0.00" waitingCount="0" stopTime="0.00" timeLoss="11.32" rerouteNo="0" devices="tripinfo_flow_route_11_duration_20250327_2110.1" vType="car" speedFactor="1.10" vaporized=""/>
    <tripinfo id="flow_route_11_duration_20250327_2110.0" depart="0.00" departLane="1252820505#0_0" departPos="76.11" departSpeed="0.00" departDelay="0.00" arrival="52.00" arrivalLane="137406408#0_2" arrivalPos="68.60" arrivalSpeed="12.37" duration="52.00" routeLength="154.08" waitingTime="22.00" waitingCount="1" stopTime="0.00" timeLoss="42.34" rerouteNo="0" devices="tripinfo_flow_route_11_duration_20250327_2110.0" vType="car" speedFactor="1.05" vaporized=""/>
    <tripinfo id="flow_route_8_duration_20250327_2110.1" depart="7.00" departLane="133000078#0_0" departPos="32.85" departSpeed="0.00" departDelay="0.33" arrival="58.00" arrivalLane="1235147073.116_0" arrivalPos="4.62" arrivalSpeed="15.34" duration="51.00" routeLength="331.95" waitingTime="0.00" waitingCount="0" stopTime="0.00" timeLoss="30.42" rerouteNo="0" devices="tripinfo_flow_route_8_duration_20250327_2110.1" vType="car" speedFactor="1.12" vaporized=""/>
    <tripinfo id="flow_route_8_duration_20250327_2110.4" depart="27.00" departLane="133000078#0_0" departPos="120.79" departSpeed="0.00" departDelay="0.34" arrival="61.00" arrivalLane="1235147073.116_0" arrivalPos="5.97" arrivalSpeed="15.36" duration="34.00" routeLength="245.35" waitingTime="0.00" waitingCount="0" stopTime="0.00" timeLoss="17.81" rerouteNo="0" devices="tripinfo_flow_route_8_duration_20250327_2110.4" vType="car" speedFactor="0.99" vaporized=""/>
    <tripinfo id="flow_route_8_duration_20250327_2110.3" depart="20.00" departLane="133000078#0_0" departPos="70.00" departSpeed="0.00" departDelay="0.00" arrival="63.00" arrivalLane="1235147073.116_0" arrivalPos="4.27" arrivalSpeed="14.39" duration="43.00" routeLength="294.45" waitingTime="0.00" waitingCount="0" stopTime="0.00" timeLoss="20.99" rerouteNo="0" devices="tripinfo_flow_route_8_duration_20250327_2110.3" vType="car" speedFactor="0.87" vaporized=""/>
    <tripinfo id="flow_route_10_duration_20250327_2110.2" depart="40.00" departLane="1252820505#0_0" departPos="51.20" departSpeed="0.00" departDelay="0.00" arrival="66.00" arrivalLane="1235147073.116_1" arrivalPos="2.35" arrivalSpeed="13.76" duration="26.00" routeLength="218.89" waitingTime="0.00" waitingCount="0" stopTime="0.00" timeLoss="10.39" rerouteNo="0" devices="tripinfo_flow_route_10_duration_20250327_2110.2" vType="car" speedFactor="0.85" vaporized=""/>
    <tripinfo id="flow_route_8_duration_20250327_2110.6" depart="40.00" departLane="133000078#0_0" departPos="88.96" departSpeed="0.00" departDelay="0.00" arrival="73.00" arrivalLane="1235147073.116_0" arrivalPos="12.94" arrivalSpeed="14.16" duration="33.00" routeLength="284.16" waitingTime="0.00" waitingCount="0" stopTime="0.00" timeLoss="11.74" rerouteNo="0" devices="tripinfo_flow_route_8_duration_20250327_2110.6" vType="car" speedFactor="0.85" vaporized=""/>
    <tripinfo id="flow_route_6_duration_20250327_2110.3" depart="45.00" departLane="1252820505#0_0" departPos="85.26" departSpeed="0.00" departDelay="0.00" arrival="73.00" arrivalLane="379698350#0_0" arrivalPos="194.85" arrivalSpeed="16.52" duration="28.00" routeLength="268.96" waitingTime="0.00" waitingCount="0" stopTime="0.00" timeLoss="10.87" rerouteNo="0" devices="tripinfo_flow_route_6_duration_20250327_2110.3" vType="car" speedFactor="1.00" vaporized=""/>
    <tripinfo id="flow_route_8_duration_20250327_2110.5" depart="34.00" departLane="133000078#0_0" departPos="58.06" departSpeed="0.00" departDelay="0.67" arrival="77.00" arrivalLane="1235147073.116_0" arrivalPos="10.13" arrivalSpeed="16.54" duration="43.00" routeLength="312.25" waitingTime="0.00" waitingCount="0" stopTime="0.00" timeLoss="22.83" rerouteNo="0" devices="tripinfo_flow_route_8_duration_20250327_2110.5" vType="car" speedFactor="1.04" vaporized=""/>
    <tripinfo id="flow_route_8_duration_20250327_2110.7" depart="47.00" departLane="133000078#0_0" departPos="71.41" departSpeed="0.00" departDelay="0.34" arrival="79.00" arrivalLane="1235147073.116_0" arrivalPos="7.39" arrivalSpeed="16.23" duration="32.00" routeLength="296.16" waitingTime="0.00" waitingCount="0" stopTime="0.00" timeLoss="13.22" rerouteNo="0" devices="tripinfo_flow_route_8_duration_20250327_2110.7" vType="car" speedFactor="1.14" vaporized=""/>
    <tripinfo id="flow_route_5_duration_20250327_2110.0" depart="0.00" departLane="291974733#0_0" departPos="43.68" departSpeed="0.00" departDelay="0.00" arrival="89.00" arrivalLane="1342054204_0" arrivalPos="62.15" arrivalSpeed="13.27" duration="89.00" routeLength="156.72" waitingTime="61.00" waitingCount="1" stopTime="0.00" timeLoss="78.14" rerouteNo="0" devices="tripinfo_flow_route_5_duration_20250327_2110.0" vType="car" speedFactor="0.94" vaporized=""/>
    <tripinfo id="flow_route_5_duration_20250327_2110.1" depart="12.00" departLane="291974733#0_0" departPos="76.06" departSpeed="0.00" departDelay="0.00" arrival="91.00" arrivalLane="1342054204_0" arrivalPos="49.86" arrivalSpeed="13.43" duration="79.00" routeLength="112.06" waitingTime="59.00" waitingCount="1" stopTime="0.00" timeLoss="71.26" rerouteNo="0" devices="tripinfo_flow_route_5_duration_20250327_2110.1" vType="car" speedFactor="1.16" vaporized=""/>
    <tripinfo id="flow_route_5_duration_20250327_2110.2" depart="24.00" departLane="291974733#0_0" departPos="19.90" departSpeed="0.00" departDelay="0.00" arrival="91.00" arrivalLane="1342054204_0" arrivalPos="30.69" arrivalSpeed="11.48" duration="67.00" routeLength="149.04" waitingTime="37.00" waitingCount="1" stopTime="0.00" timeLoss="57.14" rerouteNo="0" devices="tripinfo_flow_route_5_duration_20250327_2110.2" vType="car" speedFactor="1.01" vaporized=""/>
    <tripinfo id="flow_route_8_duration_20250327_2110.8" depart="55.00" departLane="133000078#0_0" departPos="31.66" departSpeed="0.00" departDelay="1.67" arrival="91.00" arrivalLane="1235147073.116_0" arrivalPos="14.33" arrivalSpeed="14.61" duration="36.00" routeLength="342.85" waitingTime="0.00" waitingCount="0" stopTime="0.00" timeLoss="11.19" rerouteNo="0" devices="tripinfo_flow_route_8_duration_20250327_2110.8" vType="car" speedFactor="0.88" vaporized=""/>
    <tripinfo id="flow_route_23_duration_20250327_2110.2" depart="55.00" departLane="137415945#0_0" departPos="4.24" departSpeed="0.00" departDelay="35.00" arrival="93.00" arrivalLane="379698350#0_2" arrivalPos="36.91" arrivalSpeed="13.24" duration="38.00" routeLength="225.03" waitingTime="0.00" waitingCount="0" stopTime="0.00" timeLoss="22.43" rerouteNo="0" devices="tripinfo_flow_route_23_duration_20250327_2110.2" vType="car" speedFactor="0.93" vaporized=""/>
    <tripinfo id="flow_route_23_duration_20250327_2110.1" depart="27.00" departLane="137415945#0_0" departPos="6.53" departSpeed="0.00" departDelay="17.00" arrival="94.00" arrivalLane="379698350#0_2" arrivalPos="84.84" arrivalSpeed="14.46" duration="67.00" routeLength="270.66" waitingTime="26.00" waitingCount="1" stopTime="0.00" timeLoss="49.38" rerouteNo="0" devices="tripinfo_flow_route_23_duration_20250327_2110.1" vType="car" speedFactor="0.94" vaporized=""/>
    <tripinfo id="flow_route_23_duration_20250327_2110.0" depart="0.00" departLane="137415945#0_0" departPos="0.59" departSpeed="0.00" departDelay="0.00" arrival="96.00" arrivalLane="379698350#0_2" arrivalPos="153.67" arrivalSpeed="14.04" duration="96.00" routeLength="345.44" waitingTime="52.00" waitingCount="1" stopTime="0.00" timeLoss="71.36" rerouteNo="0" devices="tripinfo_flow_route_23_duration_20250327_2110.0" vType="car" speedFactor="0.86" vaporized=""/>
    <tripinfo id="flow_route_5_duration_20250327_2110.3" depart="36.00" departLane="291974733#0_0" departPos="34.82" departSpeed="0.00" departDelay="0.00" arrival="96.00" arrivalLane="1342054204_0" arrivalPos="62.22" arrivalSpeed="13.45" duration="60.00" routeLength="165.65" waitingTime="29.00" waitingCount="1" stopTime="0.00" timeLoss="49.48" rerouteNo="0" devices="tripinfo_flow_route_5_duration_20250327_2110.3" vType="car" speedFactor="1.09" vaporized=""/>
    <tripinfo id="flow_route_4_duration_20250327_2110.0" depart="0.00" departLane="291974733#0_0" departPos="63.06" departSpeed="0.00" departDelay="0.00" arrival="99.00" arrivalLane="379698350#0_0" arrivalPos="183.76" arrivalSpeed="16.12" duration="99.00" routeLength="311.60" waitingTime="61.00" waitingCount="1" stopTime="0.00" timeLoss="79.93" rerouteNo="0" devices="tripinfo_flow_route_4_duration_20250327_2110.0" vType="car" speedFactor="1.06" vaporized=""/>
    <tripinfo id="flow_route_5_duration_20250327_2110.4" depart="48.00" departLane="291974733#0_0" departPos="0.08" departSpeed="0.00" departDelay="0.00" arrival="99.00" arrivalLane="1342054204_0" arrivalPos="69.61" arrivalSpeed="14.34" duration="51.00" routeLength="207.78" waitingTime="14.00" waitingCount="1" stopTime="0.00" timeLoss="37.11" rerouteNo="0" devices="tripinfo_flow_route_5_duration_20250327_2110.4" vType="car" speedFactor="0.97" vaporized=""/>
    <tripinfo id="flow_route_23_duration_20250327_2110.3" depart="84.00" departLane="137415945#0_0" departPos="1.52" departSpeed="0.00" departDelay="54.00" arrival="121.00" arrivalLane="379698350#0_2" arrivalPos="190.75" arrivalSpeed="15.62" duration="37.00" routeLength="381.58" waitingTime="0.00" waitingCount="0" stopTime="0.00" timeLoss="12.33" rerouteNo="0" devices="tripinfo_flow_route_23_duration_20250327_2110.3" vType="car" speedFactor="0.96" vaporized=""/>
    <tripinfo id="flow_route_12_duration_20250327_2110.0" depart="0.00" departLane="133000078#0_0" departPos="66.48" departSpeed="0.00" departDelay="0.00" arrival="125.00" arrivalLane="1342054204_3" arrivalPos="21.59" arrivalSpeed="13.95" duration="125.00" routeLength="252.91" waitingTime="87.00" waitingCount="1" stopTime="0.00" timeLoss="107.01" rerouteNo="0" devices="tripinfo_flow_route_12_duration_20250327_2110.0" vType="car" speedFactor="0.89" vaporized=""/>
    <tripinfo id="flow_route_12_duration_20250327_2110.1" depart="10.00" departLane="133000078#0_0" departPos="54.53" departSpeed="0.00" departDelay="0.00" arrival="126.00" arrivalLane="1342054204_3" arrivalPos="10.94" arrivalSpeed="12.98" duration="116.00" routeLength="254.21" waitingTime="77.00" waitingCount="1" stopTime="0.00" timeLoss="97.86" rerouteNo="0" devices="tripinfo_flow_route_12_duration_20250327_2110.1" vType="car" speedFactor="0.88" vaporized=""/>
    <tripinfo id="flow_route_7_duration_20250327_2110.0" depart="0.00" departLane="133000078#0_0" departPos="116.92" departSpeed="0.00" departDelay="0.00" arrival="127.00" arrivalLane="137406408#0_1" arrivalPos="45.36" arrivalSpeed="15.21" duration="127.00" routeLength="233.24" waitingTime="89.00" waitingCount="1" stopTime="0.00" timeLoss="112.09" rerouteNo="0" devices="tripinfo_flow_route_7_duration_20250327_2110.0" vType="car" speedFactor="1.08" vaporized=""/>
    <tripinfo id="flow_route_7_duration_20250327_2110.1" depart="30.00" departLane="133000078#0_0" departPos="180.43" departSpeed="0.00" departDelay="0.00" arrival="127.00" arrivalLane="137406408#0_1" arrivalPos="27.94" arrivalSpeed="14.18" duration="97.00" routeLength="152.31" waitingTime="71.00" waitingCount="1" stopTime="0.00" timeLoss="87.35" rerouteNo="0" devices="tripinfo_flow_route_7_duration_20250327_2110.1" vType="car" speedFactor="1.18" vaporized=""/>
    <tripinfo id="flow_route_12_duration_20250327_2110.2" depart="20.00" departLane="133000078#0_0" departPos="117.10" departSpeed="0.00" departDelay="0.00" arrival="133.00" arrivalLane="1342054204_3" arrivalPos="80.96" arrivalSpeed="15.64" duration="113.00" routeLength="261.65" waitingTime="73.00" waitingCount="1" stopTime="0.00" timeLoss="96.08" rerouteNo="0" devices="tripinfo_flow_route_12_duration_20250327_2110.2" vType="car" speedFactor="0.95" vaporized=""/>
    <tripinfo id="flow_route_12_duration_20250327_2110.3" depart="31.00" departLane="133000078#0_0" departPos="70.80" departSpeed="0.00" departDelay="1.00" arrival="135.00" arrivalLane="1342054204_3" arrivalPos="76.37" arrivalSpeed="14.69" duration="104.00" routeLength="303.38" waitingTime="60.00" waitingCount="1" stopTime="0.00" timeLoss="83.02" rerouteNo="0" devices="tripinfo_flow_route_12_duration_20250327_2110.3" vType="car" speedFactor="0.90" vaporized=""/>
    <tripinfo id="flow_route_12_duration_20250327_2110.5" depart="51.00" departLane="133000078#0_0" departPos="175.78" departSpeed="0.00" departDelay="1.00" arrival="138.00" arrivalLane="1342054204_3" arrivalPos="80.13" arrivalSpeed="16.55" duration="87.00" routeLength="202.16" waitingTime="58.00" waitingCount="2" stopTime="0.00" timeLoss="74.40" rerouteNo="0" devices="tripinfo_flow_route_12_duration_20250327_2110.5" vType="car" speedFactor="1.08" vaporized=""/>
    <tripinfo id="flow_route_12_duration_20250327_2110.4" depart="40.00" departLane="133000078#0_0" departPos="57.25" departSpeed="0.00" departDelay="0.00" arrival="141.00" arrivalLane="1342054204_3" arrivalPos="78.89" arrivalSpeed="16.16" duration="101.00" routeLength="319.44" waitingTime="52.00" waitingCount="1" stopTime="0.00" timeLoss="81.53" rerouteNo="0" devices="tripinfo_flow_route_12_duration_20250327_2110.4" vType="car" speedFactor="1.17" vaporized=""/>
    <tripinfo id="flow_route_22_duration_20250327_2110.4" depart="30.00" departLane="137415945#0_0" departPos="5.41" departSpeed="0.00" departDelay="19.09" arrival="159.00" arrivalLane="1342054204_1" arrivalPos="19.46" arrivalSpeed="10.89" duration="129.00" routeLength="207.38" waitingTime="93.00" waitingCount="1" stopTime="0.00" timeLoss="115.60" rerouteNo="0" devices="tripinfo_flow_route_22_duration_20250327_2110.4" vType="car" speedFactor="0.94" vaporized=""/>
    <tripinfo id="flow_route_22_duration_20250327_2110.3" depart="20.00" departLane="137415945#0_0" departPos="12.63" departSpeed="0.00" departDelay="11.82" arrival="161.00" arrivalLane="1342054204_0" arrivalPos="28.90" arrivalSpeed="12.18" duration="141.00" routeLength="209.60" waitingTime="105.00" waitingCount="1" stopTime="0.00" timeLoss="126.85" rerouteNo="0" devices="tripinfo_flow_route_22_duration_20250327_2110.3" vType="car" speedFactor="0.93" vaporized=""/>
    <tripinfo id="flow_route_24_duration_20250327_2110.2" depart="41.00" departLane="137415945#0_0" departPos="8.67" departSpeed="0.00" departDelay="26.00" arrival="162.00" arrivalLane="137406408#0_0" arrivalPos="28.41" arrivalSpeed="11.16" duration="121.00" routeLength="188.74" waitingTime="87.00" waitingCount="1" stopTime="0.00" timeLoss="107.85" rerouteNo="0" devices="tripinfo_flow_route_24_duration_20250327_2110.2" vType="car" speedFactor="0.89" vaporized=""/>
    <tripinfo id="flow_route_22_duration_20250327_2110.5" depart="35.00" departLane="137415945#0_0" departPos="9.07" departSpeed="0.00" departDelay="21.37" arrival="164.00" arrivalLane="1342054204_1" arrivalPos="52.01" arrivalSpeed="13.78" duration="129.00" routeLength="236.27" waitingTime="90.00" waitingCount="2" stopTime="0.00" timeLoss="114.45" rerouteNo="0" devices="tripinfo_flow_route_22_duration_20250327_2110.5" vType="car" speedFactor="1.01" vaporized=""/>
    <tripinfo id="flow_route_22_duration_20250327_2110.7" depart="48.00" departLane="137415945#0_0" departPos="5.99" departSpeed="0.00" departDelay="28.91" arrival="164.00" arrivalLane="1342054204_0" arrivalPos="5.84" arrivalSpeed="11.82" duration="116.00" routeLength="193.19" waitingTime="81.00" waitingCount="2" stopTime="0.00" timeLoss="104.28" rerouteNo="0" devices="tripinfo_flow_route_22_duration_20250327_2110.7" vType="car" speedFactor="1.13" vaporized=""/>
    <tripinfo id="flow_route_24_duration_20250327_2110.1" depart="19.00" departLane="137415945#0_0" departPos="1.93" departSpeed="0.00" departDelay="11.50" arrival="165.00" arrivalLane="137406408#0_0" arrivalPos="88.29" arrivalSpeed="14.45" duration="146.00" routeLength="255.36" waitingTime="103.00" waitingCount="1" stopTime="0.00" timeLoss="129.76" rerouteNo="0" devices="tripinfo_flow_route_24_duration_20250327_2110.1" vType="car" speedFactor="0.99" vaporized=""/>
    <tripinfo id="flow_route_22_duration_20250327_2110.8" depart="58.00" departLane="137415945#0_0" departPos="5.66" departSpeed="0.00" departDelay="36.18" arrival="165.00" arrivalLane="1342054204_1" arrivalPos="15.76" arrivalSpeed="13.12" duration="107.00" routeLength="203.43" waitingTime="71.00" waitingCount="1" stopTime="0.00" timeLoss="94.29" rerouteNo="0" devices="tripinfo_flow_route_22_duration_20250327_2110.8" vType="car" speedFactor="1.18" vaporized=""/>
    <tripinfo id="flow_route_24_duration_20250327_2110.3" depart="62.00" departLane="137415945#0_0" departPos="1.65" departSpeed="0.00" departDelay="39.50" arrival="165.00" arrivalLane="137406408#0_0" arrivalPos="7.38" arrivalSpeed="11.01" duration="103.00" routeLength="174.74" waitingTime="68.00" waitingCount="1" stopTime="0.00" timeLoss="92.13" rerouteNo="0" devices="tripinfo_flow_route_24_duration_20250327_2110.3" vType="car" speedFactor="1.15" vaporized=""/>
    <tripinfo id="flow_route_22_duration_20250327_2110.6" depart="43.00" departLane="137415945#0_0" departPos="1.31" departSpeed="0.00" departDelay="26.64" arrival="168.00" arrivalLane="1342054204_1" arrivalPos="83.30" arrivalSpeed="13.37" duration="125.00" routeLength="275.32" waitingTime="85.00" waitingCount="1" stopTime="0.00" timeLoss="104.76" rerouteNo="0" devices="tripinfo_flow_route_22_duration_20250327_2110.6" vType="car" speedFactor="0.83" vaporized=""/>
    <tripinfo id="flow_route_22_duration_20250327_2110.9" depart="67.00" departLane="137415945#0_0" departPos="2.49" departSpeed="0.00" departDelay="42.46" arrival="170.00" arrivalLane="1342054204_1" arrivalPos="59.20" arrivalSpeed="15.40" duration="103.00" routeLength="250.04" waitingTime="64.00" waitingCount="1" stopTime="0.00" timeLoss="87.44" rerouteNo="0" devices="tripinfo_flow_route_22_duration_20250327_2110.9" vType="car" speedFactor="1.17" vaporized=""/>
    <tripinfo id="flow_route_22_duration_20250327_2110.12" depart="91.00" departLane="137415945#0_0" departPos="2.43" departSpeed="0.00" departDelay="58.28" arrival="170.00" arrivalLane="1342054204_1" arrivalPos="8.86" arrivalSpeed="13.08" duration="79.00" routeLength="199.76" waitingTime="44.00" waitingCount="2" stopTime="0.00" timeLoss="66.97" rerouteNo="0" devices="tripinfo_flow_route_22_duration_20250327_2110.12" vType="car" speedFactor="1.04" vaporized=""/>
    <tripinfo id="flow_route_22_duration_20250327_2110.10" depart="72.00" departLane="137415945#0_0" departPos="2.43" departSpeed="0.00" departDelay="44.73" arrival="171.00" arrivalLane="1342054204_0" arrivalPos="36.39" arrivalSpeed="13.76" duration="99.00" routeLength="227.29" waitingTime="60.00" waitingCount="1" stopTime="0.00" timeLoss="85.07" rerouteNo="0" devices="tripinfo_flow_route_22_duration_20250327_2110.10" vType="car" speedFactor="1.02" vaporized=""/>
    <tripinfo id="flow_route_24_duration_20250327_2110.4" depart="87.00" departLane="137415945#0_0" departPos="1.08" departSpeed="0.00" departDelay="57.00" arrival="171.00" arrivalLane="137406408#0_0" arrivalPos="45.47" arrivalSpeed="13.87" duration="84.00" routeLength="213.39" waitingTime="47.00" waitingCount="1" stopTime="0.00" timeLoss="70.98" rerouteNo="0" devices="tripinfo_flow_route_24_duration_20250327_2110.4" vType="car" speedFactor="1.09" vaporized=""/>
    <tripinfo id="flow_route_22_duration_20250327_2110.11" depart="78.00" departLane="137415945#0_0" departPos="5.13" departSpeed="0.00" departDelay="48.00" arrival="172.00" arrivalLane="1342054204_1" arrivalPos="54.54" arrivalSpeed="15.70" duration="94.00" routeLength="242.73" waitingTime="54.00" waitingCount="1" stopTime="0.00" timeLoss="78.76" rerouteNo="0" devices="tripinfo_flow_route_22_duration_20250327_2110.11" vType="car" speedFactor="1.03" vaporized=""/>
    <tripinfo id="flow_route_24_duration_20250327_2110.5" depart="102.00" departLane="137415945#0_0" departPos="2.94" departSpeed="0.00" departDelay="64.50" arrival="172.00" arrivalLane="137406408#0_0" arrivalPos="3.93" arrivalSpeed="12.83" duration="70.00" routeLength="169.99" waitingTime="37.00" waitingCount="1" stopTime="0.00" timeLoss="58.31" rerouteNo="0" devices="tripinfo_flow_route_24_duration_20250327_2110.5" vType="car" speedFactor="0.90" vaporized=""/>
    <tripinfo id="flow_route_22_duration_20250327_2110.13" depart="97.00" departLane="137415945#0_0" departPos="2.93" departSpeed="0.00" departDelay="61.55" arrival="173.00" arrivalLane="1342054204_0" arrivalPos="12.31" arrivalSpeed="14.13" duration="76.00" routeLength="202.71" waitingTime="39.00" waitingCount="1" stopTime="0.00" timeLoss="63.48" rerouteNo="0" devices="tripinfo_flow_route_22_duration_20250327_2110.13" vType="car" speedFactor="1.00" vaporized=""/>
    <tripinfo id="flow_route_22_duration_20250327_2110.14" depart="109.00" departLane="137415945#0_0" departPos="3.94" departSpeed="0.00" departDelay="70.82" arrival="176.00" arrivalLane="1342054204_1" arrivalPos="58.91" arrivalSpeed="14.53" duration="67.00" routeLength="248.29" waitingTime="26.00" waitingCount="1" stopTime="0.00" timeLoss="49.57" rerouteNo="0" devices="tripinfo_flow_route_22_duration_20250327_2110.14" vType="car" speedFactor="0.88" vaporized=""/>
    <tripinfo id="flow_route_22_duration_20250327_2110.15" depart="114.00" departLane="137415945#0_0" departPos="0.40" departSpeed="0.00" departDelay="73.10" arrival="176.00" arrivalLane="1342054204_1" arrivalPos="33.10" arrivalSpeed="14.87" duration="62.00" routeLength="226.03" waitingTime="24.00" waitingCount="1" stopTime="0.00" timeLoss="47.88" rerouteNo="0" devices="tripinfo_flow_route_22_duration_20250327_2110.15" vType="car" speedFactor="1.10" vaporized=""/>
    <tripinfo id="flow_route_22_duration_20250327_2110.18" depart="136.00" departLane="137415945#0_0" departPos="8.34" departSpeed="0.00" departDelay="86.91" arrival="177.00" arrivalLane="1342054204_1" arrivalPos="1.02" arrivalSpeed="13.81" duration="41.00" routeLength="186.00" waitingTime="8.00" waitingCount="1" stopTime="0.00" timeLoss="29.63" rerouteNo="0" devices="tripinfo_flow_route_22_duration_20250327_2110.18" vType="car" speedFactor="1.12" vaporized=""/>
    <tripinfo id="flow_route_22_duration_20250327_2110.16" depart="119.00" departLane="137415945#0_0" departPos="0.50" departSpeed="0.00" departDelay="75.37" arrival="180.00" arrivalLane="1342054204_0" arrivalPos="55.93" arrivalSpeed="16.45" duration="61.00" routeLength="248.75" waitingTime="19.00" waitingCount="1" stopTime="0.00" timeLoss="45.47" rerouteNo="0" devices="tripinfo_flow_route_22_duration_20250327_2110.16" vType="car" speedFactor="1.00" vaporized=""/>
    <tripinfo id="flow_route_24_duration_20250327_2110.6" depart="126.00" departLane="137415945#0_0" departPos="6.10" departSpeed="0.00" departDelay="81.00" arrival="180.00" arrivalLane="137406408#0_0" arrivalPos="50.69" arrivalSpeed="14.65" duration="54.00" routeLength="213.60" waitingTime="18.00" waitingCount="1" stopTime="0.00" timeLoss="38.97" rerouteNo="0" devices="tripinfo_flow_route_24_duration_20250327_2110.6" vType="car" speedFactor="0.90" vaporized=""/>
    <tripinfo id="flow_route_22_duration_20250327_2110.17" depart="130.00" departLane="137415945#0_0" departPos="1.96" departSpeed="0.00" departDelay="83.64" arrival="181.00" arrivalLane="1342054204_1" arrivalPos="78.80" arrivalSpeed="16.29" duration="51.00" routeLength="270.18" waitingTime="11.00" waitingCount="1" stopTime="0.00" timeLoss="33.83" rerouteNo="0" devices="tripinfo_flow_route_22_duration_20250327_2110.17" vType="car" speedFactor="1.02" vaporized=""/>