<?xml version="1.0" encoding="UTF-8"?>

<!-- generated on 2025-05-06 21:08:58 by Eclipse SUMO sumo Version 1.20.0
<configuration xmlns:xsi="http://www.w3.org/2001/XMLSchema-instance" xsi:noNamespaceSchemaLocation="http://sumo.dlr.de/xsd/sumoConfiguration.xsd">

    <input>
        <net-file value="osm.net.xml"/>
        <route-files value="xml/route_static_cluster3839130731_cluster_11644940326_11644940327_11648561426_7.rou.xml"/>
    </input>

    <output>
        <tripinfo-output value="xml/tripinfo_static_cluster3839130731_cluster_11644940326_11644940327_11648561426_7.xml"/>
    </output>

    <traci_server>
        <remote-port value="53773"/>
    </traci_server>

</configuration>
-->

<tripinfos xmlns:xsi="http://www.w3.org/2001/XMLSchema-instance" xsi:noNamespaceSchemaLocation="http://sumo.dlr.de/xsd/tripinfo_file.xsd">
    <tripinfo id="flow_route_96_duration_20250327_2230.0" depart="0.00" departLane="1341093416#0_0" departPos="184.53" departSpeed="0.00" departDelay="0.00" arrival="20.00" arrivalLane="1254519229#0_1" arrivalPos="3.62" arrivalSpeed="5.63" duration="20.00" routeLength="114.10" waitingTime="0.00" waitingCount="0" stopTime="0.00" timeLoss="11.88" rerouteNo="0" devices="tripinfo_flow_route_96_duration_20250327_2230.0" vType="car" speedFactor="1.01" vaporized=""/>
    <tripinfo id="flow_route_123_duration_20250327_2230.0" depart="0.00" departLane="189240000#0-AddedOnRampEdge_0" departPos="5.69" departSpeed="0.00" departDelay="0.00" arrival="22.00" arrivalLane="1254519229#0_0" arrivalPos="19.69" arrivalSpeed="11.80" duration="22.00" routeLength="156.33" waitingTime="0.00" waitingCount="0" stopTime="0.00" timeLoss="10.61" rerouteNo="0" devices="tripinfo_flow_route_123_duration_20250327_2230.0" vType="car" speedFactor="0.89" vaporized=""/>
    <tripinfo id="flow_route_111_duration_20250327_2230.0" depart="0.00" departLane="1253188486#8_0" departPos="138.93" departSpeed="0.00" departDelay="0.00" arrival="33.00" arrivalLane="1254519229#0_0" arrivalPos="3.47" arrivalSpeed="7.25" duration="33.00" routeLength="140.76" waitingTime="5.00" waitingCount="1" stopTime="0.00" timeLoss="24.12" rerouteNo="0" devices="tripinfo_flow_route_111_duration_20250327_2230.0" vType="car" speedFactor="0.83" vaporized=""/>
    <tripinfo id="flow_route_124_duration_20250327_2230.0" depart="0.00" departLane="189240000#0-AddedOnRampEdge_0" departPos="82.66" departSpeed="0.00" departDelay="0.00" arrival="35.00" arrivalLane="1254519225#0.109_3" arrivalPos="34.02" arrivalSpeed="15.49" duration="35.00" routeLength="196.39" waitingTime="3.00" waitingCount="1" stopTime="0.00" timeLoss="20.42" rerouteNo="0" devices="tripinfo_flow_route_124_duration_20250327_2230.0" vType="car" speedFactor="0.94" vaporized=""/>
    <tripinfo id="flow_route_94_duration_20250327_2230.0" depart="0.00" departLane="1341093416#0_0" departPos="204.30" departSpeed="0.00" departDelay="0.00" arrival="37.00" arrivalLane="799091563#0_0" arrivalPos="338.33" arrivalSpeed="16.37" duration="37.00" routeLength="440.38" waitingTime="0.00" waitingCount="0" stopTime="0.00" timeLoss="10.03" rerouteNo="0" devices="tripinfo_flow_route_94_duration_20250327_2230.0" vType="car" speedFactor="1.06" vaporized=""/>
    <tripinfo id="flow_route_111_duration_20250327_2230.2" depart="15.00" departLane="1253188486#8_0" departPos="230.38" departSpeed="0.00" departDelay="0.00" arrival="38.00" arrivalLane="1254519229#0_1" arrivalPos="50.41" arrivalSpeed="11.77" duration="23.00" routeLength="96.24" waitingTime="1.00" waitingCount="1" stopTime="0.00" timeLoss="16.72" rerouteNo="0" devices="tripinfo_flow_route_111_duration_20250327_2230.2" vType="car" speedFactor="1.03" vaporized=""/>
    <tripinfo id="flow_route_111_duration_20250327_2230.1" depart="8.00" departLane="1253188486#8_0" departPos="11.33" departSpeed="0.00" departDelay="0.50" arrival="40.00" arrivalLane="1254519229#0_1" arrivalPos="54.39" arrivalSpeed="13.86" duration="32.00" routeLength="319.28" waitingTime="0.00" waitingCount="0" stopTime="0.00" timeLoss="12.28" rerouteNo="0" devices="tripinfo_flow_route_111_duration_20250327_2230.1" vType="car" speedFactor="0.86" vaporized=""/>
    <tripinfo id="flow_route_111_duration_20250327_2230.3" depart="23.00" departLane="1253188486#8_0" departPos="187.56" departSpeed="0.00" departDelay="0.50" arrival="41.00" arrivalLane="1254519229#0_0" arrivalPos="24.01" arrivalSpeed="12.37" duration="18.00" routeLength="112.67" waitingTime="0.00" waitingCount="0" stopTime="0.00" timeLoss="10.83" rerouteNo="0" devices="tripinfo_flow_route_111_duration_20250327_2230.3" vType="car" speedFactor="0.93" vaporized=""/>
    <tripinfo id="flow_route_104_duration_20250327_2230.0" depart="0.00" departLane="189240001_0" departPos="36.52" departSpeed="0.00" departDelay="0.00" arrival="43.00" arrivalLane="1254519225#0.109_0" arrivalPos="30.66" arrivalSpeed="14.94" duration="43.00" routeLength="198.30" waitingTime="11.00" waitingCount="1" stopTime="0.00" timeLoss="30.90" rerouteNo="0" devices="tripinfo_flow_route_104_duration_20250327_2230.0" vType="car" speedFactor="1.08" vaporized=""/>
    <tripinfo id="flow_route_112_duration_20250327_2230.0" depart="0.00" departLane="1253188486#8_0" departPos="64.90" departSpeed="0.00" departDelay="0.00" arrival="50.00" arrivalLane="799091563#0_0" arrivalPos="282.23" arrivalSpeed="16.53" duration="50.00" routeLength="472.04" waitingTime="0.00" waitingCount="0" stopTime="0.00" timeLoss="20.33" rerouteNo="0" devices="tripinfo_flow_route_112_duration_20250327_2230.0" vType="car" speedFactor="1.05" vaporized=""/>
    <tripinfo id="flow_route_111_duration_20250327_2230.4" depart="30.00" departLane="1253188486#8_0" departPos="100.92" departSpeed="0.00" departDelay="0.00" arrival="52.00" arrivalLane="1254519229#0_1" arrivalPos="2.37" arrivalSpeed="16.36" duration="22.00" routeLength="177.67" waitingTime="0.00" waitingCount="0" stopTime="0.00" timeLoss="10.50" rerouteNo="0" devices="tripinfo_flow_route_111_duration_20250327_2230.4" vType="car" speedFactor="0.94" vaporized=""/>
    <tripinfo id="flow_route_112_duration_20250327_2230.1" depart="30.00" departLane="1253188486#8_0" departPos="236.64" departSpeed="0.00" departDelay="0.00" arrival="58.00" arrivalLane="799091563#0_0" arrivalPos="260.14" arrivalSpeed="16.32" duration="28.00" routeLength="278.20" waitingTime="0.00" waitingCount="0" stopTime="0.00" timeLoss="9.77" rerouteNo="0" devices="tripinfo_flow_route_112_duration_20250327_2230.1" vType="car" speedFactor="1.16" vaporized=""/>
    <tripinfo id="flow_route_123_duration_20250327_2230.2" depart="40.00" departLane="189240000#0-AddedOnRampEdge_0" departPos="56.29" departSpeed="0.00" departDelay="0.00" arrival="61.00" arrivalLane="1254519229#0_1" arrivalPos="7.08" arrivalSpeed="7.35" duration="21.00" routeLength="96.63" waitingTime="0.00" waitingCount="0" stopTime="0.00" timeLoss="13.38" rerouteNo="0" devices="tripinfo_flow_route_123_duration_20250327_2230.2" vType="car" speedFactor="0.83" vaporized=""/>
    <tripinfo id="flow_route_111_duration_20250327_2230.6" depart="45.00" departLane="1253188486#8_0" departPos="229.41" departSpeed="0.00" departDelay="0.00" arrival="62.00" arrivalLane="1254519229#0_0" arrivalPos="55.03" arrivalSpeed="12.00" duration="17.00" routeLength="101.85" waitingTime="0.00" waitingCount="0" stopTime="0.00" timeLoss="10.40" rerouteNo="0" devices="tripinfo_flow_route_111_duration_20250327_2230.6" vType="car" speedFactor="0.87" vaporized=""/>
    <tripinfo id="flow_route_105_duration_20250327_2230.0" depart="1.00" departLane="189240001_0" departPos="25.23" departSpeed="0.00" departDelay="1.00" arrival="65.00" arrivalLane="799091563#0_2" arrivalPos="224.02" arrivalSpeed="16.14" duration="64.00" routeLength="308.35" waitingTime="19.00" waitingCount="2" stopTime="0.00" timeLoss="45.02" rerouteNo="0" devices="tripinfo_flow_route_105_duration_20250327_2230.0" vType="car" speedFactor="1.03" vaporized=""/>
    <tripinfo id="flow_route_94_duration_20250327_2230.2" depart="40.00" departLane="1341093416#0_0" departPos="183.19" departSpeed="0.00" departDelay="0.00" arrival="66.00" arrivalLane="799091563#0_1" arrivalPos="91.66" arrivalSpeed="15.91" duration="26.00" routeLength="214.82" waitingTime="0.00" waitingCount="0" stopTime="0.00" timeLoss="12.41" rerouteNo="0" devices="tripinfo_flow_route_94_duration_20250327_2230.2" vType="car" speedFactor="0.97" vaporized=""/>
    <tripinfo id="flow_route_123_duration_20250327_2230.1" depart="20.00" departLane="189240000#0-AddedOnRampEdge_0" departPos="3.06" departSpeed="0.00" departDelay="0.00" arrival="67.00" arrivalLane="1254519229#0_0" arrivalPos="31.56" arrivalSpeed="9.15" duration="47.00" routeLength="170.83" waitingTime="15.00" waitingCount="1" stopTime="0.00" timeLoss="35.73" rerouteNo="0" devices="tripinfo_flow_route_123_duration_20250327_2230.1" vType="car" speedFactor="0.99" vaporized=""/>
    <tripinfo id="flow_route_95_duration_20250327_2230.1" depart="10.00" departLane="1341093416#0_0" departPos="84.19" departSpeed="0.00" departDelay="0.00" arrival="75.00" arrivalLane="1254519225#0.109_0" arrivalPos="32.00" arrivalSpeed="14.65" duration="65.00" routeLength="330.18" waitingTime="15.00" waitingCount="1" stopTime="0.00" timeLoss="44.14" rerouteNo="0" devices="tripinfo_flow_route_95_duration_20250327_2230.1" vType="car" speedFactor="1.09" vaporized=""/>
    <tripinfo id="flow_route_96_duration_20250327_2230.1" depart="31.00" departLane="1341093416#0_0" departPos="61.18" departSpeed="0.00" departDelay="1.00" arrival="75.00" arrivalLane="1254519229#0_1" arrivalPos="76.12" arrivalSpeed="11.05" duration="44.00" routeLength="309.95" waitingTime="1.00" waitingCount="1" stopTime="0.00" timeLoss="23.62" rerouteNo="0" devices="tripinfo_flow_route_96_duration_20250327_2230.1" vType="car" speedFactor="0.94" vaporized=""/>
    <tripinfo id="flow_route_95_duration_20250327_2230.0" depart="0.00" departLane="1341093416#0_0" departPos="1.65" departSpeed="0.00" departDelay="0.00" arrival="78.00" arrivalLane="1254519225#0.109_0" arrivalPos="44.45" arrivalSpeed="15.36" duration="78.00" routeLength="425.17" waitingTime="13.00" waitingCount="1" stopTime="0.00" timeLoss="50.37" rerouteNo="0" devices="tripinfo_flow_route_95_duration_20250327_2230.0" vType="car" speedFactor="0.94" vaporized=""/>
    <tripinfo id="flow_route_95_duration_20250327_2230.2" depart="20.00" departLane="1341093416#0_0" departPos="64.91" departSpeed="0.00" departDelay="0.00" arrival="80.00" arrivalLane="1254519225#0.109_0" arrivalPos="55.38" arrivalSpeed="16.51" duration="60.00" routeLength="372.84" waitingTime="13.00" waitingCount="1" stopTime="0.00" timeLoss="36.83" rerouteNo="0" devices="tripinfo_flow_route_95_duration_20250327_2230.2" vType="car" speedFactor="1.12" vaporized=""/>
    <tripinfo id="flow_route_124_duration_20250327_2230.1" depart="30.00" departLane="189240000#0-AddedOnRampEdge_0" departPos="24.93" departSpeed="0.00" departDelay="0.00" arrival="82.00" arrivalLane="1254519225#0.109_3" arrivalPos="20.67" arrivalSpeed="14.59" duration="52.00" routeLength="240.77" waitingTime="10.00" waitingCount="2" stopTime="0.00" timeLoss="35.74" rerouteNo="0" devices="tripinfo_flow_route_124_duration_20250327_2230.1" vType="car" speedFactor="1.02" vaporized=""/>
    <tripinfo id="flow_route_95_duration_20250327_2230.3" depart="30.00" departLane="1341093416#0_0" departPos="35.47" departSpeed="0.00" departDelay="0.00" arrival="83.00" arrivalLane="1254519225#0.109_0" arrivalPos="9.93" arrivalSpeed="14.10" duration="53.00" routeLength="356.82" waitingTime="3.00" waitingCount="1" stopTime="0.00" timeLoss="29.04" rerouteNo="0" devices="tripinfo_flow_route_95_duration_20250327_2230.3" vType="car" speedFactor="0.88" vaporized=""/>
    <tripinfo id="flow_route_95_duration_20250327_2230.4" depart="40.00" departLane="1341093416#0_0" departPos="196.20" departSpeed="0.00" departDelay="0.00" arrival="83.00" arrivalLane="1254519225#0.109_0" arrivalPos="50.64" arrivalSpeed="14.36" duration="43.00" routeLength="236.81" waitingTime="4.00" waitingCount="1" stopTime="0.00" timeLoss="26.02" rerouteNo="0" devices="tripinfo_flow_route_95_duration_20250327_2230.4" vType="car" speedFactor="0.89" vaporized=""/>
    <tripinfo id="flow_route_94_duration_20250327_2230.1" depart="20.00" departLane="1341093416#0_0" departPos="149.25" departSpeed="0.00" departDelay="0.00" arrival="86.00" arrivalLane="799091563#0_0" arrivalPos="313.01" arrivalSpeed="16.34" duration="66.00" routeLength="470.11" waitingTime="15.00" waitingCount="1" stopTime="0.00" timeLoss="37.56" rerouteNo="0" devices="tripinfo_flow_route_94_duration_20250327_2230.1" vType="car" speedFactor="1.05" vaporized=""/>
    <tripinfo id="flow_route_95_duration_20250327_2230.5" depart="50.00" departLane="1341093416#0_0" departPos="84.39" departSpeed="0.00" departDelay="0.00" arrival="88.00" arrivalLane="1254519225#0.109_0" arrivalPos="59.89" arrivalSpeed="14.96" duration="38.00" routeLength="357.87" waitingTime="0.00" waitingCount="0" stopTime="0.00" timeLoss="14.87" rerouteNo="0" devices="tripinfo_flow_route_95_duration_20250327_2230.5" vType="car" speedFactor="0.92" vaporized=""/>
    <tripinfo id="flow_route_111_duration_20250327_2230.5" depart="38.00" departLane="1253188486#8_0" departPos="140.24" departSpeed="0.00" departDelay="0.50" arrival="89.00" arrivalLane="1254519229#0_0" arrivalPos="13.36" arrivalSpeed="8.55" duration="51.00" routeLength="149.35" waitingTime="21.00" waitingCount="1" stopTime="0.00" timeLoss="41.56" rerouteNo="0" devices="tripinfo_flow_route_111_duration_20250327_2230.5" vType="car" speedFactor="1.01" vaporized=""/>
    <tripinfo id="flow_route_111_duration_20250327_2230.7" depart="53.00" departLane="1253188486#8_0" departPos="142.31" departSpeed="0.00" departDelay="0.50" arrival="92.00" arrivalLane="1254519229#0_1" arrivalPos="39.19" arrivalSpeed="10.07" duration="39.00" routeLength="173.10" waitingTime="7.00" waitingCount="1" stopTime="0.00" timeLoss="28.10" rerouteNo="0" devices="tripinfo_flow_route_111_duration_20250327_2230.7" vType="car" speedFactor="0.95" vaporized=""/>
</tripinfos>
