<?xml version="1.0" encoding="UTF-8"?>

<!-- generated on 2025-05-06 21:09:19 by Eclipse SUMO sumo Version 1.20.0
<configuration xmlns:xsi="http://www.w3.org/2001/XMLSchema-instance" xsi:noNamespaceSchemaLocation="http://sumo.dlr.de/xsd/sumoConfiguration.xsd">

    <input>
        <net-file value="osm.net.xml"/>
        <route-files value="xml/route_static_GS_cluster_1342409365_3839031467_9.rou.xml"/>
    </input>

    <output>
        <tripinfo-output value="xml/tripinfo_static_GS_cluster_1342409365_3839031467_9.xml"/>
    </output>

    <traci_server>
        <remote-port value="50515"/>
    </traci_server>

</configuration>
-->

<tripinfos xmlns:xsi="http://www.w3.org/2001/XMLSchema-instance" xsi:noNamespaceSchemaLocation="http://sumo.dlr.de/xsd/tripinfo_file.xsd">
    <tripinfo id="flow_route_128_duration_20250327_2210.0" depart="0.00" departLane="134133272_0" departPos="226.49" departSpeed="0.00" departDelay="0.00" arrival="31.00" arrivalLane="380585338#0_0" arrivalPos="7.57" arrivalSpeed="5.61" duration="31.00" routeLength="279.28" waitingTime="0.00" waitingCount="0" stopTime="0.00" timeLoss="10.64" rerouteNo="0" devices="tripinfo_flow_route_128_duration_20250327_2210.0" vType="car" speedFactor="0.83" vaporized=""/>
    <tripinfo id="flow_route_91_duration_20250327_2210.0" depart="0.00" departLane="133000063_0" departPos="128.34" departSpeed="0.00" departDelay="0.00" arrival="48.00" arrivalLane="683079387#1_0" arrivalPos="9.10" arrivalSpeed="16.56" duration="48.00" routeLength="599.49" waitingTime="0.00" waitingCount="0" stopTime="0.00" timeLoss="11.12" rerouteNo="0" devices="tripinfo_flow_route_91_duration_20250327_2210.0" vType="car" speedFactor="1.06" vaporized=""/>
    <tripinfo id="flow_route_103_duration_20250327_2210.0" depart="1.00" departLane="1342963997_0" departPos="57.81" departSpeed="0.00" departDelay="1.00" arrival="60.00" arrivalLane="683079387#1_0" arrivalPos="6.02" arrivalSpeed="16.40" duration="59.00" routeLength="524.42" waitingTime="4.00" waitingCount="1" stopTime="0.00" timeLoss="26.92" rerouteNo="0" devices="tripinfo_flow_route_103_duration_20250327_2210.0" vType="car" speedFactor="1.03" vaporized=""/>
    <tripinfo id="flow_route_93_duration_20250327_2210.0" depart="0.00" departLane="133000063_0" departPos="115.92" departSpeed="0.00" departDelay="0.00" arrival="64.00" arrivalLane="380585336_1" arrivalPos="19.16" arrivalSpeed="16.29" duration="64.00" routeLength="758.54" waitingTime="0.00" waitingCount="0" stopTime="0.00" timeLoss="17.82" rerouteNo="0" devices="tripinfo_flow_route_93_duration_20250327_2210.0" vType="car" speedFactor="1.01" vaporized=""/>
    <tripinfo id="flow_route_145_duration_20250327_2210.0" depart="0.00" departLane="683079388#0_0" departPos="22.61" departSpeed="0.00" departDelay="0.00" arrival="68.00" arrivalLane="380585336_0" arrivalPos="229.76" arrivalSpeed="15.56" duration="68.00" routeLength="831.39" waitingTime="0.00" waitingCount="0" stopTime="0.00" timeLoss="15.32" rerouteNo="0" devices="tripinfo_flow_route_145_duration_20250327_2210.0" vType="car" speedFactor="0.94" vaporized=""/>
    <tripinfo id="flow_route_102_duration_20250327_2210.0" depart="0.00" departLane="1342963997_0" departPos="83.70" departSpeed="0.00" departDelay="0.00" arrival="69.00" arrivalLane="380585336_1" arrivalPos="207.08" arrivalSpeed="16.23" duration="69.00" routeLength="834.32" waitingTime="0.00" waitingCount="0" stopTime="0.00" timeLoss="17.61" rerouteNo="0" devices="tripinfo_flow_route_102_duration_20250327_2210.0" vType="car" speedFactor="1.08" vaporized=""/>
    <tripinfo id="flow_route_129_duration_20250327_2210.0" depart="0.00" departLane="134133272_0" departPos="105.80" departSpeed="0.00" departDelay="0.00" arrival="70.00" arrivalLane="683079387#1_0" arrivalPos="7.59" arrivalSpeed="16.53" duration="70.00" routeLength="945.90" waitingTime="0.00" waitingCount="0" stopTime="0.00" timeLoss="12.30" rerouteNo="0" devices="tripinfo_flow_route_129_duration_20250327_2210.0" vType="car" speedFactor="1.05" vaporized=""/>
    <tripinfo id="flow_route_144_duration_20250327_2210.1" depart="20.00" departLane="683079388#0_0" departPos="24.70" departSpeed="0.00" departDelay="0.00" arrival="70.00" arrivalLane="380585338#0_0" arrivalPos="5.63" arrivalSpeed="9.18" duration="50.00" routeLength="560.67" waitingTime="0.00" waitingCount="0" stopTime="0.00" timeLoss="11.19" rerouteNo="0" devices="tripinfo_flow_route_144_duration_20250327_2210.1" vType="car" speedFactor="0.88" vaporized=""/>
    <tripinfo id="flow_route_144_duration_20250327_2210.0" depart="0.00" departLane="683079388#0_0" departPos="1.56" departSpeed="0.00" departDelay="0.00" arrival="72.00" arrivalLane="380585338#0_0" arrivalPos="42.98" arrivalSpeed="9.46" duration="72.00" routeLength="621.16" waitingTime="8.00" waitingCount="1" stopTime="0.00" timeLoss="29.49" rerouteNo="0" devices="tripinfo_flow_route_144_duration_20250327_2210.0" vType="car" speedFactor="0.89" vaporized=""/>
    <tripinfo id="flow_route_128_duration_20250327_2210.1" depart="30.00" departLane="134133272_0" departPos="67.18" departSpeed="0.00" departDelay="0.00" arrival="81.00" arrivalLane="380585338#0_0" arrivalPos="45.86" arrivalSpeed="8.59" duration="51.00" routeLength="476.88" waitingTime="2.00" waitingCount="1" stopTime="0.00" timeLoss="21.52" rerouteNo="0" devices="tripinfo_flow_route_128_duration_20250327_2210.1" vType="car" speedFactor="1.16" vaporized=""/>
    <tripinfo id="flow_route_93_duration_20250327_2210.2" depart="14.00" departLane="133000063_0" departPos="161.74" departSpeed="0.00" departDelay="0.67" arrival="89.00" arrivalLane="380585336_1" arrivalPos="266.92" arrivalSpeed="16.32" duration="75.00" routeLength="960.47" waitingTime="0.00" waitingCount="0" stopTime="0.00" timeLoss="16.20" rerouteNo="0" devices="tripinfo_flow_route_93_duration_20250327_2210.2" vType="car" speedFactor="1.03" vaporized=""/>
    <tripinfo id="flow_route_92_duration_20250327_2210.2" depart="18.00" departLane="133000063_0" departPos="152.88" departSpeed="0.00" departDelay="0.86" arrival="90.00" arrivalLane="186409193_0" arrivalPos="48.16" arrivalSpeed="16.50" duration="72.00" routeLength="287.13" waitingTime="33.00" waitingCount="1" stopTime="0.00" timeLoss="53.66" rerouteNo="0" devices="tripinfo_flow_route_92_duration_20250327_2210.2" vType="car" speedFactor="1.05" vaporized=""/>
    <tripinfo id="flow_route_102_duration_20250327_2210.1" depart="20.00" departLane="1342963997_0" departPos="28.57" departSpeed="0.00" departDelay="0.00" arrival="90.00" arrivalLane="380585336_1" arrivalPos="99.74" arrivalSpeed="15.21" duration="70.00" routeLength="782.12" waitingTime="0.00" waitingCount="0" stopTime="0.00" timeLoss="19.46" rerouteNo="0" devices="tripinfo_flow_route_102_duration_20250327_2210.1" vType="car" speedFactor="0.93" vaporized=""/>
    <tripinfo id="flow_route_92_duration_20250327_2210.4" depart="35.00" departLane="133000063_0" departPos="115.08" departSpeed="0.00" departDelay="0.72" arrival="92.00" arrivalLane="186409193_0" arrivalPos="47.42" arrivalSpeed="16.46" duration="57.00" routeLength="324.20" waitingTime="5.00" waitingCount="1" stopTime="0.00" timeLoss="36.42" rerouteNo="0" devices="tripinfo_flow_route_92_duration_20250327_2210.4" vType="car" speedFactor="1.01" vaporized=""/>
    <tripinfo id="flow_route_92_duration_20250327_2210.1" depart="9.00" departLane="133000063_0" departPos="52.89" departSpeed="0.00" departDelay="0.43" arrival="97.00" arrivalLane="186409193_0" arrivalPos="29.97" arrivalSpeed="15.50" duration="88.00" routeLength="368.94" waitingTime="22.00" waitingCount="3" stopTime="0.00" timeLoss="64.90" rerouteNo="0" devices="tripinfo_flow_route_92_duration_20250327_2210.1" vType="car" speedFactor="1.09" vaporized=""/>
    <tripinfo id="flow_route_92_duration_20250327_2210.3" depart="27.00" departLane="133000063_0" departPos="22.28" departSpeed="0.00" departDelay="1.29" arrival="99.00" arrivalLane="186409193_0" arrivalPos="1.74" arrivalSpeed="12.48" duration="72.00" routeLength="371.32" waitingTime="4.00" waitingCount="1" stopTime="0.00" timeLoss="46.98" rerouteNo="0" devices="tripinfo_flow_route_92_duration_20250327_2210.3" vType="car" speedFactor="0.94" vaporized=""/>
    <tripinfo id="flow_route_91_duration_20250327_2210.1" depart="20.00" departLane="133000063_0" departPos="51.98" departSpeed="0.00" departDelay="0.00" arrival="103.00" arrivalLane="683079387#1_0" arrivalPos="4.05" arrivalSpeed="16.37" duration="83.00" routeLength="670.80" waitingTime="17.00" waitingCount="1" stopTime="0.00" timeLoss="41.85" rerouteNo="0" devices="tripinfo_flow_route_91_duration_20250327_2210.1" vType="car" speedFactor="1.12" vaporized=""/>
    <tripinfo id="flow_route_92_duration_20250327_2210.0" depart="0.00" departLane="133000063_0" departPos="1.04" departSpeed="0.00" departDelay="0.00" arrival="106.00" arrivalLane="186409193_0" arrivalPos="41.62" arrivalSpeed="15.16" duration="106.00" routeLength="432.44" waitingTime="22.00" waitingCount="3" stopTime="0.00" timeLoss="77.42" rerouteNo="0" devices="tripinfo_flow_route_92_duration_20250327_2210.0" vType="car" speedFactor="0.94" vaporized=""/>
    <tripinfo id="flow_route_91_duration_20250327_2210.2" depart="43.00" departLane="133000063_0" departPos="31.58" departSpeed="0.00" departDelay="3.00" arrival="107.00" arrivalLane="683079387#1_1" arrivalPos="7.31" arrivalSpeed="16.16" duration="64.00" routeLength="694.45" waitingTime="0.00" waitingCount="0" stopTime="0.00" timeLoss="21.04" rerouteNo="0" devices="tripinfo_flow_route_91_duration_20250327_2210.2" vType="car" speedFactor="0.97" vaporized=""/>
    <tripinfo id="flow_route_92_duration_20250327_2210.5" depart="46.00" departLane="133000063_0" departPos="94.18" departSpeed="0.00" departDelay="3.15" arrival="113.00" arrivalLane="186409193_0" arrivalPos="55.79" arrivalSpeed="15.28" duration="67.00" routeLength="353.47" waitingTime="4.00" waitingCount="1" stopTime="0.00" timeLoss="42.53" rerouteNo="0" devices="tripinfo_flow_route_92_duration_20250327_2210.5" vType="car" speedFactor="0.92" vaporized=""/>
    <tripinfo id="flow_route_92_duration_20250327_2210.6" depart="52.00" departLane="133000063_0" departPos="54.06" departSpeed="0.00" departDelay="0.57" arrival="115.00" arrivalLane="186409193_0" arrivalPos="57.97" arrivalSpeed="16.37" duration="63.00" routeLength="395.77" waitingTime="0.00" waitingCount="0" stopTime="0.00" timeLoss="38.19" rerouteNo="0" devices="tripinfo_flow_route_92_duration_20250327_2210.6" vType="car" speedFactor="1.13" vaporized=""/>
    <tripinfo id="flow_route_102_duration_20250327_2210.2" depart="40.00" departLane="1342963997_0" departPos="55.27" departSpeed="0.00" departDelay="0.00" arrival="127.00" arrivalLane="380585336_0" arrivalPos="291.42" arrivalSpeed="13.28" duration="87.00" routeLength="947.10" waitingTime="0.00" waitingCount="0" stopTime="0.00" timeLoss="19.54" rerouteNo="0" devices="tripinfo_flow_route_102_duration_20250327_2210.2" vType="car" speedFactor="0.83" vaporized=""/>
    <tripinfo id="flow_route_93_duration_20250327_2210.3" depart="20.00" departLane="133000063_0" departPos="131.68" departSpeed="0.00" departDelay="0.00" arrival="137.00" arrivalLane="380585336_1" arrivalPos="229.35" arrivalSpeed="16.36" duration="117.00" routeLength="952.96" waitingTime="28.00" waitingCount="1" stopTime="0.00" timeLoss="58.81" rerouteNo="0" devices="tripinfo_flow_route_93_duration_20250327_2210.3" vType="car" speedFactor="0.99" vaporized=""/>
    <tripinfo id="flow_route_144_duration_20250327_2210.2" depart="40.00" departLane="683079388#0_0" departPos="12.72" departSpeed="0.00" departDelay="0.00" arrival="139.00" arrivalLane="380585338#0_0" arrivalPos="162.37" arrivalSpeed="14.05" duration="99.00" routeLength="729.39" waitingTime="28.00" waitingCount="1" stopTime="0.00" timeLoss="48.57" rerouteNo="0" devices="tripinfo_flow_route_144_duration_20250327_2210.2" vType="car" speedFactor="0.87" vaporized=""/>
    <tripinfo id="flow_route_93_duration_20250327_2210.1" depart="7.00" departLane="133000063_0" departPos="7.96" departSpeed="0.00" departDelay="0.33" arrival="141.00" arrivalLane="380585336_0" arrivalPos="288.04" arrivalSpeed="14.20" duration="134.00" routeLength="1135.38" waitingTime="28.00" waitingCount="1" stopTime="0.00" timeLoss="54.79" rerouteNo="0" devices="tripinfo_flow_route_93_duration_20250327_2210.1" vType="car" speedFactor="0.86" vaporized=""/>
    <tripinfo id="flow_route_93_duration_20250327_2210.5" depart="35.00" departLane="133000063_0" departPos="15.33" departSpeed="0.00" departDelay="1.67" arrival="150.00" arrivalLane="380585336_1" arrivalPos="240.85" arrivalSpeed="16.32" duration="115.00" routeLength="1080.81" waitingTime="4.00" waitingCount="1" stopTime="0.00" timeLoss="49.44" rerouteNo="0" devices="tripinfo_flow_route_93_duration_20250327_2210.5" vType="car" speedFactor="1.02" vaporized=""/>
    <tripinfo id="flow_route_93_duration_20250327_2210.4" depart="30.00" departLane="133000063_0" departPos="38.43" departSpeed="0.00" departDelay="3.34" arrival="153.00" arrivalLane="380585336_2" arrivalPos="139.60" arrivalSpeed="15.34" duration="123.00" routeLength="956.46" waitingTime="12.00" waitingCount="2" stopTime="0.00" timeLoss="61.08" rerouteNo="0" devices="tripinfo_flow_route_93_duration_20250327_2210.4" vType="car" speedFactor="0.94" vaporized=""/>
    <tripinfo id="flow_route_93_duration_20250327_2210.6" depart="45.00" departLane="133000063_0" departPos="4.79" departSpeed="0.00" departDelay="5.00" arrival="159.00" arrivalLane="380585336_0" arrivalPos="251.23" arrivalSpeed="14.48" duration="114.00" routeLength="1101.72" waitingTime="0.00" waitingCount="0" stopTime="0.00" timeLoss="40.23" rerouteNo="0" devices="tripinfo_flow_route_93_duration_20250327_2210.6" vType="car" speedFactor="0.89" vaporized=""/>
    <tripinfo id="flow_route_93_duration_20250327_2210.8" depart="54.00" departLane="133000063_0" departPos="14.82" departSpeed="0.00" departDelay="0.67" arrival="187.00" arrivalLane="380585336_1" arrivalPos="142.85" arrivalSpeed="15.49" duration="133.00" routeLength="983.32" waitingTime="30.00" waitingCount="2" stopTime="0.00" timeLoss="69.27" rerouteNo="0" devices="tripinfo_flow_route_93_duration_20250327_2210.8" vType="car" speedFactor="0.93" vaporized=""/>
    <tripinfo id="flow_route_93_duration_20250327_2210.7" depart="48.00" departLane="133000063_0" departPos="30.83" departSpeed="0.00" departDelay="1.34" arrival="204.00" arrivalLane="380585336_0" arrivalPos="391.07" arrivalSpeed="15.61" duration="156.00" routeLength="1215.53" waitingTime="37.00" waitingCount="1" stopTime="0.00" timeLoss="79.22" rerouteNo="0" devices="tripinfo_flow_route_93_duration_20250327_2210.7" vType="car" speedFactor="0.95" vaporized=""/>
</tripinfos>
