<?xml version="1.0" encoding="UTF-8"?>

<!-- generated on 2025-05-06 21:08:05 by Eclipse SUMO sumo Version 1.20.0
<configuration xmlns:xsi="http://www.w3.org/2001/XMLSchema-instance" xsi:noNamespaceSchemaLocation="http://sumo.dlr.de/xsd/sumoConfiguration.xsd">

    <input>
        <net-file value="osm.net.xml"/>
        <route-files value="xml/route_static_cluster_4110471701_632031939_2.rou.xml"/>
    </input>

    <output>
        <tripinfo-output value="xml/tripinfo_static_cluster_4110471701_632031939_2.xml"/>
    </output>

    <traci_server>
        <remote-port value="40653"/>
    </traci_server>

</configuration>
-->

<tripinfos xmlns:xsi="http://www.w3.org/2001/XMLSchema-instance" xsi:noNamespaceSchemaLocation="http://sumo.dlr.de/xsd/tripinfo_file.xsd">
    <tripinfo id="flow_route_83_duration_20250327_2110.0" depart="0.00" departLane="423956929_0" departPos="101.16" departSpeed="0.00" departDelay="0.00" arrival="21.00" arrivalLane="186407685_0" arrivalPos="8.05" arrivalSpeed="7.02" duration="21.00" routeLength="101.45" waitingTime="0.00" waitingCount="0" stopTime="0.00" timeLoss="14.22" rerouteNo="0" devices="tripinfo_flow_route_83_duration_20250327_2110.0" vType="car" speedFactor="1.01" vaporized=""/>
    <tripinfo id="flow_route_62_duration_20250327_2110.0" depart="0.00" departLane="409155823_0" departPos="65.43" departSpeed="0.00" departDelay="0.00" arrival="23.00" arrivalLane="1091883842_0" arrivalPos="165.47" arrivalSpeed="16.20" duration="23.00" routeLength="205.45" waitingTime="0.00" waitingCount="0" stopTime="0.00" timeLoss="10.51" rerouteNo="0" devices="tripinfo_flow_route_62_duration_20250327_2110.0" vType="car" speedFactor="1.06" vaporized=""/>
    <tripinfo id="flow_route_82_duration_20250327_2110.0" depart="0.00" departLane="423956929_0" departPos="45.92" departSpeed="0.00" departDelay="0.00" arrival="24.00" arrivalLane="186407684#0_1" arrivalPos="62.79" arrivalSpeed="15.49" duration="24.00" routeLength="219.95" waitingTime="0.00" waitingCount="0" stopTime="0.00" timeLoss="9.24" rerouteNo="0" devices="tripinfo_flow_route_82_duration_20250327_2110.0" vType="car" speedFactor="0.94" vaporized=""/>
    <tripinfo id="flow_route_83_duration_20250327_2110.1" depart="9.00" departLane="423956929_0" departPos="164.68" departSpeed="0.00" departDelay="0.43" arrival="29.00" arrivalLane="186407685_0" arrivalPos="112.17" arrivalSpeed="14.68" duration="20.00" routeLength="142.05" waitingTime="0.00" waitingCount="0" stopTime="0.00" timeLoss="9.75" rerouteNo="0" devices="tripinfo_flow_route_83_duration_20250327_2110.1" vType="car" speedFactor="1.03" vaporized=""/>
    <tripinfo id="flow_route_62_duration_20250327_2110.1" depart="8.00" departLane="409155823_0" departPos="45.16" departSpeed="0.00" departDelay="0.50" arrival="31.00" arrivalLane="1091883842_0" arrivalPos="126.95" arrivalSpeed="14.28" duration="23.00" routeLength="187.21" waitingTime="0.00" waitingCount="0" stopTime="0.00" timeLoss="9.90" rerouteNo="0" devices="tripinfo_flow_route_62_duration_20250327_2110.1" vType="car" speedFactor="0.86" vaporized=""/>
    <tripinfo id="flow_route_88_duration_20250327_2110.0" depart="0.00" departLane="430416184_0" departPos="194.63" departSpeed="0.00" departDelay="0.00" arrival="42.00" arrivalLane="186407684#0_1" arrivalPos="3.84" arrivalSpeed="7.81" duration="42.00" routeLength="126.85" waitingTime="14.00" waitingCount="1" stopTime="0.00" timeLoss="32.51" rerouteNo="0" devices="tripinfo_flow_route_88_duration_20250327_2110.0" vType="car" speedFactor="0.83" vaporized=""/>
    <tripinfo id="flow_route_87_duration_20250327_2110.1" depart="7.00" departLane="430416184_0" departPos="253.21" departSpeed="0.00" departDelay="1.00" arrival="45.00" arrivalLane="1091883842_0" arrivalPos="105.16" arrivalSpeed="12.82" duration="38.00" routeLength="152.40" waitingTime="10.00" waitingCount="1" stopTime="0.00" timeLoss="26.67" rerouteNo="0" devices="tripinfo_flow_route_87_duration_20250327_2110.1" vType="car" speedFactor="0.89" vaporized=""/>
    <tripinfo id="flow_route_86_duration_20250327_2110.1" depart="9.00" departLane="430416184_0" departPos="238.38" departSpeed="0.00" departDelay="1.50" arrival="45.00" arrivalLane="186407685_1" arrivalPos="8.18" arrivalSpeed="9.69" duration="36.00" routeLength="93.68" waitingTime="12.00" waitingCount="1" stopTime="0.00" timeLoss="29.91" rerouteNo="0" devices="tripinfo_flow_route_86_duration_20250327_2110.1" vType="car" speedFactor="1.09" vaporized=""/>
    <tripinfo id="flow_route_86_duration_20250327_2110.0" depart="0.00" departLane="430416184_0" departPos="215.48" departSpeed="0.00" departDelay="0.00" arrival="48.00" arrivalLane="186407685_1" arrivalPos="87.02" arrivalSpeed="13.20" duration="48.00" routeLength="195.42" waitingTime="14.00" waitingCount="1" stopTime="0.00" timeLoss="36.06" rerouteNo="0" devices="tripinfo_flow_route_86_duration_20250327_2110.0" vType="car" speedFactor="1.08" vaporized=""/>
    <tripinfo id="flow_route_88_duration_20250327_2110.13" depart="38.00" departLane="430416184_0" departPos="282.49" departSpeed="0.00" departDelay="0.86" arrival="53.00" arrivalLane="186407684#0_1" arrivalPos="51.56" arrivalSpeed="10.94" duration="15.00" routeLength="86.70" waitingTime="0.00" waitingCount="0" stopTime="0.00" timeLoss="8.96" rerouteNo="0" devices="tripinfo_flow_route_88_duration_20250327_2110.13" vType="car" speedFactor="1.10" vaporized=""/>
    <tripinfo id="flow_route_88_duration_20250327_2110.1" depart="3.00" departLane="430416184_0" departPos="130.75" departSpeed="0.00" departDelay="0.14" arrival="58.00" arrivalLane="186407684#0_1" arrivalPos="41.08" arrivalSpeed="10.86" duration="55.00" routeLength="227.97" waitingTime="12.00" waitingCount="3" stopTime="0.00" timeLoss="40.07" rerouteNo="0" devices="tripinfo_flow_route_88_duration_20250327_2110.1" vType="car" speedFactor="1.05" vaporized=""/>
    <tripinfo id="flow_route_88_duration_20250327_2110.8" depart="23.00" departLane="430416184_0" departPos="270.41" departSpeed="0.00" departDelay="0.14" arrival="58.00" arrivalLane="186407684#0_1" arrivalPos="63.06" arrivalSpeed="12.03" duration="35.00" routeLength="110.28" waitingTime="10.00" waitingCount="3" stopTime="0.00" timeLoss="25.79" rerouteNo="0" devices="tripinfo_flow_route_88_duration_20250327_2110.8" vType="car" speedFactor="0.83" vaporized=""/>
    <tripinfo id="flow_route_87_duration_20250327_2110.0" depart="0.00" departLane="430416184_0" departPos="1.75" departSpeed="0.00" departDelay="0.00" arrival="59.00" arrivalLane="1091883842_0" arrivalPos="109.56" arrivalSpeed="13.97" duration="59.00" routeLength="408.27" waitingTime="0.00" waitingCount="0" stopTime="0.00" timeLoss="33.50" rerouteNo="0" devices="tripinfo_flow_route_87_duration_20250327_2110.0" vType="car" speedFactor="1.03" vaporized=""/>
    <tripinfo id="flow_route_86_duration_20250327_2110.2" depart="15.00" departLane="430416184_0" departPos="198.12" departSpeed="0.00" departDelay="0.00" arrival="61.00" arrivalLane="186407685_1" arrivalPos="28.17" arrivalSpeed="11.66" duration="46.00" routeLength="153.94" waitingTime="3.00" waitingCount="1" stopTime="0.00" timeLoss="36.52" rerouteNo="0" devices="tripinfo_flow_route_86_duration_20250327_2110.2" vType="car" speedFactor="0.88" vaporized=""/>
    <tripinfo id="flow_route_88_duration_20250327_2110.7" depart="21.00" departLane="430416184_0" departPos="234.74" departSpeed="0.00" departDelay="1.00" arrival="61.00" arrivalLane="186407684#0_1" arrivalPos="50.38" arrivalSpeed="12.63" duration="40.00" routeLength="133.27" waitingTime="5.00" waitingCount="2" stopTime="0.00" timeLoss="30.52" rerouteNo="0" devices="tripinfo_flow_route_88_duration_20250327_2110.7" vType="car" speedFactor="1.01" vaporized=""/>
    <tripinfo id="flow_route_87_duration_20250327_2110.4" depart="27.00" departLane="430416184_0" departPos="185.56" departSpeed="0.00" departDelay="3.00" arrival="63.00" arrivalLane="1091883842_0" arrivalPos="178.27" arrivalSpeed="14.50" duration="36.00" routeLength="293.16" waitingTime="0.00" waitingCount="0" stopTime="0.00" timeLoss="14.89" rerouteNo="0" devices="tripinfo_flow_route_87_duration_20250327_2110.4" vType="car" speedFactor="0.87" vaporized=""/>
    <tripinfo id="flow_route_88_duration_20250327_2110.2" depart="7.00" departLane="430416184_0" departPos="93.11" departSpeed="0.00" departDelay="1.29" arrival="66.00" arrivalLane="186407684#0_1" arrivalPos="23.31" arrivalSpeed="11.46" duration="59.00" routeLength="247.83" waitingTime="1.00" waitingCount="1" stopTime="0.00" timeLoss="42.38" rerouteNo="0" devices="tripinfo_flow_route_88_duration_20250327_2110.2" vType="car" speedFactor="0.94" vaporized=""/>
    <tripinfo id="flow_route_88_duration_20250327_2110.3" depart="9.00" departLane="430416184_0" departPos="114.69" departSpeed="0.00" departDelay="0.43" arrival="66.00" arrivalLane="186407684#0_1" arrivalPos="82.76" arrivalSpeed="14.90" duration="57.00" routeLength="285.70" waitingTime="2.00" waitingCount="1" stopTime="0.00" timeLoss="38.66" rerouteNo="0" devices="tripinfo_flow_route_88_duration_20250327_2110.3" vType="car" speedFactor="1.05" vaporized=""/>
    <tripinfo id="flow_route_86_duration_20250327_2110.3" depart="23.00" departLane="430416184_0" departPos="200.01" departSpeed="0.00" departDelay="0.50" arrival="70.00" arrivalLane="186407685_1" arrivalPos="118.31" arrivalSpeed="16.16" duration="47.00" routeLength="242.18" waitingTime="3.00" waitingCount="1" stopTime="0.00" timeLoss="32.40" rerouteNo="0" devices="tripinfo_flow_route_86_duration_20250327_2110.3" vType="car" speedFactor="0.89" vaporized=""/>
    <tripinfo id="flow_route_83_duration_20250327_2110.2" depart="18.00" departLane="423956929_0" departPos="48.99" departSpeed="0.00" departDelay="0.86" arrival="77.00" arrivalLane="186407685_0" arrivalPos="22.20" arrivalSpeed="7.74" duration="59.00" routeLength="167.77" waitingTime="28.00" waitingCount="1" stopTime="0.00" timeLoss="47.01" rerouteNo="0" devices="tripinfo_flow_route_83_duration_20250327_2110.2" vType="car" speedFactor="0.94" vaporized=""/>
    <tripinfo id="flow_route_62_duration_20250327_2110.3" depart="23.00" departLane="409155823_0" departPos="52.49" departSpeed="0.00" departDelay="0.50" arrival="79.00" arrivalLane="1091883842_0" arrivalPos="16.53" arrivalSpeed="8.10" duration="56.00" routeLength="69.46" waitingTime="35.00" waitingCount="1" stopTime="0.00" timeLoss="51.44" rerouteNo="0" devices="tripinfo_flow_route_62_duration_20250327_2110.3" vType="car" speedFactor="0.97" vaporized=""/>
    <tripinfo id="flow_route_62_duration_20250327_2110.4" depart="30.00" departLane="409155823_0" departPos="87.35" departSpeed="0.00" departDelay="0.00" arrival="84.00" arrivalLane="1091883842_0" arrivalPos="101.54" arrivalSpeed="14.46" duration="54.00" routeLength="119.60" waitingTime="37.00" waitingCount="1" stopTime="0.00" timeLoss="45.45" rerouteNo="0" devices="tripinfo_flow_route_62_duration_20250327_2110.4" vType="car" speedFactor="0.93" vaporized=""/>
    <tripinfo id="flow_route_62_duration_20250327_2110.5" depart="38.00" departLane="409155823_0" departPos="36.72" departSpeed="0.00" departDelay="0.50" arrival="85.00" arrivalLane="1091883842_2" arrivalPos="95.24" arrivalSpeed="14.19" duration="47.00" routeLength="163.92" waitingTime="16.00" waitingCount="1" stopTime="0.00" timeLoss="36.06" rerouteNo="0" devices="tripinfo_flow_route_62_duration_20250327_2110.5" vType="car" speedFactor="0.97" vaporized=""/>
    <tripinfo id="flow_route_83_duration_20250327_2110.3" depart="26.00" departLane="423956929_0" departPos="34.02" departSpeed="0.00" departDelay="0.29" arrival="87.00" arrivalLane="186407685_0" arrivalPos="102.71" arrivalSpeed="14.17" duration="61.00" routeLength="263.25" waitingTime="20.00" waitingCount="1" stopTime="0.00" timeLoss="42.80" rerouteNo="0" devices="tripinfo_flow_route_83_duration_20250327_2110.3" vType="car" speedFactor="0.92" vaporized=""/>
    <tripinfo id="flow_route_83_duration_20250327_2110.6" depart="52.00" departLane="423956929_0" departPos="89.06" departSpeed="0.00" departDelay="0.57" arrival="87.00" arrivalLane="186407685_0" arrivalPos="24.99" arrivalSpeed="8.62" duration="35.00" routeLength="130.50" waitingTime="5.00" waitingCount="1" stopTime="0.00" timeLoss="25.37" rerouteNo="0" devices="tripinfo_flow_route_83_duration_20250327_2110.6" vType="car" speedFactor="0.88" vaporized=""/>
    <tripinfo id="flow_route_62_duration_20250327_2110.7" depart="55.00" departLane="409155823_0" departPos="37.93" departSpeed="0.00" departDelay="2.50" arrival="87.00" arrivalLane="1091883842_0" arrivalPos="72.55" arrivalSpeed="12.62" duration="32.00" routeLength="140.03" waitingTime="2.00" waitingCount="1" stopTime="0.00" timeLoss="21.56" rerouteNo="0" devices="tripinfo_flow_route_62_duration_20250327_2110.7" vType="car" speedFactor="0.85" vaporized=""/>
    <tripinfo id="flow_route_62_duration_20250327_2110.2" depart="15.00" departLane="409155823_0" departPos="2.63" departSpeed="0.00" departDelay="0.00" arrival="88.00" arrivalLane="1091883842_1" arrivalPos="141.98" arrivalSpeed="15.10" duration="73.00" routeLength="244.76" waitingTime="36.00" waitingCount="1" stopTime="0.00" timeLoss="56.33" rerouteNo="0" devices="tripinfo_flow_route_62_duration_20250327_2110.2" vType="car" speedFactor="0.93" vaporized=""/>
    <tripinfo id="flow_route_83_duration_20250327_2110.5" depart="46.00" departLane="423956929_0" departPos="129.78" departSpeed="0.00" departDelay="3.15" arrival="89.00" arrivalLane="186407685_0" arrivalPos="110.71" arrivalSpeed="14.75" duration="43.00" routeLength="175.49" waitingTime="13.00" waitingCount="1" stopTime="0.00" timeLoss="31.26" rerouteNo="0" devices="tripinfo_flow_route_83_duration_20250327_2110.5" vType="car" speedFactor="0.96" vaporized=""/>
    <tripinfo id="flow_route_62_duration_20250327_2110.6" depart="45.00" departLane="409155823_0" departPos="26.09" departSpeed="0.00" departDelay="0.00" arrival="91.00" arrivalLane="1091883842_1" arrivalPos="162.28" arrivalSpeed="16.41" duration="46.00" routeLength="241.60" waitingTime="11.00" waitingCount="1" stopTime="0.00" timeLoss="30.54" rerouteNo="0" devices="tripinfo_flow_route_62_duration_20250327_2110.6" vType="car" speedFactor="1.04" vaporized=""/>
    <tripinfo id="flow_route_83_duration_20250327_2110.4" depart="35.00" departLane="423956929_0" departPos="53.81" departSpeed="0.00" departDelay="0.72" arrival="92.00" arrivalLane="186407685_0" arrivalPos="127.82" arrivalSpeed="15.46" duration="57.00" routeLength="268.57" waitingTime="12.00" waitingCount="1" stopTime="0.00" timeLoss="39.91" rerouteNo="0" devices="tripinfo_flow_route_83_duration_20250327_2110.4" vType="car" speedFactor="1.17" vaporized=""/>
    <tripinfo id="flow_route_87_duration_20250327_2110.7" depart="43.00" departLane="430416184_0" departPos="142.48" departSpeed="0.00" departDelay="1.00" arrival="92.00" arrivalLane="1091883842_0" arrivalPos="19.45" arrivalSpeed="7.59" duration="49.00" routeLength="177.42" waitingTime="2.00" waitingCount="1" stopTime="0.00" timeLoss="37.48" rerouteNo="0" devices="tripinfo_flow_route_87_duration_20250327_2110.7" vType="car" speedFactor="1.03" vaporized=""/>
    <tripinfo id="flow_route_87_duration_20250327_2110.3" depart="18.00" departLane="430416184_0" departPos="64.53" departSpeed="0.00" departDelay="0.00" arrival="94.00" arrivalLane="1091883842_0" arrivalPos="76.39" arrivalSpeed="11.31" duration="76.00" routeLength="312.31" waitingTime="8.00" waitingCount="2" stopTime="0.00" timeLoss="56.43" rerouteNo="0" devices="tripinfo_flow_route_87_duration_20250327_2110.3" vType="car" speedFactor="1.16" vaporized=""/>
    <tripinfo id="flow_route_87_duration_20250327_2110.5" depart="34.00" departLane="430416184_0" departPos="13.55" departSpeed="0.00" departDelay="4.00" arrival="96.00" arrivalLane="1091883842_0" arrivalPos="12.44" arrivalSpeed="8.00" duration="62.00" routeLength="299.34" waitingTime="1.00" waitingCount="1" stopTime="0.00" timeLoss="43.17" rerouteNo="0" devices="tripinfo_flow_route_87_duration_20250327_2110.5" vType="car" speedFactor="1.15" vaporized=""/>
    <tripinfo id="flow_route_87_duration_20250327_2110.2" depart="12.00" departLane="430416184_0" departPos="9.37" departSpeed="0.00" departDelay="0.00" arrival="99.00" arrivalLane="1091883842_0" arrivalPos="101.08" arrivalSpeed="12.71" duration="87.00" routeLength="392.16" waitingTime="7.00" waitingCount="2" stopTime="0.00" timeLoss="61.97" rerouteNo="0" devices="tripinfo_flow_route_87_duration_20250327_2110.2" vType="car" speedFactor="1.12" vaporized=""/>
    <tripinfo id="flow_route_87_duration_20250327_2110.6" depart="37.00" departLane="430416184_0" departPos="112.71" departSpeed="0.00" departDelay="1.00" arrival="103.00" arrivalLane="1091883842_0" arrivalPos="126.04" arrivalSpeed="16.14" duration="66.00" routeLength="313.78" waitingTime="2.00" waitingCount="1" stopTime="0.00" timeLoss="45.52" rerouteNo="0" devices="tripinfo_flow_route_87_duration_20250327_2110.6" vType="car" speedFactor="1.02" vaporized=""/>
    <tripinfo id="flow_route_87_duration_20250327_2110.9" depart="56.00" departLane="430416184_0" departPos="80.19" departSpeed="0.00" departDelay="2.00" arrival="103.00" arrivalLane="1091883842_0" arrivalPos="28.52" arrivalSpeed="8.96" duration="47.00" routeLength="248.78" waitingTime="0.00" waitingCount="0" stopTime="0.00" timeLoss="30.99" rerouteNo="0" devices="tripinfo_flow_route_87_duration_20250327_2110.9" vType="car" speedFactor="1.02" vaporized=""/>
    <tripinfo id="flow_route_87_duration_20250327_2110.8" depart="49.00" departLane="430416184_0" departPos="81.32" departSpeed="0.00" departDelay="1.00" arrival="105.00" arrivalLane="1091883842_0" arrivalPos="86.60" arrivalSpeed="13.33" duration="56.00" routeLength="305.73" waitingTime="0.00" waitingCount="0" stopTime="0.00" timeLoss="36.43" rerouteNo="0" devices="tripinfo_flow_route_87_duration_20250327_2110.8" vType="car" speedFactor="1.00" vaporized=""/>
    <tripinfo id="flow_route_88_duration_20250327_2110.4" depart="12.00" departLane="430416184_0" departPos="87.27" departSpeed="0.00" departDelay="0.57" arrival="116.00" arrivalLane="186407684#0_1" arrivalPos="20.86" arrivalSpeed="9.95" duration="104.00" routeLength="251.23" waitingTime="32.00" waitingCount="3" stopTime="0.00" timeLoss="87.81" rerouteNo="0" devices="tripinfo_flow_route_88_duration_20250327_2110.4" vType="car" speedFactor="0.99" vaporized=""/>
    <tripinfo id="flow_route_88_duration_20250327_2110.19" depart="60.00" departLane="430416184_0" departPos="247.71" departSpeed="0.00" departDelay="5.72" arrival="116.00" arrivalLane="186407684#0_1" arrivalPos="58.46" arrivalSpeed="11.35" duration="56.00" routeLength="128.38" waitingTime="29.00" waitingCount="1" stopTime="0.00" timeLoss="47.01" rerouteNo="0" devices="tripinfo_flow_route_88_duration_20250327_2110.19" vType="car" speedFactor="1.10" vaporized=""/>
    <tripinfo id="flow_route_88_duration_20250327_2110.20" depart="61.00" departLane="430416184_0" departPos="237.45" departSpeed="0.00" departDelay="3.86" arrival="117.00" arrivalLane="186407684#0_1" arrivalPos="52.23" arrivalSpeed="11.60" duration="56.00" routeLength="132.41" waitingTime="27.00" waitingCount="1" stopTime="0.00" timeLoss="46.73" rerouteNo="0" devices="tripinfo_flow_route_88_duration_20250327_2110.20" vType="car" speedFactor="1.00" vaporized=""/>
    <tripinfo id="flow_route_86_duration_20250327_2110.7" depart="53.00" departLane="430416184_0" departPos="244.51" departSpeed="0.00" departDelay="0.50" arrival="118.00" arrivalLane="186407685_1" arrivalPos="119.58" arrivalSpeed="15.89" duration="65.00" routeLength="198.95" waitingTime="33.00" waitingCount="2" stopTime="0.00" timeLoss="52.72" rerouteNo="0" devices="tripinfo_flow_route_86_duration_20250327_2110.7" vType="car" speedFactor="1.17" vaporized=""/>
    <tripinfo id="flow_route_88_duration_20250327_2110.12" depart="37.00" departLane="430416184_0" departPos="177.89" departSpeed="0.00" departDelay="2.72" arrival="121.00" arrivalLane="186407684#0_1" arrivalPos="31.01" arrivalSpeed="11.24" duration="84.00" routeLength="170.75" waitingTime="29.00" waitingCount="2" stopTime="0.00" timeLoss="72.84" rerouteNo="0" devices="tripinfo_flow_route_88_duration_20250327_2110.12" vType="car" speedFactor="0.99" vaporized=""/>
    <tripinfo id="flow_route_88_duration_20250327_2110.5" depart="16.00" departLane="430416184_0" departPos="37.41" departSpeed="0.00" departDelay="1.72" arrival="123.00" arrivalLane="186407684#0_1" arrivalPos="84.30" arrivalSpeed="14.45" duration="107.00" routeLength="364.52" waitingTime="31.00" waitingCount="2" stopTime="0.00" timeLoss="83.56" rerouteNo="0" devices="tripinfo_flow_route_88_duration_20250327_2110.5" vType="car" speedFactor="0.94" vaporized=""/>
    <tripinfo id="flow_route_88_duration_20250327_2110.15" depart="43.00" departLane="430416184_0" departPos="205.54" departSpeed="0.00" departDelay="0.15" arrival="127.00" arrivalLane="186407684#0_1" arrivalPos="81.51" arrivalSpeed="14.94" duration="84.00" routeLength="193.60" waitingTime="36.00" waitingCount="5" stopTime="0.00" timeLoss="71.20" rerouteNo="0" devices="tripinfo_flow_route_88_duration_20250327_2110.15" vType="car" speedFactor="1.09" vaporized=""/>
    <tripinfo id="flow_route_88_duration_20250327_2110.9" depart="27.00" departLane="430416184_0" departPos="43.91" departSpeed="0.00" departDelay="1.29" arrival="128.00" arrivalLane="186407684#0_1" arrivalPos="14.84" arrivalSpeed="11.10" duration="101.00" routeLength="288.56" waitingTime="25.00" waitingCount="2" stopTime="0.00" timeLoss="81.88" rerouteNo="0" devices="tripinfo_flow_route_88_duration_20250327_2110.9" vType="car" speedFactor="0.95" vaporized=""/>
    <tripinfo id="flow_route_88_duration_20250327_2110.10" depart="30.00" departLane="430416184_0" departPos="51.76" departSpeed="0.00" departDelay="1.43" arrival="128.00" arrivalLane="186407684#0_1" arrivalPos="2.45" arrivalSpeed="11.51" duration="98.00" routeLength="268.32" waitingTime="25.00" waitingCount="2" stopTime="0.00" timeLoss="81.35" rerouteNo="0" devices="tripinfo_flow_route_88_duration_20250327_2110.10" vType="car" speedFactor="1.13" vaporized=""/>
    <tripinfo id="flow_route_88_duration_20250327_2110.6" depart="18.00" departLane="430416184_0" departPos="48.57" departSpeed="0.00" departDelay="0.86" arrival="131.00" arrivalLane="186407684#0_1" arrivalPos="85.01" arrivalSpeed="16.43" duration="113.00" routeLength="354.07" waitingTime="26.00" waitingCount="3" stopTime="0.00" timeLoss="90.29" rerouteNo="0" devices="tripinfo_flow_route_88_duration_20250327_2110.6" vType="car" speedFactor="1.02" vaporized=""/>
    <tripinfo id="flow_route_86_duration_20250327_2110.4" depart="32.00" departLane="430416184_0" departPos="164.01" departSpeed="0.00" departDelay="2.00" arrival="134.00" arrivalLane="186407685_1" arrivalPos="164.34" arrivalSpeed="16.20" duration="102.00" routeLength="324.21" waitingTime="31.00" waitingCount="5" stopTime="0.00" timeLoss="81.66" rerouteNo="0" devices="tripinfo_flow_route_86_duration_20250327_2110.4" vType="car" speedFactor="1.18" vaporized=""/>
    <tripinfo id="flow_route_88_duration_20250327_2110.14" depart="40.00" departLane="430416184_0" departPos="87.55" departSpeed="0.00" departDelay="0.00" arrival="135.00" arrivalLane="186407684#0_1" arrivalPos="2.10" arrivalSpeed="10.28" duration="95.00" routeLength="232.18" waitingTime="22.00" waitingCount="2" stopTime="0.00" timeLoss="79.15" rerouteNo="0" devices="tripinfo_flow_route_88_duration_20250327_2110.14" vType="car" speedFactor="0.90" vaporized=""/>
    <tripinfo id="flow_route_86_duration_20250327_2110.6" depart="45.00" departLane="430416184_0" departPos="118.88" departSpeed="0.00" departDelay="0.00" arrival="139.00" arrivalLane="186407685_1" arrivalPos="101.58" arrivalSpeed="16.12" duration="94.00" routeLength="306.58" waitingTime="23.00" waitingCount="1" stopTime="0.00" timeLoss="74.81" rerouteNo="0" devices="tripinfo_flow_route_86_duration_20250327_2110.6" vType="car" speedFactor="1.04" vaporized=""/>
    <tripinfo id="flow_route_86_duration_20250327_2110.5" depart="38.00" departLane="430416184_0" departPos="105.61" departSpeed="0.00" departDelay="0.50" arrival="140.00" arrivalLane="186407685_1" arrivalPos="146.18" arrivalSpeed="16.56" duration="102.00" routeLength="364.45" waitingTime="26.00" waitingCount="3" stopTime="0.00" timeLoss="79.41" rerouteNo="0" devices="tripinfo_flow_route_86_duration_20250327_2110.5" vType="car" speedFactor="1.18" vaporized=""/>
    <tripinfo id="flow_route_88_duration_20250327_2110.11" depart="34.00" departLane="430416184_0" departPos="23.14" departSpeed="0.00" departDelay="2.57" arrival="176.00" arrivalLane="186407684#0_1" arrivalPos="7.58" arrivalSpeed="7.88" duration="142.00" routeLength="302.08" waitingTime="54.00" waitingCount="2" stopTime="0.00" timeLoss="122.54" rerouteNo="0" devices="tripinfo_flow_route_88_duration_20250327_2110.11" vType="car" speedFactor="1.01" vaporized=""/>
    <tripinfo id="flow_route_88_duration_20250327_2110.16" depart="46.00" departLane="430416184_0" departPos="29.36" departSpeed="0.00" departDelay="0.29" arrival="183.00" arrivalLane="186407684#0_1" arrivalPos="30.22" arrivalSpeed="10.27" duration="137.00" routeLength="318.49" waitingTime="52.00" waitingCount="2" stopTime="0.00" timeLoss="116.96" rerouteNo="0" devices="tripinfo_flow_route_88_duration_20250327_2110.16" vType="car" speedFactor="1.09" vaporized=""/>
    <tripinfo id="flow_route_88_duration_20250327_2110.17" depart="52.00" departLane="430416184_0" departPos="107.47" departSpeed="0.00" departDelay="3.43" arrival="184.00" arrivalLane="186407684#0_1" arrivalPos="68.83" arrivalSpeed="12.48" duration="132.00" routeLength="278.99" waitingTime="53.00" waitingCount="3" stopTime="0.00" timeLoss="113.36" rerouteNo="0" devices="tripinfo_flow_route_88_duration_20250327_2110.17" vType="car" speedFactor="0.90" vaporized=""/>
    <tripinfo id="flow_route_88_duration_20250327_2110.18" depart="52.00" departLane="430416184_0" departPos="12.32" departSpeed="0.00" departDelay="0.57" arrival="189.00" arrivalLane="186407684#0_1" arrivalPos="77.73" arrivalSpeed="13.43" duration="137.00" routeLength="383.04" waitingTime="52.00" waitingCount="3" stopTime="0.00" timeLoss="111.40" rerouteNo="0" devices="tripinfo_flow_route_88_duration_20250327_2110.18" vType="car" speedFactor="0.85" vaporized=""/>
</tripinfos>
