<?xml version="1.0" encoding="UTF-8"?>

<!-- generated on 2025-05-06 21:07:54 by Eclipse SUMO sumo Version 1.20.0
<configuration xmlns:xsi="http://www.w3.org/2001/XMLSchema-instance" xsi:noNamespaceSchemaLocation="http://sumo.dlr.de/xsd/sumoConfiguration.xsd">

    <input>
        <net-file value="osm.net.xml"/>
        <route-files value="xml/route_static_11644940310_1.rou.xml"/>
    </input>

    <output>
        <tripinfo-output value="xml/tripinfo_static_11644940310_1.xml"/>
    </output>

    <traci_server>
        <remote-port value="49255"/>
    </traci_server>

</configuration>
-->

<tripinfos xmlns:xsi="http://www.w3.org/2001/XMLSchema-instance" xsi:noNamespaceSchemaLocation="http://sumo.dlr.de/xsd/tripinfo_file.xsd">
    <tripinfo id="flow_route_27_duration_20250327_2300.0" depart="0.00" departLane="1254771874#0_0" departPos="190.47" departSpeed="0.00" departDelay="0.00" arrival="15.00" arrivalLane="138002006#0_1" arrivalPos="4.04" arrivalSpeed="9.09" duration="15.00" routeLength="85.46" waitingTime="0.00" waitingCount="0" stopTime="0.00" timeLoss="8.79" rerouteNo="0" devices="tripinfo_flow_route_27_duration_20250327_2300.0" vType="car" speedFactor="1.01" vaporized=""/>
    <tripinfo id="flow_route_25_duration_20250327_2300.0" depart="0.00" departLane="1254771874#0_0" departPos="63.27" departSpeed="0.00" departDelay="0.00" arrival="33.00" arrivalLane="1341093415#0_1" arrivalPos="158.81" arrivalSpeed="16.46" duration="33.00" routeLength="373.33" waitingTime="0.00" waitingCount="0" stopTime="0.00" timeLoss="10.20" rerouteNo="0" devices="tripinfo_flow_route_25_duration_20250327_2300.0" vType="car" speedFactor="1.06" vaporized=""/>
    <tripinfo id="flow_route_41_duration_20250327_2300.1" depart="10.00" departLane="1369578054_0" departPos="153.71" departSpeed="0.00" departDelay="0.00" arrival="34.00" arrivalLane="138002006#0_1" arrivalPos="28.58" arrivalSpeed="14.04" duration="24.00" routeLength="196.81" waitingTime="0.00" waitingCount="0" stopTime="0.00" timeLoss="9.46" rerouteNo="0" devices="tripinfo_flow_route_41_duration_20250327_2300.1" vType="car" speedFactor="0.86" vaporized=""/>
    <tripinfo id="flow_route_50_duration_20250327_2300.0" depart="0.00" departLane="-138002006#3_0" departPos="41.39" departSpeed="0.00" departDelay="0.00" arrival="35.00" arrivalLane="-422986370#2_0" arrivalPos="13.06" arrivalSpeed="7.81" duration="35.00" routeLength="82.72" waitingTime="13.00" waitingCount="1" stopTime="0.00" timeLoss="28.50" rerouteNo="0" devices="tripinfo_flow_route_50_duration_20250327_2300.0" vType="car" speedFactor="0.83" vaporized=""/>
    <tripinfo id="flow_route_26_duration_20250327_2300.0" depart="0.00" departLane="1254771874#0_0" departPos="139.38" departSpeed="0.00" departDelay="0.00" arrival="39.00" arrivalLane="-422986370#2_0" arrivalPos="213.43" arrivalSpeed="15.35" duration="39.00" routeLength="338.64" waitingTime="0.00" waitingCount="0" stopTime="0.00" timeLoss="16.08" rerouteNo="0" devices="tripinfo_flow_route_26_duration_20250327_2300.0" vType="car" speedFactor="0.94" vaporized=""/>
    <tripinfo id="flow_route_41_duration_20250327_2300.0" depart="0.00" departLane="1369578054_0" departPos="201.66" departSpeed="0.00" departDelay="0.00" arrival="39.00" arrivalLane="138002006#0_0" arrivalPos="52.37" arrivalSpeed="11.12" duration="39.00" routeLength="172.64" waitingTime="8.00" waitingCount="1" stopTime="0.00" timeLoss="28.27" rerouteNo="0" devices="tripinfo_flow_route_41_duration_20250327_2300.0" vType="car" speedFactor="1.03" vaporized=""/>
    <tripinfo id="flow_route_40_duration_20250327_2300.0" depart="0.00" departLane="1369578054_0" departPos="1.81" departSpeed="0.00" departDelay="0.00" arrival="42.00" arrivalLane="1341093415#0_0" arrivalPos="87.60" arrivalSpeed="13.69" duration="42.00" routeLength="396.71" waitingTime="0.00" waitingCount="0" stopTime="0.00" timeLoss="16.59" rerouteNo="0" devices="tripinfo_flow_route_40_duration_20250327_2300.0" vType="car" speedFactor="1.08" vaporized=""/>
    <tripinfo id="flow_route_41_duration_20250327_2300.2" depart="20.00" departLane="1369578054_0" departPos="90.42" departSpeed="0.00" departDelay="0.00" arrival="48.00" arrivalLane="138002006#0_0" arrivalPos="48.32" arrivalSpeed="16.13" duration="28.00" routeLength="279.83" waitingTime="0.00" waitingCount="0" stopTime="0.00" timeLoss="10.97" rerouteNo="0" devices="tripinfo_flow_route_41_duration_20250327_2300.2" vType="car" speedFactor="1.12" vaporized=""/>
    <tripinfo id="flow_route_51_duration_20250327_2300.0" depart="2.00" departLane="-138002006#3_0" departPos="23.48" departSpeed="0.00" departDelay="2.00" arrival="52.00" arrivalLane="1341093415#0_3" arrivalPos="132.48" arrivalSpeed="14.96" duration="50.00" routeLength="212.67" waitingTime="14.00" waitingCount="2" stopTime="0.00" timeLoss="36.17" rerouteNo="0" devices="tripinfo_flow_route_51_duration_20250327_2300.0" vType="car" speedFactor="1.05" vaporized=""/>
    <tripinfo id="flow_route_40_duration_20250327_2300.1" depart="10.00" departLane="1369578054_0" departPos="13.84" departSpeed="0.00" departDelay="0.00" arrival="61.00" arrivalLane="1341093415#0_0" arrivalPos="156.06" arrivalSpeed="16.44" duration="51.00" routeLength="453.14" waitingTime="0.00" waitingCount="0" stopTime="0.00" timeLoss="22.07" rerouteNo="0" devices="tripinfo_flow_route_40_duration_20250327_2300.1" vType="car" speedFactor="0.94" vaporized=""/>
    <tripinfo id="flow_route_27_duration_20250327_2300.1" depart="11.00" departLane="1254771874#0_0" departPos="78.49" departSpeed="0.00" departDelay="1.00" arrival="69.00" arrivalLane="138002006#0_1" arrivalPos="5.35" arrivalSpeed="5.51" duration="58.00" routeLength="198.75" waitingTime="27.00" waitingCount="1" stopTime="0.00" timeLoss="45.17" rerouteNo="0" devices="tripinfo_flow_route_27_duration_20250327_2300.1" vType="car" speedFactor="0.89" vaporized=""/>
    <tripinfo id="flow_route_26_duration_20250327_2300.2" depart="30.00" departLane="1254771874#0_0" departPos="33.07" departSpeed="0.00" departDelay="0.00" arrival="79.00" arrivalLane="-422986370#2_0" arrivalPos="47.66" arrivalSpeed="9.75" duration="49.00" routeLength="279.19" waitingTime="9.00" waitingCount="1" stopTime="0.00" timeLoss="30.61" rerouteNo="0" devices="tripinfo_flow_route_26_duration_20250327_2300.2" vType="car" speedFactor="0.93" vaporized=""/>
    <tripinfo id="flow_route_27_duration_20250327_2300.3" depart="31.00" departLane="1254771874#0_0" departPos="246.56" departSpeed="0.00" departDelay="1.00" arrival="81.00" arrivalLane="138002006#0_1" arrivalPos="84.92" arrivalSpeed="13.05" duration="50.00" routeLength="110.25" waitingTime="30.00" waitingCount="1" stopTime="0.00" timeLoss="41.04" rerouteNo="0" devices="tripinfo_flow_route_27_duration_20250327_2300.3" vType="car" speedFactor="0.88" vaporized=""/>
    <tripinfo id="flow_route_27_duration_20250327_2300.5" depart="50.00" departLane="1254771874#0_0" departPos="7.12" departSpeed="0.00" departDelay="0.00" arrival="81.00" arrivalLane="138002006#0_1" arrivalPos="16.28" arrivalSpeed="8.90" duration="31.00" routeLength="281.05" waitingTime="0.00" waitingCount="0" stopTime="0.00" timeLoss="12.81" rerouteNo="0" devices="tripinfo_flow_route_27_duration_20250327_2300.5" vType="car" speedFactor="0.89" vaporized=""/>
    <tripinfo id="flow_route_27_duration_20250327_2300.2" depart="20.00" departLane="1254771874#0_0" departPos="60.51" departSpeed="0.00" departDelay="0.00" arrival="82.00" arrivalLane="138002006#0_1" arrivalPos="78.79" arrivalSpeed="12.80" duration="62.00" routeLength="290.17" waitingTime="16.00" waitingCount="2" stopTime="0.00" timeLoss="44.01" rerouteNo="0" devices="tripinfo_flow_route_27_duration_20250327_2300.2" vType="car" speedFactor="1.03" vaporized=""/>
    <tripinfo id="flow_route_25_duration_20250327_2300.1" depart="30.00" departLane="1254771874#0_0" departPos="84.69" departSpeed="0.00" departDelay="0.00" arrival="83.00" arrivalLane="1341093415#0_0" arrivalPos="136.26" arrivalSpeed="15.67" duration="53.00" routeLength="329.36" waitingTime="7.00" waitingCount="1" stopTime="0.00" timeLoss="32.32" rerouteNo="0" devices="tripinfo_flow_route_25_duration_20250327_2300.1" vType="car" speedFactor="0.99" vaporized=""/>
    <tripinfo id="flow_route_26_duration_20250327_2300.3" depart="45.00" departLane="1254771874#0_0" departPos="244.09" departSpeed="0.00" departDelay="0.00" arrival="84.00" arrivalLane="-422986370#2_0" arrivalPos="147.55" arrivalSpeed="15.03" duration="39.00" routeLength="168.06" waitingTime="15.00" waitingCount="1" stopTime="0.00" timeLoss="27.82" rerouteNo="0" devices="tripinfo_flow_route_26_duration_20250327_2300.3" vType="car" speedFactor="0.97" vaporized=""/>
    <tripinfo id="flow_route_26_duration_20250327_2300.1" depart="16.00" departLane="1254771874#0_0" departPos="210.71" departSpeed="0.00" departDelay="1.00" arrival="85.00" arrivalLane="-422986370#2_0" arrivalPos="189.76" arrivalSpeed="16.31" duration="69.00" routeLength="243.65" waitingTime="34.00" waitingCount="1" stopTime="0.00" timeLoss="53.50" rerouteNo="0" devices="tripinfo_flow_route_26_duration_20250327_2300.1" vType="car" speedFactor="1.09" vaporized=""/>
    <tripinfo id="flow_route_27_duration_20250327_2300.4" depart="40.00" departLane="1254771874#0_0" departPos="182.91" departSpeed="0.00" departDelay="0.00" arrival="85.00" arrivalLane="138002006#0_1" arrivalPos="72.05" arrivalSpeed="12.93" duration="45.00" routeLength="161.03" waitingTime="14.00" waitingCount="1" stopTime="0.00" timeLoss="34.21" rerouteNo="0" devices="tripinfo_flow_route_27_duration_20250327_2300.4" vType="car" speedFactor="1.16" vaporized=""/>
    <tripinfo id="flow_route_41_duration_20250327_2300.5" depart="51.00" departLane="1369578054_0" departPos="278.10" departSpeed="0.00" departDelay="1.00" arrival="98.00" arrivalLane="138002006#0_1" arrivalPos="13.48" arrivalSpeed="7.91" duration="47.00" routeLength="57.31" waitingTime="29.00" waitingCount="1" stopTime="0.00" timeLoss="42.53" rerouteNo="0" devices="tripinfo_flow_route_41_duration_20250327_2300.5" vType="car" speedFactor="0.87" vaporized=""/>
    <tripinfo id="flow_route_40_duration_20250327_2300.4" depart="45.00" departLane="1369578054_0" departPos="173.81" departSpeed="0.00" departDelay="5.00" arrival="99.00" arrivalLane="1341093415#0_0" arrivalPos="15.87" arrivalSpeed="7.16" duration="54.00" routeLength="152.98" waitingTime="26.00" waitingCount="1" stopTime="0.00" timeLoss="43.86" rerouteNo="0" devices="tripinfo_flow_route_40_duration_20250327_2300.4" vType="car" speedFactor="1.02" vaporized=""/>
    <tripinfo id="flow_route_40_duration_20250327_2300.3" depart="33.00" departLane="1369578054_0" departPos="50.33" departSpeed="0.00" departDelay="3.00" arrival="100.00" arrivalLane="1341093415#0_0" arrivalPos="5.32" arrivalSpeed="6.93" duration="67.00" routeLength="265.91" waitingTime="23.00" waitingCount="1" stopTime="0.00" timeLoss="49.11" rerouteNo="0" devices="tripinfo_flow_route_40_duration_20250327_2300.3" vType="car" speedFactor="0.94" vaporized=""/>
    <tripinfo id="flow_route_40_duration_20250327_2300.2" depart="20.00" departLane="1369578054_0" departPos="9.71" departSpeed="0.00" departDelay="0.00" arrival="103.00" arrivalLane="1341093415#0_0" arrivalPos="70.69" arrivalSpeed="11.54" duration="83.00" routeLength="371.89" waitingTime="38.00" waitingCount="1" stopTime="0.00" timeLoss="59.60" rerouteNo="0" devices="tripinfo_flow_route_40_duration_20250327_2300.2" vType="car" speedFactor="1.05" vaporized=""/>
    <tripinfo id="flow_route_41_duration_20250327_2300.3" depart="34.00" departLane="1369578054_0" departPos="72.33" departSpeed="0.00" departDelay="4.00" arrival="105.00" arrivalLane="138002006#0_1" arrivalPos="60.81" arrivalSpeed="12.17" duration="71.00" routeLength="310.41" waitingTime="28.00" waitingCount="1" stopTime="0.00" timeLoss="50.43" rerouteNo="0" devices="tripinfo_flow_route_41_duration_20250327_2300.3" vType="car" speedFactor="0.94" vaporized=""/>
    <tripinfo id="flow_route_41_duration_20250327_2300.4" depart="45.00" departLane="1369578054_0" departPos="50.46" departSpeed="0.00" departDelay="5.00" arrival="107.00" arrivalLane="138002006#0_1" arrivalPos="59.31" arrivalSpeed="11.93" duration="62.00" routeLength="330.78" waitingTime="18.00" waitingCount="1" stopTime="0.00" timeLoss="41.55" rerouteNo="0" devices="tripinfo_flow_route_41_duration_20250327_2300.4" vType="car" speedFactor="1.01" vaporized=""/>
    <tripinfo id="flow_route_40_duration_20250327_2300.5" depart="50.00" departLane="1369578054_0" departPos="83.55" departSpeed="0.00" departDelay="0.00" arrival="113.00" arrivalLane="1341093415#0_0" arrivalPos="114.37" arrivalSpeed="13.45" duration="63.00" routeLength="341.73" waitingTime="15.00" waitingCount="1" stopTime="0.00" timeLoss="38.47" rerouteNo="0" devices="tripinfo_flow_route_40_duration_20250327_2300.5" vType="car" speedFactor="0.83" vaporized=""/>
</tripinfos>
