<?xml version="1.0" encoding="UTF-8"?>

<!-- generated on 2025-05-06 21:07:50 by Eclipse SUMO sumo Version 1.20.0
<configuration xmlns:xsi="http://www.w3.org/2001/XMLSchema-instance" xsi:noNamespaceSchemaLocation="http://sumo.dlr.de/xsd/sumoConfiguration.xsd">

    <input>
        <net-file value="osm.net.xml"/>
        <route-files value="xml/route_rl_cluster_3839031475_3839031476_4110471700_4234582615_1.rou.xml"/>
    </input>

    <output>
        <tripinfo-output value="xml/tripinfo_rl_cluster_3839031475_3839031476_4110471700_4234582615_1.xml"/>
    </output>

    <traci_server>
        <remote-port value="59619"/>
    </traci_server>

</configuration>
-->

<tripinfos xmlns:xsi="http://www.w3.org/2001/XMLSchema-instance" xsi:noNamespaceSchemaLocation="http://sumo.dlr.de/xsd/tripinfo_file.xsd">
    <tripinfo id="flow_route_85_duration_20250327_2210.0" depart="0.00" departLane="1091883842_0" departPos="162.60" departSpeed="0.00" departDelay="0.00" arrival="16.00" arrivalLane="133000063_0" arrivalPos="42.63" arrivalSpeed="9.42" duration="16.00" routeLength="74.77" waitingTime="0.00" waitingCount="0" stopTime="0.00" timeLoss="9.16" rerouteNo="0" devices="tripinfo_flow_route_85_duration_20250327_2210.0" vType="car" speedFactor="0.89" vaporized=""/>
    <tripinfo id="flow_route_79_duration_20250327_2210.0" depart="0.00" departLane="380344611#0_0" departPos="128.21" departSpeed="0.00" departDelay="0.00" arrival="28.00" arrivalLane="423956929_1" arrivalPos="91.18" arrivalSpeed="16.56" duration="28.00" routeLength="278.79" waitingTime="0.00" waitingCount="0" stopTime="0.00" timeLoss="10.75" rerouteNo="0" devices="tripinfo_flow_route_79_duration_20250327_2210.0" vType="car" speedFactor="1.08" vaporized=""/>
    <tripinfo id="flow_route_81_duration_20250327_2210.0" depart="0.00" departLane="380344611#0_0" departPos="75.01" departSpeed="0.00" departDelay="0.00" arrival="30.00" arrivalLane="133000063_2" arrivalPos="7.51" arrivalSpeed="9.47" duration="30.00" routeLength="248.37" waitingTime="0.00" waitingCount="0" stopTime="0.00" timeLoss="10.86" rerouteNo="0" devices="tripinfo_flow_route_81_duration_20250327_2210.0" vType="car" speedFactor="0.83" vaporized=""/>
    <tripinfo id="flow_route_80_duration_20250327_2210.0" depart="0.00" departLane="380344611#0_0" departPos="160.58" departSpeed="0.00" departDelay="0.00" arrival="31.00" arrivalLane="380593307#0_0" arrivalPos="102.42" arrivalSpeed="13.82" duration="31.00" routeLength="234.46" waitingTime="0.00" waitingCount="0" stopTime="0.00" timeLoss="16.13" rerouteNo="0" devices="tripinfo_flow_route_80_duration_20250327_2210.0" vType="car" speedFactor="1.03" vaporized=""/>
    <tripinfo id="flow_route_90_duration_20250327_2210.0" depart="0.00" departLane="380585338#0_0" departPos="118.71" departSpeed="0.00" departDelay="0.00" arrival="33.00" arrivalLane="136617981_0" arrivalPos="211.18" arrivalSpeed="14.16" duration="33.00" routeLength="279.54" waitingTime="0.00" waitingCount="0" stopTime="0.00" timeLoss="11.68" rerouteNo="0" devices="tripinfo_flow_route_90_duration_20250327_2210.0" vType="car" speedFactor="0.86" vaporized=""/>
    <tripinfo id="flow_route_81_duration_20250327_2210.1" depart="10.00" departLane="380344611#0_0" departPos="145.46" departSpeed="0.00" departDelay="0.00" arrival="34.00" arrivalLane="133000063_2" arrivalPos="7.96" arrivalSpeed="10.69" duration="24.00" routeLength="178.37" waitingTime="0.00" waitingCount="0" stopTime="0.00" timeLoss="12.31" rerouteNo="0" devices="tripinfo_flow_route_81_duration_20250327_2210.1" vType="car" speedFactor="1.09" vaporized=""/>
    <tripinfo id="flow_route_84_duration_20250327_2210.0" depart="0.00" departLane="1091883842_0" departPos="11.19" departSpeed="0.00" departDelay="0.00" arrival="36.00" arrivalLane="136617981_0" arrivalPos="210.65" arrivalSpeed="16.34" duration="36.00" routeLength="417.75" waitingTime="0.00" waitingCount="0" stopTime="0.00" timeLoss="10.66" rerouteNo="0" devices="tripinfo_flow_route_84_duration_20250327_2210.0" vType="car" speedFactor="1.05" vaporized=""/>
    <tripinfo id="flow_route_90_duration_20250327_2210.1" depart="13.00" departLane="380585338#0_0" departPos="163.06" departSpeed="0.00" departDelay="1.00" arrival="39.00" arrivalLane="136617981_0" arrivalPos="87.03" arrivalSpeed="12.43" duration="26.00" routeLength="111.03" waitingTime="5.00" waitingCount="1" stopTime="0.00" timeLoss="18.48" rerouteNo="0" devices="tripinfo_flow_route_90_duration_20250327_2210.1" vType="car" speedFactor="1.03" vaporized=""/>
    <tripinfo id="flow_route_81_duration_20250327_2210.2" depart="20.00" departLane="380344611#0_0" departPos="154.35" departSpeed="0.00" departDelay="0.00" arrival="54.00" arrivalLane="133000063_2" arrivalPos="152.88" arrivalSpeed="16.20" duration="34.00" routeLength="314.40" waitingTime="0.00" waitingCount="0" stopTime="0.00" timeLoss="14.61" rerouteNo="0" devices="tripinfo_flow_route_81_duration_20250327_2210.2" vType="car" speedFactor="1.12" vaporized=""/>
    <tripinfo id="flow_route_81_duration_20250327_2210.3" depart="30.00" departLane="380344611#0_0" departPos="194.27" departSpeed="0.00" departDelay="0.00" arrival="59.00" arrivalLane="133000063_2" arrivalPos="131.68" arrivalSpeed="14.50" duration="29.00" routeLength="253.28" waitingTime="0.00" waitingCount="0" stopTime="0.00" timeLoss="10.49" rerouteNo="0" devices="tripinfo_flow_route_81_duration_20250327_2210.3" vType="car" speedFactor="0.88" vaporized=""/>
    <tripinfo id="flow_route_81_duration_20250327_2210.4" depart="40.00" departLane="380344611#0_0" departPos="68.45" departSpeed="0.00" departDelay="0.00" arrival="76.00" arrivalLane="133000063_2" arrivalPos="28.93" arrivalSpeed="9.18" duration="36.00" routeLength="276.35" waitingTime="0.00" waitingCount="0" stopTime="0.00" timeLoss="18.64" rerouteNo="0" devices="tripinfo_flow_route_81_duration_20250327_2210.4" vType="car" speedFactor="1.01" vaporized=""/>
    <tripinfo id="flow_route_81_duration_20250327_2210.5" depart="50.00" departLane="380344611#0_0" departPos="202.91" departSpeed="0.00" departDelay="0.00" arrival="81.00" arrivalLane="133000063_2" arrivalPos="115.08" arrivalSpeed="14.66" duration="31.00" routeLength="228.04" waitingTime="0.00" waitingCount="0" stopTime="0.00" timeLoss="14.66" rerouteNo="0" devices="tripinfo_flow_route_81_duration_20250327_2210.5" vType="car" speedFactor="0.89" vaporized=""/>
    <tripinfo id="flow_route_77_duration_20250327_2210.1" depart="30.00" departLane="133342692#0_0" departPos="5.11" departSpeed="0.00" departDelay="0.00" arrival="89.00" arrivalLane="423956929_0" arrivalPos="55.99" arrivalSpeed="11.30" duration="59.00" routeLength="233.40" waitingTime="22.00" waitingCount="1" stopTime="0.00" timeLoss="42.34" rerouteNo="0" devices="tripinfo_flow_route_77_duration_20250327_2210.1" vType="car" speedFactor="0.93" vaporized=""/>
    <tripinfo id="flow_route_78_duration_20250327_2210.0" depart="0.00" departLane="133342692#0_0" departPos="79.92" departSpeed="0.00" departDelay="0.00" arrival="90.00" arrivalLane="136617981_2" arrivalPos="12.89" arrivalSpeed="6.74" duration="90.00" routeLength="138.43" waitingTime="55.00" waitingCount="1" stopTime="0.00" timeLoss="80.71" rerouteNo="0" devices="tripinfo_flow_route_78_duration_20250327_2210.0" vType="car" speedFactor="1.01" vaporized=""/>
    <tripinfo id="flow_route_90_duration_20250327_2210.2" depart="24.00" departLane="380585338#0_0" departPos="5.63" departSpeed="0.00" departDelay="0.00" arrival="90.00" arrivalLane="136617981_0" arrivalPos="67.09" arrivalSpeed="11.74" duration="66.00" routeLength="248.53" waitingTime="23.00" waitingCount="1" stopTime="0.00" timeLoss="49.80" rerouteNo="0" devices="tripinfo_flow_route_90_duration_20250327_2210.2" vType="car" speedFactor="0.99" vaporized=""/>
    <tripinfo id="flow_route_77_duration_20250327_2210.0" depart="0.00" departLane="133342692#0_0" departPos="115.39" departSpeed="0.00" departDelay="0.00" arrival="92.00" arrivalLane="423956929_0" arrivalPos="132.19" arrivalSpeed="15.22" duration="92.00" routeLength="199.33" waitingTime="61.00" waitingCount="1" stopTime="0.00" timeLoss="77.80" rerouteNo="0" devices="tripinfo_flow_route_77_duration_20250327_2210.0" vType="car" speedFactor="0.94" vaporized=""/>
    <tripinfo id="flow_route_89_duration_20250327_2210.0" depart="0.00" departLane="380585338#0_0" departPos="55.91" departSpeed="0.00" departDelay="0.00" arrival="92.00" arrivalLane="380593307#0_0" arrivalPos="94.67" arrivalSpeed="14.06" duration="92.00" routeLength="249.03" waitingTime="53.00" waitingCount="1" stopTime="0.00" timeLoss="75.47" rerouteNo="0" devices="tripinfo_flow_route_89_duration_20250327_2210.0" vType="car" speedFactor="0.94" vaporized=""/>
    <tripinfo id="flow_route_89_duration_20250327_2210.1" depart="32.00" departLane="380585338#0_0" departPos="71.43" departSpeed="0.00" departDelay="2.00" arrival="95.00" arrivalLane="380593307#0_0" arrivalPos="166.07" arrivalSpeed="15.55" duration="63.00" routeLength="304.91" waitingTime="22.00" waitingCount="1" stopTime="0.00" timeLoss="43.40" rerouteNo="0" devices="tripinfo_flow_route_89_duration_20250327_2210.1" vType="car" speedFactor="0.94" vaporized=""/>
    <tripinfo id="flow_route_76_duration_20250327_2210.0" depart="0.00" departLane="133342692#0_0" departPos="1.03" departSpeed="0.00" departDelay="0.00" arrival="96.00" arrivalLane="133000063_1" arrivalPos="153.47" arrivalSpeed="16.36" duration="96.00" routeLength="359.35" waitingTime="51.00" waitingCount="1" stopTime="0.00" timeLoss="73.83" rerouteNo="0" devices="tripinfo_flow_route_76_duration_20250327_2210.0" vType="car" speedFactor="1.06" vaporized=""/>
    <tripinfo id="flow_route_78_duration_20250327_2210.2" depart="40.00" departLane="133342692#0_0" departPos="98.00" departSpeed="0.00" departDelay="0.00" arrival="99.00" arrivalLane="136617981_2" arrivalPos="63.24" arrivalSpeed="12.21" duration="59.00" routeLength="170.70" waitingTime="22.00" waitingCount="1" stopTime="0.00" timeLoss="47.98" rerouteNo="0" devices="tripinfo_flow_route_78_duration_20250327_2210.2" vType="car" speedFactor="1.02" vaporized=""/>
    <tripinfo id="flow_route_90_duration_20250327_2210.4" depart="48.00" departLane="380585338#0_0" departPos="15.46" departSpeed="0.00" departDelay="0.00" arrival="105.00" arrivalLane="136617981_0" arrivalPos="230.05" arrivalSpeed="15.78" duration="57.00" routeLength="401.66" waitingTime="8.00" waitingCount="1" stopTime="0.00" timeLoss="30.82" rerouteNo="0" devices="tripinfo_flow_route_90_duration_20250327_2210.4" vType="car" speedFactor="0.97" vaporized=""/>
    <tripinfo id="flow_route_90_duration_20250327_2210.3" depart="36.00" departLane="380585338#0_0" departPos="45.86" departSpeed="0.00" departDelay="0.00" arrival="106.00" arrivalLane="136617981_0" arrivalPos="273.37" arrivalSpeed="16.60" duration="70.00" routeLength="414.58" waitingTime="20.00" waitingCount="1" stopTime="0.00" timeLoss="43.49" rerouteNo="0" devices="tripinfo_flow_route_90_duration_20250327_2210.3" vType="car" speedFactor="1.16" vaporized=""/>
    <tripinfo id="flow_route_78_duration_20250327_2210.1" depart="20.00" departLane="133342692#0_0" departPos="67.99" departSpeed="0.00" departDelay="0.00" arrival="109.00" arrivalLane="136617981_2" arrivalPos="233.63" arrivalSpeed="16.38" duration="89.00" routeLength="371.09" waitingTime="37.00" waitingCount="1" stopTime="0.00" timeLoss="65.49" rerouteNo="0" devices="tripinfo_flow_route_78_duration_20250327_2210.1" vType="car" speedFactor="1.05" vaporized=""/>
    <tripinfo id="flow_route_84_duration_20250327_2210.1" depart="30.00" departLane="1091883842_0" departPos="61.53" departSpeed="0.00" departDelay="0.00" arrival="162.00" arrivalLane="136617981_0" arrivalPos="45.09" arrivalSpeed="11.17" duration="132.00" routeLength="201.86" waitingTime="97.00" waitingCount="1" stopTime="0.00" timeLoss="118.54" rerouteNo="0" devices="tripinfo_flow_route_84_duration_20250327_2210.1" vType="car" speedFactor="0.94" vaporized=""/>
</tripinfos>
