<?xml version="1.0" encoding="UTF-8"?>

<!-- generated on 2025-05-06 21:09:03 by Eclipse SUMO sumo Version 1.20.0
<configuration xmlns:xsi="http://www.w3.org/2001/XMLSchema-instance" xsi:noNamespaceSchemaLocation="http://sumo.dlr.de/xsd/sumoConfiguration.xsd">

    <input>
        <net-file value="osm.net.xml"/>
        <route-files value="xml/route_rl_cluster_11648561419_11648561420_2271142975_4854142869_8.rou.xml"/>
    </input>

    <output>
        <tripinfo-output value="xml/tripinfo_rl_cluster_11648561419_11648561420_2271142975_4854142869_8.xml"/>
    </output>

    <traci_server>
        <remote-port value="43537"/>
    </traci_server>

</configuration>
-->

<tripinfos xmlns:xsi="http://www.w3.org/2001/XMLSchema-instance" xsi:noNamespaceSchemaLocation="http://sumo.dlr.de/xsd/tripinfo_file.xsd">
    <tripinfo id="flow_route_119_duration_20250327_2150.0" depart="0.00" departLane="134194079#0_0" departPos="151.34" departSpeed="0.00" departDelay="0.00" arrival="22.00" arrivalLane="1253188486#8_0" arrivalPos="1.48" arrivalSpeed="8.82" duration="22.00" routeLength="161.10" waitingTime="0.00" waitingCount="0" stopTime="0.00" timeLoss="11.84" rerouteNo="0" devices="tripinfo_flow_route_119_duration_20250327_2150.0" vType="car" speedFactor="1.09" vaporized=""/>
    <tripinfo id="flow_route_118_duration_20250327_2150.1" depart="3.00" departLane="134194079#0_0" departPos="277.04" departSpeed="0.00" departDelay="0.14" arrival="26.00" arrivalLane="1328664744#0_0" arrivalPos="140.54" arrivalSpeed="16.19" duration="23.00" routeLength="184.65" waitingTime="0.00" waitingCount="0" stopTime="0.00" timeLoss="11.03" rerouteNo="0" devices="tripinfo_flow_route_118_duration_20250327_2150.1" vType="car" speedFactor="1.03" vaporized=""/>
    <tripinfo id="flow_route_118_duration_20250327_2150.4" depart="12.00" departLane="134194079#0_0" departPos="284.56" departSpeed="0.00" departDelay="0.57" arrival="26.00" arrivalLane="1328664744#0_0" arrivalPos="27.82" arrivalSpeed="9.41" duration="14.00" routeLength="64.41" waitingTime="0.00" waitingCount="0" stopTime="0.00" timeLoss="9.44" rerouteNo="0" devices="tripinfo_flow_route_118_duration_20250327_2150.4" vType="car" speedFactor="0.94" vaporized=""/>
    <tripinfo id="flow_route_97_duration_20250327_2150.0" depart="0.00" departLane="1328664748#0_0" departPos="149.74" departSpeed="0.00" departDelay="0.00" arrival="27.00" arrivalLane="135474719#0_0" arrivalPos="137.46" arrivalSpeed="15.89" duration="27.00" routeLength="222.45" waitingTime="0.00" waitingCount="0" stopTime="0.00" timeLoss="12.48" rerouteNo="0" devices="tripinfo_flow_route_97_duration_20250327_2150.0" vType="car" speedFactor="1.06" vaporized=""/>
    <tripinfo id="flow_route_98_duration_20250327_2150.0" depart="0.00" departLane="1328664748#0_0" departPos="103.72" departSpeed="0.00" departDelay="0.00" arrival="27.00" arrivalLane="177211987#1_0" arrivalPos="104.29" arrivalSpeed="15.41" duration="27.00" routeLength="249.04" waitingTime="0.00" waitingCount="0" stopTime="0.00" timeLoss="10.86" rerouteNo="0" devices="tripinfo_flow_route_98_duration_20250327_2150.0" vType="car" speedFactor="0.94" vaporized=""/>
    <tripinfo id="flow_route_118_duration_20250327_2150.2" depart="7.00" departLane="134194079#0_0" departPos="69.84" departSpeed="0.00" departDelay="1.29" arrival="41.00" arrivalLane="1328664744#0_1" arrivalPos="87.98" arrivalSpeed="14.52" duration="34.00" routeLength="339.29" waitingTime="0.00" waitingCount="0" stopTime="0.00" timeLoss="13.41" rerouteNo="0" devices="tripinfo_flow_route_118_duration_20250327_2150.2" vType="car" speedFactor="1.12" vaporized=""/>
    <tripinfo id="flow_route_118_duration_20250327_2150.6" depart="19.00" departLane="134194079#0_0" departPos="275.86" departSpeed="0.00" departDelay="1.86" arrival="41.00" arrivalLane="1328664744#0_0" arrivalPos="132.27" arrivalSpeed="14.79" duration="22.00" routeLength="177.56" waitingTime="0.00" waitingCount="0" stopTime="0.00" timeLoss="9.25" rerouteNo="0" devices="tripinfo_flow_route_118_duration_20250327_2150.6" vType="car" speedFactor="0.89" vaporized=""/>
    <tripinfo id="flow_route_118_duration_20250327_2150.0" depart="0.00" departLane="134194079#0_0" departPos="13.63" departSpeed="0.00" departDelay="0.00" arrival="45.00" arrivalLane="1328664744#0_1" arrivalPos="165.30" arrivalSpeed="14.28" duration="45.00" routeLength="472.83" waitingTime="0.00" waitingCount="0" stopTime="0.00" timeLoss="11.57" rerouteNo="0" devices="tripinfo_flow_route_118_duration_20250327_2150.0" vType="car" speedFactor="0.86" vaporized=""/>
    <tripinfo id="flow_route_99_duration_20250327_2150.0" depart="1.00" departLane="1328664748#0_0" departPos="68.32" departSpeed="0.00" departDelay="1.00" arrival="46.00" arrivalLane="1253188486#8_2" arrivalPos="11.16" arrivalSpeed="7.40" duration="45.00" routeLength="200.71" waitingTime="11.00" waitingCount="1" stopTime="0.00" timeLoss="31.87" rerouteNo="0" devices="tripinfo_flow_route_99_duration_20250327_2150.0" vType="car" speedFactor="1.01" vaporized=""/>
    <tripinfo id="flow_route_119_duration_20250327_2150.2" depart="16.00" departLane="134194079#0_0" departPos="211.10" departSpeed="0.00" departDelay="1.00" arrival="47.00" arrivalLane="1253188486#8_0" arrivalPos="140.24" arrivalSpeed="16.36" duration="31.00" routeLength="240.08" waitingTime="0.00" waitingCount="0" stopTime="0.00" timeLoss="14.89" rerouteNo="0" devices="tripinfo_flow_route_119_duration_20250327_2150.2" vType="car" speedFactor="0.97" vaporized=""/>
    <tripinfo id="flow_route_99_duration_20250327_2150.1" depart="12.00" departLane="1328664748#0_0" departPos="91.52" departSpeed="0.00" departDelay="0.00" arrival="50.00" arrivalLane="1253188486#8_2" arrivalPos="31.74" arrivalSpeed="9.80" duration="38.00" routeLength="198.09" waitingTime="3.00" waitingCount="1" stopTime="0.00" timeLoss="24.47" rerouteNo="0" devices="tripinfo_flow_route_99_duration_20250327_2150.1" vType="car" speedFactor="0.94" vaporized=""/>
    <tripinfo id="flow_route_118_duration_20250327_2150.9" depart="27.00" departLane="134194079#0_0" departPos="292.74" departSpeed="0.00" departDelay="1.29" arrival="51.00" arrivalLane="1328664744#0_0" arrivalPos="205.90" arrivalSpeed="16.49" duration="24.00" routeLength="234.31" waitingTime="0.00" waitingCount="0" stopTime="0.00" timeLoss="9.73" rerouteNo="0" devices="tripinfo_flow_route_118_duration_20250327_2150.9" vType="car" speedFactor="1.18" vaporized=""/>
    <tripinfo id="flow_route_99_duration_20250327_2150.3" depart="36.00" departLane="1328664748#0_0" departPos="194.80" departSpeed="0.00" departDelay="0.00" arrival="51.00" arrivalLane="1253188486#8_2" arrivalPos="25.69" arrivalSpeed="11.16" duration="15.00" routeLength="88.76" waitingTime="0.00" waitingCount="0" stopTime="0.00" timeLoss="9.23" rerouteNo="0" devices="tripinfo_flow_route_99_duration_20250327_2150.3" vType="car" speedFactor="1.09" vaporized=""/>
    <tripinfo id="flow_route_97_duration_20250327_2150.1" depart="30.00" departLane="1328664748#0_0" departPos="78.28" departSpeed="0.00" departDelay="0.00" arrival="54.00" arrivalLane="135474719#0_0" arrivalPos="13.27" arrivalSpeed="8.41" duration="24.00" routeLength="169.71" waitingTime="0.00" waitingCount="0" stopTime="0.00" timeLoss="12.37" rerouteNo="0" devices="tripinfo_flow_route_97_duration_20250327_2150.1" vType="car" speedFactor="1.01" vaporized=""/>
    <tripinfo id="flow_route_99_duration_20250327_2150.2" depart="24.00" departLane="1328664748#0_0" departPos="6.19" departSpeed="0.00" departDelay="0.00" arrival="57.00" arrivalLane="1253188486#8_2" arrivalPos="37.25" arrivalSpeed="10.99" duration="33.00" routeLength="288.93" waitingTime="0.00" waitingCount="0" stopTime="0.00" timeLoss="15.11" rerouteNo="0" devices="tripinfo_flow_route_99_duration_20250327_2150.2" vType="car" speedFactor="1.13" vaporized=""/>
    <tripinfo id="flow_route_110_duration_20250327_2150.0" depart="0.00" departLane="1254519225#0.109_0" departPos="3.76" departSpeed="0.00" departDelay="0.00" arrival="82.00" arrivalLane="177211987#1_2" arrivalPos="6.38" arrivalSpeed="7.83" duration="82.00" routeLength="190.24" waitingTime="50.00" waitingCount="1" stopTime="0.00" timeLoss="66.95" rerouteNo="0" devices="tripinfo_flow_route_110_duration_20250327_2150.0" vType="car" speedFactor="0.83" vaporized=""/>
    <tripinfo id="flow_route_108_duration_20250327_2150.0" depart="0.00" departLane="1254519225#0.109_0" departPos="35.33" departSpeed="0.00" departDelay="0.00" arrival="88.00" arrivalLane="135474719#0_0" arrivalPos="75.82" arrivalSpeed="13.42" duration="88.00" routeLength="240.24" waitingTime="51.00" waitingCount="1" stopTime="0.00" timeLoss="73.34" rerouteNo="0" devices="tripinfo_flow_route_108_duration_20250327_2150.0" vType="car" speedFactor="1.08" vaporized=""/>
    <tripinfo id="flow_route_108_duration_20250327_2150.1" depart="15.00" departLane="1254519225#0.109_0" departPos="15.06" departSpeed="0.00" departDelay="0.00" arrival="88.00" arrivalLane="135474719#0_2" arrivalPos="40.74" arrivalSpeed="11.82" duration="73.00" routeLength="225.43" waitingTime="36.00" waitingCount="1" stopTime="0.00" timeLoss="59.39" rerouteNo="0" devices="tripinfo_flow_route_108_duration_20250327_2150.1" vType="car" speedFactor="1.16" vaporized=""/>
    <tripinfo id="flow_route_110_duration_20250327_2150.1" depart="31.00" departLane="1254519225#0.109_0" departPos="31.99" departSpeed="0.00" departDelay="1.00" arrival="88.00" arrivalLane="177211987#1_2" arrivalPos="26.44" arrivalSpeed="10.65" duration="57.00" routeLength="182.07" waitingTime="24.00" waitingCount="1" stopTime="0.00" timeLoss="44.90" rerouteNo="0" devices="tripinfo_flow_route_110_duration_20250327_2150.1" vType="car" speedFactor="1.02" vaporized=""/>
    <tripinfo id="flow_route_109_duration_20250327_2150.1" depart="31.00" departLane="1254519225#0.109_0" departPos="24.32" departSpeed="0.00" departDelay="1.00" arrival="91.00" arrivalLane="1328664744#0_0" arrivalPos="45.96" arrivalSpeed="11.54" duration="60.00" routeLength="195.87" waitingTime="22.00" waitingCount="2" stopTime="0.00" timeLoss="46.65" rerouteNo="0" devices="tripinfo_flow_route_109_duration_20250327_2150.1" vType="car" speedFactor="0.99" vaporized=""/>
    <tripinfo id="flow_route_109_duration_20250327_2150.0" depart="0.00" departLane="1254519225#0.109_0" departPos="16.50" departSpeed="0.00" departDelay="0.00" arrival="92.00" arrivalLane="1328664744#0_0" arrivalPos="130.88" arrivalSpeed="15.76" duration="92.00" routeLength="288.61" waitingTime="50.00" waitingCount="1" stopTime="0.00" timeLoss="73.67" rerouteNo="0" devices="tripinfo_flow_route_109_duration_20250327_2150.0" vType="car" speedFactor="1.03" vaporized=""/>
    <tripinfo id="flow_route_108_duration_20250327_2150.2" depart="30.00" departLane="1254519225#0.109_0" departPos="18.10" departSpeed="0.00" departDelay="0.00" arrival="94.00" arrivalLane="135474719#0_0" arrivalPos="87.50" arrivalSpeed="15.18" duration="64.00" routeLength="269.15" waitingTime="21.00" waitingCount="1" stopTime="0.00" timeLoss="47.16" rerouteNo="0" devices="tripinfo_flow_route_108_duration_20250327_2150.2" vType="car" speedFactor="1.17" vaporized=""/>
    <tripinfo id="flow_route_108_duration_20250327_2150.3" depart="45.00" departLane="1254519225#0.109_0" departPos="7.75" departSpeed="0.00" departDelay="0.00" arrival="98.00" arrivalLane="135474719#0_2" arrivalPos="120.49" arrivalSpeed="14.35" duration="53.00" routeLength="312.49" waitingTime="9.00" waitingCount="1" stopTime="0.00" timeLoss="30.94" rerouteNo="0" devices="tripinfo_flow_route_108_duration_20250327_2150.3" vType="car" speedFactor="0.88" vaporized=""/>
    <tripinfo id="flow_route_114_duration_20250327_2150.0" depart="0.00" departLane="1253188486#4_0" departPos="49.31" departSpeed="0.00" departDelay="0.00" arrival="121.00" arrivalLane="177211987#1_0" arrivalPos="36.23" arrivalSpeed="9.61" duration="121.00" routeLength="153.37" waitingTime="91.00" waitingCount="1" stopTime="0.00" timeLoss="110.10" rerouteNo="0" devices="tripinfo_flow_route_114_duration_20250327_2150.0" vType="car" speedFactor="0.89" vaporized=""/>
    <tripinfo id="flow_route_113_duration_20250327_2150.6" depart="30.00" departLane="1253188486#4_0" departPos="103.95" departSpeed="0.00" departDelay="0.00" arrival="123.00" arrivalLane="1253188486#8_1" arrivalPos="11.49" arrivalSpeed="10.63" duration="93.00" routeLength="106.18" waitingTime="69.00" waitingCount="1" stopTime="0.00" timeLoss="86.24" rerouteNo="0" devices="tripinfo_flow_route_113_duration_20250327_2150.6" vType="car" speedFactor="0.97" vaporized=""/>
    <tripinfo id="flow_route_115_duration_20250327_2150.1" depart="30.00" departLane="1253188486#4_0" departPos="64.82" departSpeed="0.00" departDelay="0.00" arrival="123.00" arrivalLane="1328664744#0_2" arrivalPos="17.75" arrivalSpeed="10.16" duration="93.00" routeLength="138.33" waitingTime="62.00" waitingCount="1" stopTime="0.00" timeLoss="83.67" rerouteNo="0" devices="tripinfo_flow_route_115_duration_20250327_2150.1" vType="car" speedFactor="1.18" vaporized=""/>
    <tripinfo id="flow_route_113_duration_20250327_2150.3" depart="15.00" departLane="1253188486#4_0" departPos="124.32" departSpeed="0.00" departDelay="0.00" arrival="124.00" arrivalLane="1253188486#8_1" arrivalPos="54.74" arrivalSpeed="13.28" duration="109.00" routeLength="129.05" waitingTime="86.00" waitingCount="1" stopTime="0.00" timeLoss="101.22" rerouteNo="0" devices="tripinfo_flow_route_113_duration_20250327_2150.3" vType="car" speedFactor="1.02" vaporized=""/>
    <tripinfo id="flow_route_115_duration_20250327_2150.0" depart="0.00" departLane="1253188486#4_0" departPos="104.70" departSpeed="0.00" departDelay="0.00" arrival="127.00" arrivalLane="1328664744#0_2" arrivalPos="120.97" arrivalSpeed="14.82" duration="127.00" routeLength="201.67" waitingTime="95.00" waitingCount="1" stopTime="0.00" timeLoss="112.79" rerouteNo="0" devices="tripinfo_flow_route_115_duration_20250327_2150.0" vType="car" speedFactor="0.94" vaporized=""/>
    <tripinfo id="flow_route_113_duration_20250327_2150.5" depart="26.00" departLane="1253188486#4_0" departPos="10.26" departSpeed="0.00" departDelay="1.00" arrival="130.00" arrivalLane="1253188486#8_0" arrivalPos="68.41" arrivalSpeed="14.07" duration="104.00" routeLength="256.78" waitingTime="65.00" waitingCount="1" stopTime="0.00" timeLoss="88.14" rerouteNo="0" devices="tripinfo_flow_route_113_duration_20250327_2150.5" vType="car" speedFactor="0.93" vaporized=""/>
    <tripinfo id="flow_route_113_duration_20250327_2150.9" depart="45.00" departLane="1253188486#4_0" departPos="109.25" departSpeed="0.00" departDelay="0.00" arrival="130.00" arrivalLane="1253188486#8_1" arrivalPos="68.99" arrivalSpeed="13.98" duration="85.00" routeLength="158.38" waitingTime="57.00" waitingCount="1" stopTime="0.00" timeLoss="75.09" rerouteNo="0" devices="tripinfo_flow_route_113_duration_20250327_2150.9" vType="car" speedFactor="0.85" vaporized=""/>
    <tripinfo id="flow_route_113_duration_20250327_2150.7" depart="35.00" departLane="1253188486#4_0" departPos="3.65" departSpeed="0.00" departDelay="0.00" arrival="131.00" arrivalLane="1253188486#8_2" arrivalPos="89.59" arrivalSpeed="14.63" duration="96.00" routeLength="284.57" waitingTime="54.00" waitingCount="1" stopTime="0.00" timeLoss="78.77" rerouteNo="0" devices="tripinfo_flow_route_113_duration_20250327_2150.7" vType="car" speedFactor="1.03" vaporized=""/>
    <tripinfo id="flow_route_113_duration_20250327_2150.0" depart="0.00" departLane="1253188486#4_0" departPos="134.10" departSpeed="0.00" departDelay="0.00" arrival="132.00" arrivalLane="1253188486#8_0" arrivalPos="182.35" arrivalSpeed="16.46" duration="132.00" routeLength="246.88" waitingTime="99.00" waitingCount="1" stopTime="0.00" timeLoss="116.14" rerouteNo="0" devices="tripinfo_flow_route_113_duration_20250327_2150.0" vType="car" speedFactor="1.05" vaporized=""/>
    <tripinfo id="flow_route_113_duration_20250327_2150.1" depart="5.00" departLane="1253188486#4_0" departPos="135.95" departSpeed="0.00" departDelay="0.00" arrival="132.00" arrivalLane="1253188486#8_1" arrivalPos="202.24" arrivalSpeed="16.47" duration="127.00" routeLength="264.92" waitingTime="94.00" waitingCount="1" stopTime="0.00" timeLoss="110.65" rerouteNo="0" devices="tripinfo_flow_route_113_duration_20250327_2150.1" vType="car" speedFactor="1.05" vaporized=""/>
    <tripinfo id="flow_route_113_duration_20250327_2150.11" depart="55.00" departLane="1253188486#4_0" departPos="104.28" departSpeed="0.00" departDelay="0.00" arrival="132.00" arrivalLane="1253188486#8_1" arrivalPos="68.03" arrivalSpeed="15.25" duration="77.00" routeLength="162.38" waitingTime="49.00" waitingCount="1" stopTime="0.00" timeLoss="66.56" rerouteNo="0" devices="tripinfo_flow_route_113_duration_20250327_2150.11" vType="car" speedFactor="1.14" vaporized=""/>
    <tripinfo id="flow_route_113_duration_20250327_2150.4" depart="20.00" departLane="1253188486#4_0" departPos="75.44" departSpeed="0.00" departDelay="0.00" arrival="137.00" arrivalLane="1253188486#8_2" arrivalPos="235.51" arrivalSpeed="16.45" duration="117.00" routeLength="358.70" waitingTime="74.00" waitingCount="1" stopTime="0.00" timeLoss="94.75" rerouteNo="0" devices="tripinfo_flow_route_113_duration_20250327_2150.4" vType="car" speedFactor="0.83" vaporized=""/>
    <tripinfo id="flow_route_113_duration_20250327_2150.2" depart="11.00" departLane="1253188486#4_0" departPos="50.74" departSpeed="0.00" departDelay="1.00" arrival="139.00" arrivalLane="1253188486#8_0" arrivalPos="234.69" arrivalSpeed="16.38" duration="128.00" routeLength="382.58" waitingTime="80.00" waitingCount="1" stopTime="0.00" timeLoss="104.25" rerouteNo="0" devices="tripinfo_flow_route_113_duration_20250327_2150.2" vType="car" speedFactor="0.88" vaporized=""/>
    <tripinfo id="flow_route_113_duration_20250327_2150.8" depart="41.00" departLane="1253188486#4_0" departPos="45.38" departSpeed="0.00" departDelay="1.00" arrival="139.00" arrivalLane="1253188486#8_0" arrivalPos="174.37" arrivalSpeed="16.59" duration="98.00" routeLength="327.62" waitingTime="54.00" waitingCount="1" stopTime="0.00" timeLoss="77.54" rerouteNo="0" devices="tripinfo_flow_route_113_duration_20250327_2150.8" vType="car" speedFactor="1.09" vaporized=""/>
    <tripinfo id="flow_route_113_duration_20250327_2150.10" depart="51.00" departLane="1253188486#4_0" departPos="23.52" departSpeed="0.00" departDelay="1.00" arrival="144.00" arrivalLane="1253188486#8_0" arrivalPos="239.99" arrivalSpeed="16.13" duration="93.00" routeLength="415.11" waitingTime="45.00" waitingCount="1" stopTime="0.00" timeLoss="67.86" rerouteNo="0" devices="tripinfo_flow_route_113_duration_20250327_2150.10" vType="car" speedFactor="1.00" vaporized=""/>
    <tripinfo id="flow_route_119_duration_20250327_2150.1" depart="8.00" departLane="134194079#0_0" departPos="89.03" departSpeed="0.00" departDelay="0.50" arrival="157.00" arrivalLane="1253188486#8_0" arrivalPos="7.95" arrivalSpeed="7.93" duration="149.00" routeLength="229.88" waitingTime="99.00" waitingCount="1" stopTime="0.00" timeLoss="133.94" rerouteNo="0" devices="tripinfo_flow_route_119_duration_20250327_2150.1" vType="car" speedFactor="0.99" vaporized=""/>
    <tripinfo id="flow_route_118_duration_20250327_2150.5" depart="16.00" departLane="134194079#0_0" departPos="197.11" departSpeed="0.00" departDelay="1.72" arrival="157.00" arrivalLane="1328664744#0_0" arrivalPos="37.26" arrivalSpeed="9.63" duration="141.00" routeLength="161.30" waitingTime="109.00" waitingCount="1" stopTime="0.00" timeLoss="131.06" rerouteNo="0" devices="tripinfo_flow_route_118_duration_20250327_2150.5" vType="car" speedFactor="1.01" vaporized=""/>
    <tripinfo id="flow_route_118_duration_20250327_2150.8" depart="23.00" departLane="134194079#0_0" departPos="54.09" departSpeed="0.00" departDelay="0.14" arrival="159.00" arrivalLane="1328664744#0_2" arrivalPos="37.36" arrivalSpeed="10.41" duration="136.00" routeLength="304.42" waitingTime="95.00" waitingCount="1" stopTime="0.00" timeLoss="115.96" rerouteNo="0" devices="tripinfo_flow_route_118_duration_20250327_2150.8" vType="car" speedFactor="0.92" vaporized=""/>
    <tripinfo id="flow_route_118_duration_20250327_2150.7" depart="20.00" departLane="134194079#0_0" departPos="171.13" departSpeed="0.00" departDelay="0.00" arrival="163.00" arrivalLane="1328664744#0_1" arrivalPos="68.28" arrivalSpeed="12.10" duration="143.00" routeLength="218.30" waitingTime="102.00" waitingCount="1" stopTime="0.00" timeLoss="127.19" rerouteNo="0" devices="tripinfo_flow_route_118_duration_20250327_2150.7" vType="car" speedFactor="0.87" vaporized=""/>
    <tripinfo id="flow_route_118_duration_20250327_2150.10" depart="29.00" departLane="134194079#0_0" departPos="100.02" departSpeed="0.00" departDelay="0.43" arrival="164.00" arrivalLane="1328664744#0_2" arrivalPos="69.63" arrivalSpeed="12.80" duration="135.00" routeLength="290.76" waitingTime="89.00" waitingCount="1" stopTime="0.00" timeLoss="117.08" rerouteNo="0" devices="tripinfo_flow_route_118_duration_20250327_2150.10" vType="car" speedFactor="1.15" vaporized=""/>
    <tripinfo id="flow_route_118_duration_20250327_2150.3" depart="10.00" departLane="134194079#0_0" departPos="8.80" departSpeed="0.00" departDelay="1.43" arrival="167.00" arrivalLane="1328664744#0_1" arrivalPos="169.60" arrivalSpeed="15.29" duration="157.00" routeLength="481.96" waitingTime="103.00" waitingCount="1" stopTime="0.00" timeLoss="125.11" rerouteNo="0" devices="tripinfo_flow_route_118_duration_20250327_2150.3" vType="car" speedFactor="0.93" vaporized=""/>
    <tripinfo id="flow_route_119_duration_20250327_2150.4" depart="31.00" departLane="134194079#0_0" departPos="243.55" departSpeed="0.00" departDelay="1.00" arrival="167.00" arrivalLane="1253188486#8_0" arrivalPos="177.11" arrivalSpeed="16.19" duration="136.00" routeLength="244.51" waitingTime="99.00" waitingCount="1" stopTime="0.00" timeLoss="119.83" rerouteNo="0" devices="tripinfo_flow_route_119_duration_20250327_2150.4" vType="car" speedFactor="1.10" vaporized=""/>
    <tripinfo id="flow_route_118_duration_20250327_2150.14" depart="43.00" departLane="134194079#0_0" departPos="137.58" departSpeed="0.00" departDelay="3.00" arrival="168.00" arrivalLane="1328664744#0_2" arrivalPos="101.11" arrivalSpeed="14.92" duration="125.00" routeLength="284.69" waitingTime="82.00" waitingCount="1" stopTime="0.00" timeLoss="107.25" rerouteNo="0" devices="tripinfo_flow_route_118_duration_20250327_2150.14" vType="car" speedFactor="1.00" vaporized=""/>
    <tripinfo id="flow_route_118_duration_20250327_2150.15" depart="43.00" departLane="134194079#0_0" departPos="195.25" departSpeed="0.00" departDelay="0.15" arrival="168.00" arrivalLane="1328664744#0_0" arrivalPos="76.07" arrivalSpeed="13.59" duration="125.00" routeLength="201.97" waitingTime="90.00" waitingCount="1" stopTime="0.00" timeLoss="111.42" rerouteNo="0" devices="tripinfo_flow_route_118_duration_20250327_2150.15" vType="car" speedFactor="0.90" vaporized=""/>
    <tripinfo id="flow_route_118_duration_20250327_2150.11" depart="32.00" departLane="134194079#0_0" departPos="123.08" departSpeed="0.00" departDelay="0.57" arrival="169.00" arrivalLane="1328664744#0_1" arrivalPos="129.79" arrivalSpeed="14.55" duration="137.00" routeLength="327.86" waitingTime="91.00" waitingCount="1" stopTime="0.00" timeLoss="114.38" rerouteNo="0" devices="tripinfo_flow_route_118_duration_20250327_2150.11" vType="car" speedFactor="0.90" vaporized=""/>
    <tripinfo id="flow_route_118_duration_20250327_2150.17" depart="49.00" departLane="134194079#0_0" departPos="199.24" departSpeed="0.00" departDelay="0.43" arrival="169.00" arrivalLane="1328664744#0_1" arrivalPos="86.67" arrivalSpeed="13.90" duration="120.00" routeLength="208.58" waitingTime="85.00" waitingCount="1" stopTime="0.00" timeLoss="107.21" rerouteNo="0" devices="tripinfo_flow_route_118_duration_20250327_2150.17" vType="car" speedFactor="1.10" vaporized=""/>
    <tripinfo id="flow_route_118_duration_20250327_2150.13" depart="43.00" departLane="134194079#0_0" departPos="206.36" departSpeed="0.00" departDelay="5.86" arrival="170.00" arrivalLane="1328664744#0_0" arrivalPos="138.71" arrivalSpeed="16.10" duration="127.00" routeLength="253.50" waitingTime="90.00" waitingCount="1" stopTime="0.00" timeLoss="111.35" rerouteNo="0" devices="tripinfo_flow_route_118_duration_20250327_2150.13" vType="car" speedFactor="1.04" vaporized=""/>
    <tripinfo id="flow_route_118_duration_20250327_2150.19" depart="57.00" departLane="134194079#0_0" departPos="30.35" departSpeed="0.00" departDelay="2.72" arrival="170.00" arrivalLane="1328664744#0_2" arrivalPos="84.18" arrivalSpeed="14.95" duration="113.00" routeLength="374.98" waitingTime="65.00" waitingCount="1" stopTime="0.00" timeLoss="90.09" rerouteNo="0" devices="tripinfo_flow_route_118_duration_20250327_2150.19" vType="car" speedFactor="1.02" vaporized=""/>
    <tripinfo id="flow_route_119_duration_20250327_2150.3" depart="23.00" departLane="134194079#0_0" departPos="189.30" departSpeed="0.00" departDelay="0.50" arrival="172.00" arrivalLane="1253188486#8_0" arrivalPos="234.28" arrivalSpeed="16.20" duration="149.00" routeLength="355.93" waitingTime="99.00" waitingCount="1" stopTime="0.00" timeLoss="125.79" rerouteNo="0" devices="tripinfo_flow_route_119_duration_20250327_2150.3" vType="car" speedFactor="0.95" vaporized=""/>
    <tripinfo id="flow_route_118_duration_20250327_2150.16" depart="46.00" departLane="134194079#0_0" departPos="109.63" departSpeed="0.00" departDelay="0.29" arrival="175.00" arrivalLane="1328664744#0_2" arrivalPos="195.67" arrivalSpeed="16.22" duration="129.00" routeLength="407.19" waitingTime="79.00" waitingCount="1" stopTime="0.00" timeLoss="104.25" rerouteNo="0" devices="tripinfo_flow_route_118_duration_20250327_2150.16" vType="car" speedFactor="1.17" vaporized=""/>
    <tripinfo id="flow_route_118_duration_20250327_2150.12" depart="35.00" departLane="134194079#0_0" departPos="89.31" departSpeed="0.00" departDelay="0.72" arrival="176.00" arrivalLane="1328664744#0_1" arrivalPos="216.71" arrivalSpeed="15.67" duration="141.00" routeLength="448.54" waitingTime="86.00" waitingCount="1" stopTime="0.00" timeLoss="112.51" rerouteNo="0" devices="tripinfo_flow_route_118_duration_20250327_2150.12" vType="car" speedFactor="0.96" vaporized=""/>
    <tripinfo id="flow_route_119_duration_20250327_2150.7" depart="54.00" departLane="134194079#0_0" departPos="173.79" departSpeed="0.00" departDelay="1.50" arrival="176.00" arrivalLane="1253188486#8_0" arrivalPos="162.73" arrivalSpeed="16.49" duration="122.00" routeLength="299.89" waitingTime="80.00" waitingCount="1" stopTime="0.00" timeLoss="101.93" rerouteNo="0" devices="tripinfo_flow_route_119_duration_20250327_2150.7" vType="car" speedFactor="0.90" vaporized=""/>
    <tripinfo id="flow_route_118_duration_20250327_2150.18" depart="52.00" departLane="134194079#0_0" departPos="101.65" departSpeed="0.00" departDelay="0.57" arrival="179.00" arrivalLane="1328664744#0_1" arrivalPos="200.65" arrivalSpeed="16.12" duration="127.00" routeLength="420.15" waitingTime="74.00" waitingCount="1" stopTime="0.00" timeLoss="101.54" rerouteNo="0" devices="tripinfo_flow_route_118_duration_20250327_2150.18" vType="car" speedFactor="1.00" vaporized=""/>
    <tripinfo id="flow_route_118_duration_20250327_2150.20" depart="61.00" departLane="134194079#0_0" departPos="162.04" departSpeed="0.00" departDelay="3.86" arrival="179.00" arrivalLane="1328664744#0_0" arrivalPos="190.03" arrivalSpeed="15.95" duration="118.00" routeLength="349.14" waitingTime="72.00" waitingCount="1" stopTime="0.00" timeLoss="95.72" rerouteNo="0" devices="tripinfo_flow_route_118_duration_20250327_2150.20" vType="car" speedFactor="0.97" vaporized=""/>
    <tripinfo id="flow_route_119_duration_20250327_2150.6" depart="45.00" departLane="134194079#0_0" departPos="41.64" departSpeed="0.00" departDelay="0.00" arrival="182.00" arrivalLane="1253188486#8_0" arrivalPos="174.74" arrivalSpeed="16.38" duration="137.00" routeLength="444.04" waitingTime="72.00" waitingCount="1" stopTime="0.00" timeLoss="105.93" rerouteNo="0" devices="tripinfo_flow_route_119_duration_20250327_2150.6" vType="car" speedFactor="0.85" vaporized=""/>
    <tripinfo id="flow_route_99_duration_20250327_2150.4" depart="48.00" departLane="1328664748#0_0" departPos="9.48" departSpeed="0.00" departDelay="0.00" arrival="185.00" arrivalLane="1253188486#8_2" arrivalPos="117.77" arrivalSpeed="14.83" duration="137.00" routeLength="366.16" waitingTime="86.00" waitingCount="2" stopTime="0.00" timeLoss="114.08" rerouteNo="0" devices="tripinfo_flow_route_99_duration_20250327_2150.4" vType="car" speedFactor="1.02" vaporized=""/>
    <tripinfo id="flow_route_119_duration_20250327_2150.5" depart="43.00" departLane="134194079#0_0" departPos="29.95" departSpeed="0.00" departDelay="5.50" arrival="187.00" arrivalLane="1253188486#8_0" arrivalPos="226.92" arrivalSpeed="16.50" duration="144.00" routeLength="507.91" waitingTime="72.00" waitingCount="1" stopTime="0.00" timeLoss="111.85" rerouteNo="0" devices="tripinfo_flow_route_119_duration_20250327_2150.5" vType="car" speedFactor="1.04" vaporized=""/>
</tripinfos>
