<?xml version="1.0" encoding="UTF-8"?>

<!-- generated on 2025-05-06 21:08:48 by Eclipse SUMO sumo Version 1.20.0
<configuration xmlns:xsi="http://www.w3.org/2001/XMLSchema-instance" xsi:noNamespaceSchemaLocation="http://sumo.dlr.de/xsd/sumoConfiguration.xsd">

    <input>
        <net-file value="osm.net.xml"/>
        <route-files value="xml/route_static_GS_cluster_1342409365_3839031467_6.rou.xml"/>
    </input>

    <output>
        <tripinfo-output value="xml/tripinfo_static_GS_cluster_1342409365_3839031467_6.xml"/>
    </output>

    <traci_server>
        <remote-port value="48727"/>
    </traci_server>

</configuration>
-->

<tripinfos xmlns:xsi="http://www.w3.org/2001/XMLSchema-instance" xsi:noNamespaceSchemaLocation="http://sumo.dlr.de/xsd/tripinfo_file.xsd">
    <tripinfo id="flow_route_128_duration_20250327_1920.0" depart="0.00" departLane="134133272_0" departPos="226.49" departSpeed="0.00" departDelay="0.00" arrival="31.00" arrivalLane="380585338#0_0" arrivalPos="7.57" arrivalSpeed="5.59" duration="31.00" routeLength="279.28" waitingTime="0.00" waitingCount="0" stopTime="0.00" timeLoss="10.59" rerouteNo="0" devices="tripinfo_flow_route_128_duration_20250327_1920.0" vType="car" speedFactor="0.83" vaporized=""/>
    <tripinfo id="flow_route_91_duration_20250327_1920.0" depart="0.00" departLane="133000063_0" departPos="128.34" departSpeed="0.00" departDelay="0.00" arrival="47.00" arrivalLane="683079387#1_0" arrivalPos="9.10" arrivalSpeed="16.42" duration="47.00" routeLength="599.49" waitingTime="0.00" waitingCount="0" stopTime="0.00" timeLoss="10.80" rerouteNo="0" devices="tripinfo_flow_route_91_duration_20250327_1920.0" vType="car" speedFactor="1.06" vaporized=""/>
    <tripinfo id="flow_route_93_duration_20250327_1920.0" depart="0.00" departLane="133000063_0" departPos="115.92" departSpeed="0.00" departDelay="0.00" arrival="63.00" arrivalLane="380585336_1" arrivalPos="19.16" arrivalSpeed="16.57" duration="63.00" routeLength="758.54" waitingTime="0.00" waitingCount="0" stopTime="0.00" timeLoss="16.79" rerouteNo="0" devices="tripinfo_flow_route_93_duration_20250327_1920.0" vType="car" speedFactor="1.01" vaporized=""/>
    <tripinfo id="flow_route_102_duration_20250327_1920.10" depart="6.00" departLane="1342963997_0" departPos="178.17" departSpeed="0.00" departDelay="0.60" arrival="63.00" arrivalLane="380585336_1" arrivalPos="117.49" arrivalSpeed="16.57" duration="57.00" routeLength="650.27" waitingTime="1.00" waitingCount="1" stopTime="0.00" timeLoss="16.53" rerouteNo="0" devices="tripinfo_flow_route_102_duration_20250327_1920.10" vType="car" speedFactor="1.01" vaporized=""/>
    <tripinfo id="flow_route_128_duration_20250327_1920.1" depart="20.00" departLane="134133272_0" departPos="95.36" departSpeed="0.00" departDelay="0.00" arrival="66.00" arrivalLane="380585338#0_0" arrivalPos="55.71" arrivalSpeed="10.58" duration="46.00" routeLength="458.55" waitingTime="0.00" waitingCount="0" stopTime="0.00" timeLoss="14.31" rerouteNo="0" devices="tripinfo_flow_route_128_duration_20250327_1920.1" vType="car" speedFactor="0.91" vaporized=""/>
    <tripinfo id="flow_route_144_duration_20250327_1920.3" depart="13.00" departLane="683079388#0_0" departPos="11.12" departSpeed="0.00" departDelay="4.43" arrival="67.00" arrivalLane="380585338#0_2" arrivalPos="72.44" arrivalSpeed="15.92" duration="54.00" routeLength="641.06" waitingTime="0.00" waitingCount="0" stopTime="0.00" timeLoss="14.52" rerouteNo="0" devices="tripinfo_flow_route_144_duration_20250327_1920.3" vType="car" speedFactor="1.00" vaporized=""/>
    <tripinfo id="flow_route_102_duration_20250327_1920.5" depart="3.00" departLane="1342963997_0" departPos="173.19" departSpeed="0.00" departDelay="0.30" arrival="68.00" arrivalLane="380585336_1" arrivalPos="288.66" arrivalSpeed="16.26" duration="65.00" routeLength="826.42" waitingTime="0.00" waitingCount="0" stopTime="0.00" timeLoss="14.10" rerouteNo="0" devices="tripinfo_flow_route_102_duration_20250327_1920.5" vType="car" speedFactor="1.16" vaporized=""/>
    <tripinfo id="flow_route_102_duration_20250327_1920.3" depart="2.00" departLane="1342963997_0" departPos="137.27" departSpeed="0.00" departDelay="0.38" arrival="69.00" arrivalLane="380585336_1" arrivalPos="167.10" arrivalSpeed="14.95" duration="67.00" routeLength="740.78" waitingTime="0.00" waitingCount="0" stopTime="0.00" timeLoss="18.40" rerouteNo="0" devices="tripinfo_flow_route_102_duration_20250327_1920.3" vType="car" speedFactor="0.93" vaporized=""/>
    <tripinfo id="flow_route_144_duration_20250327_1920.4" depart="15.00" departLane="683079388#0_0" departPos="4.33" departSpeed="0.00" departDelay="3.57" arrival="69.00" arrivalLane="380585338#0_2" arrivalPos="83.36" arrivalSpeed="16.33" duration="54.00" routeLength="658.77" waitingTime="0.00" waitingCount="0" stopTime="0.00" timeLoss="13.69" rerouteNo="0" devices="tripinfo_flow_route_144_duration_20250327_1920.4" vType="car" speedFactor="1.08" vaporized=""/>
    <tripinfo id="flow_route_129_duration_20250327_1920.0" depart="0.00" departLane="134133272_0" departPos="105.80" departSpeed="0.00" departDelay="0.00" arrival="70.00" arrivalLane="683079387#1_0" arrivalPos="7.59" arrivalSpeed="16.56" duration="70.00" routeLength="945.90" waitingTime="0.00" waitingCount="0" stopTime="0.00" timeLoss="12.30" rerouteNo="0" devices="tripinfo_flow_route_129_duration_20250327_1920.0" vType="car" speedFactor="1.05" vaporized=""/>
    <tripinfo id="flow_route_144_duration_20250327_1920.0" depart="0.00" departLane="683079388#0_0" departPos="1.56" departSpeed="0.00" departDelay="0.00" arrival="72.00" arrivalLane="380585338#0_0" arrivalPos="42.98" arrivalSpeed="9.45" duration="72.00" routeLength="621.16" waitingTime="8.00" waitingCount="1" stopTime="0.00" timeLoss="29.87" rerouteNo="0" devices="tripinfo_flow_route_144_duration_20250327_1920.0" vType="car" speedFactor="0.89" vaporized=""/>
    <tripinfo id="flow_route_144_duration_20250327_1920.1" depart="5.00" departLane="683079388#0_0" departPos="24.66" departSpeed="0.00" departDelay="2.14" arrival="73.00" arrivalLane="380585338#0_1" arrivalPos="57.53" arrivalSpeed="10.90" duration="68.00" routeLength="612.62" waitingTime="6.00" waitingCount="1" stopTime="0.00" timeLoss="30.64" rerouteNo="0" devices="tripinfo_flow_route_144_duration_20250327_1920.1" vType="car" speedFactor="1.02" vaporized=""/>
    <tripinfo id="flow_route_93_duration_20250327_1920.5" depart="5.00" departLane="133000063_0" departPos="99.91" departSpeed="0.00" departDelay="2.75" arrival="77.00" arrivalLane="380585336_1" arrivalPos="67.04" arrivalSpeed="14.43" duration="72.00" routeLength="822.42" waitingTime="0.00" waitingCount="0" stopTime="0.00" timeLoss="16.39" rerouteNo="0" devices="tripinfo_flow_route_93_duration_20250327_1920.5" vType="car" speedFactor="0.88" vaporized=""/>
    <tripinfo id="flow_route_144_duration_20250327_1920.5" depart="19.00" departLane="683079388#0_0" departPos="2.96" departSpeed="0.00" departDelay="4.72" arrival="77.00" arrivalLane="380585338#0_2" arrivalPos="170.34" arrivalSpeed="16.12" duration="58.00" routeLength="747.12" waitingTime="0.00" waitingCount="0" stopTime="0.00" timeLoss="12.22" rerouteNo="0" devices="tripinfo_flow_route_144_duration_20250327_1920.5" vType="car" speedFactor="1.06" vaporized=""/>
    <tripinfo id="flow_route_93_duration_20250327_1920.7" depart="8.00" departLane="133000063_0" departPos="116.90" departSpeed="0.00" departDelay="4.84" arrival="79.00" arrivalLane="380585336_2" arrivalPos="94.02" arrivalSpeed="16.11" duration="71.00" routeLength="832.41" waitingTime="0.00" waitingCount="0" stopTime="0.00" timeLoss="20.23" rerouteNo="0" devices="tripinfo_flow_route_93_duration_20250327_1920.7" vType="car" speedFactor="1.01" vaporized=""/>
    <tripinfo id="flow_route_93_duration_20250327_1920.2" depart="1.00" departLane="133000063_0" departPos="109.11" departSpeed="0.00" departDelay="0.10" arrival="81.00" arrivalLane="380585336_0" arrivalPos="288.04" arrivalSpeed="16.26" duration="80.00" routeLength="1034.22" waitingTime="1.00" waitingCount="1" stopTime="0.00" timeLoss="17.30" rerouteNo="0" devices="tripinfo_flow_route_93_duration_20250327_1920.2" vType="car" speedFactor="1.09" vaporized=""/>
    <tripinfo id="flow_route_144_duration_20250327_1920.2" depart="6.00" departLane="683079388#0_0" departPos="8.75" departSpeed="0.00" departDelay="0.29" arrival="83.00" arrivalLane="380585338#0_0" arrivalPos="161.17" arrivalSpeed="16.29" duration="77.00" routeLength="732.15" waitingTime="6.00" waitingCount="1" stopTime="0.00" timeLoss="32.56" rerouteNo="0" devices="tripinfo_flow_route_144_duration_20250327_1920.2" vType="car" speedFactor="0.99" vaporized=""/>
    <tripinfo id="flow_route_144_duration_20250327_1920.7" depart="33.00" departLane="683079388#0_0" departPos="1.63" departSpeed="0.00" departDelay="13.00" arrival="83.00" arrivalLane="380585338#0_1" arrivalPos="43.50" arrivalSpeed="16.36" duration="50.00" routeLength="621.61" waitingTime="0.00" waitingCount="0" stopTime="0.00" timeLoss="11.94" rerouteNo="0" devices="tripinfo_flow_route_144_duration_20250327_1920.7" vType="car" speedFactor="1.12" vaporized=""/>
    <tripinfo id="flow_route_144_duration_20250327_1920.6" depart="27.00" departLane="683079388#0_0" departPos="15.07" departSpeed="0.00" departDelay="9.86" arrival="84.00" arrivalLane="380585338#0_0" arrivalPos="146.50" arrivalSpeed="16.17" duration="57.00" routeLength="711.18" waitingTime="0.00" waitingCount="0" stopTime="0.00" timeLoss="13.53" rerouteNo="0" devices="tripinfo_flow_route_144_duration_20250327_1920.6" vType="car" speedFactor="1.04" vaporized=""/>
    <tripinfo id="flow_route_92_duration_20250327_1920.0" depart="0.00" departLane="133000063_0" departPos="1.04" departSpeed="0.00" departDelay="0.00" arrival="94.00" arrivalLane="186409193_0" arrivalPos="41.62" arrivalSpeed="15.16" duration="94.00" routeLength="432.44" waitingTime="35.00" waitingCount="1" stopTime="0.00" timeLoss="65.05" rerouteNo="0" devices="tripinfo_flow_route_92_duration_20250327_1920.0" vType="car" speedFactor="0.94" vaporized=""/>
    <tripinfo id="flow_route_145_duration_20250327_1920.0" depart="0.00" departLane="683079388#0_0" departPos="22.61" departSpeed="0.00" departDelay="0.00" arrival="98.00" arrivalLane="380585336_0" arrivalPos="229.76" arrivalSpeed="15.38" duration="98.00" routeLength="831.39" waitingTime="22.00" waitingCount="1" stopTime="0.00" timeLoss="45.06" rerouteNo="0" devices="tripinfo_flow_route_145_duration_20250327_1920.0" vType="car" speedFactor="0.94" vaporized=""/>
    <tripinfo id="flow_route_102_duration_20250327_1920.9" depart="5.00" departLane="1342963997_0" departPos="115.21" departSpeed="0.00" departDelay="0.14" arrival="98.00" arrivalLane="380585336_1" arrivalPos="129.69" arrivalSpeed="15.14" duration="93.00" routeLength="725.43" waitingTime="13.00" waitingCount="1" stopTime="0.00" timeLoss="45.55" rerouteNo="0" devices="tripinfo_flow_route_102_duration_20250327_1920.9" vType="car" speedFactor="0.93" vaporized=""/>
    <tripinfo id="flow_route_128_duration_20250327_1920.2" depart="40.00" departLane="134133272_0" departPos="257.68" departSpeed="0.00" departDelay="0.00" arrival="99.00" arrivalLane="380585338#0_0" arrivalPos="132.21" arrivalSpeed="14.90" duration="59.00" routeLength="372.73" waitingTime="13.00" waitingCount="1" stopTime="0.00" timeLoss="33.20" rerouteNo="0" devices="tripinfo_flow_route_128_duration_20250327_1920.2" vType="car" speedFactor="0.90" vaporized=""/>
    <tripinfo id="flow_route_102_duration_20250327_1920.13" depart="10.00" departLane="1342963997_0" departPos="156.91" departSpeed="0.00" departDelay="2.98" arrival="101.00" arrivalLane="380585336_1" arrivalPos="122.21" arrivalSpeed="16.48" duration="91.00" routeLength="676.26" waitingTime="15.00" waitingCount="2" stopTime="0.00" timeLoss="49.52" rerouteNo="0" devices="tripinfo_flow_route_102_duration_20250327_1920.13" vType="car" speedFactor="1.03" vaporized=""/>
    <tripinfo id="flow_route_102_duration_20250327_1920.15" depart="10.00" departLane="1342963997_0" departPos="174.44" departSpeed="0.00" departDelay="1.90" arrival="106.00" arrivalLane="380585336_2" arrivalPos="347.85" arrivalSpeed="16.35" duration="96.00" routeLength="884.36" waitingTime="17.00" waitingCount="3" stopTime="0.00" timeLoss="41.99" rerouteNo="0" devices="tripinfo_flow_route_102_duration_20250327_1920.15" vType="car" speedFactor="1.04" vaporized=""/>
    <tripinfo id="flow_route_102_duration_20250327_1920.7" depart="4.00" departLane="1342963997_0" departPos="128.49" departSpeed="0.00" departDelay="0.22" arrival="111.00" arrivalLane="380585336_0" arrivalPos="101.71" arrivalSpeed="13.66" duration="107.00" routeLength="684.18" waitingTime="16.00" waitingCount="3" stopTime="0.00" timeLoss="57.72" rerouteNo="0" devices="tripinfo_flow_route_102_duration_20250327_1920.7" vType="car" speedFactor="0.83" vaporized=""/>
    <tripinfo id="flow_route_102_duration_20250327_1920.16" depart="10.00" departLane="1342963997_0" departPos="53.21" departSpeed="0.00" departDelay="1.36" arrival="113.00" arrivalLane="380585336_1" arrivalPos="246.50" arrivalSpeed="16.56" duration="103.00" routeLength="904.25" waitingTime="13.00" waitingCount="3" stopTime="0.00" timeLoss="47.19" rerouteNo="0" devices="tripinfo_flow_route_102_duration_20250327_1920.16" vType="car" speedFactor="1.09" vaporized=""/>
    <tripinfo id="flow_route_102_duration_20250327_1920.17" depart="10.00" departLane="1342963997_0" departPos="61.57" departSpeed="0.00" departDelay="0.82" arrival="113.00" arrivalLane="380585336_0" arrivalPos="389.72" arrivalSpeed="13.91" duration="103.00" routeLength="1035.96" waitingTime="1.00" waitingCount="1" stopTime="0.00" timeLoss="30.81" rerouteNo="0" devices="tripinfo_flow_route_102_duration_20250327_1920.17" vType="car" speedFactor="0.85" vaporized=""/>
    <tripinfo id="flow_route_102_duration_20250327_1920.24" depart="28.00" departLane="1342963997_0" departPos="159.41" departSpeed="0.00" departDelay="15.04" arrival="115.00" arrivalLane="380585336_1" arrivalPos="145.18" arrivalSpeed="15.39" duration="87.00" routeLength="696.72" waitingTime="13.00" waitingCount="5" stopTime="0.00" timeLoss="41.72" rerouteNo="0" devices="tripinfo_flow_route_102_duration_20250327_1920.24" vType="car" speedFactor="0.94" vaporized=""/>
    <tripinfo id="flow_route_144_duration_20250327_1920.9" depart="39.00" departLane="683079388#0_0" departPos="18.92" departSpeed="0.00" departDelay="13.29" arrival="125.00" arrivalLane="380585338#0_1" arrivalPos="2.31" arrivalSpeed="6.50" duration="86.00" routeLength="563.13" waitingTime="31.00" waitingCount="1" stopTime="0.00" timeLoss="51.74" rerouteNo="0" devices="tripinfo_flow_route_144_duration_20250327_1920.9" vType="car" speedFactor="1.06" vaporized=""/>
    <tripinfo id="flow_route_102_duration_20250327_1920.32" depart="33.00" departLane="1342963997_0" departPos="153.58" departSpeed="0.00" departDelay="15.72" arrival="126.00" arrivalLane="380585336_2" arrivalPos="330.36" arrivalSpeed="15.85" duration="93.00" routeLength="887.73" waitingTime="12.00" waitingCount="2" stopTime="0.00" timeLoss="37.45" rerouteNo="0" devices="tripinfo_flow_route_102_duration_20250327_1920.32" vType="car" speedFactor="0.98" vaporized=""/>
    <tripinfo id="flow_route_93_duration_20250327_1920.8" depart="9.00" departLane="133000063_0" departPos="62.90" departSpeed="0.00" departDelay="5.39" arrival="128.00" arrivalLane="380585336_1" arrivalPos="70.77" arrivalSpeed="14.44" duration="119.00" routeLength="863.16" waitingTime="23.00" waitingCount="2" stopTime="0.00" timeLoss="65.80" rerouteNo="0" devices="tripinfo_flow_route_93_duration_20250327_1920.8" vType="car" speedFactor="0.97" vaporized=""/>
    <tripinfo id="flow_route_93_duration_20250327_1920.14" depart="24.00" departLane="133000063_0" departPos="99.76" departSpeed="0.00" departDelay="17.69" arrival="128.00" arrivalLane="380585336_1" arrivalPos="36.24" arrivalSpeed="16.34" duration="104.00" routeLength="791.78" waitingTime="15.00" waitingCount="2" stopTime="0.00" timeLoss="55.76" rerouteNo="0" devices="tripinfo_flow_route_93_duration_20250327_1920.14" vType="car" speedFactor="1.02" vaporized=""/>
    <tripinfo id="flow_route_102_duration_20250327_1920.18" depart="17.00" departLane="1342963997_0" departPos="147.12" departSpeed="0.00" departDelay="7.28" arrival="128.00" arrivalLane="380585336_1" arrivalPos="207.60" arrivalSpeed="16.48" duration="111.00" routeLength="771.42" waitingTime="26.00" waitingCount="5" stopTime="0.00" timeLoss="64.12" rerouteNo="0" devices="tripinfo_flow_route_102_duration_20250327_1920.18" vType="car" speedFactor="1.17" vaporized=""/>
    <tripinfo id="flow_route_144_duration_20250327_1920.10" depart="39.00" departLane="683079388#0_0" departPos="8.50" departSpeed="0.00" departDelay="10.43" arrival="129.00" arrivalLane="380585338#0_0" arrivalPos="8.42" arrivalSpeed="7.65" duration="90.00" routeLength="579.67" waitingTime="31.00" waitingCount="1" stopTime="0.00" timeLoss="54.68" rerouteNo="0" devices="tripinfo_flow_route_144_duration_20250327_1920.10" vType="car" speedFactor="1.02" vaporized=""/>
    <tripinfo id="flow_route_102_duration_20250327_1920.6" depart="4.00" departLane="1342963997_0" departPos="119.97" departSpeed="0.00" departDelay="0.76" arrival="130.00" arrivalLane="380585336_0" arrivalPos="240.85" arrivalSpeed="14.70" duration="126.00" routeLength="831.83" waitingTime="28.00" waitingCount="6" stopTime="0.00" timeLoss="69.38" rerouteNo="0" devices="tripinfo_flow_route_102_duration_20250327_1920.6" vType="car" speedFactor="0.89" vaporized=""/>
    <tripinfo id="flow_route_93_duration_20250327_1920.1" depart="1.00" departLane="133000063_0" departPos="52.89" departSpeed="0.00" departDelay="0.55" arrival="131.00" arrivalLane="380585336_0" arrivalPos="135.66" arrivalSpeed="14.23" duration="130.00" routeLength="938.06" waitingTime="35.00" waitingCount="1" stopTime="0.00" timeLoss="64.96" rerouteNo="0" devices="tripinfo_flow_route_93_duration_20250327_1920.1" vType="car" speedFactor="0.86" vaporized=""/>
    <tripinfo id="flow_route_102_duration_20250327_1920.34" depart="35.00" departLane="1342963997_0" departPos="146.49" departSpeed="0.00" departDelay="16.64" arrival="132.00" arrivalLane="380585336_0" arrivalPos="337.82" arrivalSpeed="14.57" duration="97.00" routeLength="902.29" waitingTime="13.00" waitingCount="2" stopTime="0.00" timeLoss="35.93" rerouteNo="0" devices="tripinfo_flow_route_102_duration_20250327_1920.34" vType="car" speedFactor="0.89" vaporized=""/>
    <tripinfo id="flow_route_144_duration_20250327_1920.8" depart="36.00" departLane="683079388#0_0" departPos="23.26" departSpeed="0.00" departDelay="13.14" arrival="133.00" arrivalLane="380585338#0_0" arrivalPos="74.72" arrivalSpeed="11.53" duration="97.00" routeLength="631.20" waitingTime="36.00" waitingCount="1" stopTime="0.00" timeLoss="56.15" rerouteNo="0" devices="tripinfo_flow_route_144_duration_20250327_1920.8" vType="car" speedFactor="0.93" vaporized=""/>
    <tripinfo id="flow_route_129_duration_20250327_1920.1" depart="30.00" departLane="134133272_0" departPos="96.23" departSpeed="0.00" departDelay="0.00" arrival="135.00" arrivalLane="683079387#1_0" arrivalPos="1.88" arrivalSpeed="11.93" duration="105.00" routeLength="946.58" waitingTime="10.00" waitingCount="1" stopTime="0.00" timeLoss="28.63" rerouteNo="0" devices="tripinfo_flow_route_129_duration_20250327_1920.1" vType="car" speedFactor="0.73" vaporized=""/>
    <tripinfo id="flow_route_144_duration_20250327_1920.17" depart="74.00" departLane="683079388#0_0" departPos="17.27" departSpeed="0.00" departDelay="25.43" arrival="136.00" arrivalLane="380585338#0_0" arrivalPos="32.60" arrivalSpeed="10.80" duration="62.00" routeLength="595.07" waitingTime="1.00" waitingCount="1" stopTime="0.00" timeLoss="25.59" rerouteNo="0" devices="tripinfo_flow_route_144_duration_20250327_1920.17" vType="car" speedFactor="1.14" vaporized=""/>
    <tripinfo id="flow_route_144_duration_20250327_1920.19" depart="83.00" departLane="683079388#0_0" departPos="18.77" departSpeed="0.00" departDelay="28.72" arrival="136.00" arrivalLane="380585338#0_0" arrivalPos="18.92" arrivalSpeed="10.04" duration="53.00" routeLength="579.89" waitingTime="0.00" waitingCount="0" stopTime="0.00" timeLoss="17.88" rerouteNo="0" devices="tripinfo_flow_route_144_duration_20250327_1920.19" vType="car" speedFactor="1.30" vaporized=""/>
    <tripinfo id="flow_route_144_duration_20250327_1920.11" depart="47.00" departLane="683079388#0_0" departPos="22.33" departSpeed="0.00" departDelay="15.57" arrival="137.00" arrivalLane="380585338#0_1" arrivalPos="137.18" arrivalSpeed="16.04" duration="90.00" routeLength="694.59" waitingTime="23.00" waitingCount="1" stopTime="0.00" timeLoss="47.72" rerouteNo="0" devices="tripinfo_flow_route_144_duration_20250327_1920.11" vType="car" speedFactor="1.06" vaporized=""/>
    <tripinfo id="flow_route_93_duration_20250327_1920.13" depart="24.00" departLane="133000063_0" departPos="2.01" departSpeed="0.00" departDelay="18.14" arrival="139.00" arrivalLane="380585336_2" arrivalPos="11.73" arrivalSpeed="16.42" duration="115.00" routeLength="865.01" waitingTime="4.00" waitingCount="1" stopTime="0.00" timeLoss="62.48" rerouteNo="0" devices="tripinfo_flow_route_93_duration_20250327_1920.13" vType="car" speedFactor="1.15" vaporized=""/>
    <tripinfo id="flow_route_144_duration_20250327_1920.14" depart="57.00" departLane="683079388#0_0" departPos="3.80" departSpeed="0.00" departDelay="17.00" arrival="139.00" arrivalLane="380585338#0_2" arrivalPos="141.00" arrivalSpeed="15.19" duration="82.00" routeLength="716.94" waitingTime="13.00" waitingCount="1" stopTime="0.00" timeLoss="35.45" rerouteNo="0" devices="tripinfo_flow_route_144_duration_20250327_1920.14" vType="car" speedFactor="0.93" vaporized=""/>
    <tripinfo id="flow_route_144_duration_20250327_1920.15" depart="63.00" departLane="683079388#0_0" departPos="9.27" departSpeed="0.00" departDelay="20.15" arrival="139.00" arrivalLane="380585338#0_1" arrivalPos="106.41" arrivalSpeed="14.96" duration="76.00" routeLength="676.87" waitingTime="8.00" waitingCount="1" stopTime="0.00" timeLoss="34.61" rerouteNo="0" devices="tripinfo_flow_route_144_duration_20250327_1920.15" vType="car" speedFactor="1.07" vaporized=""/>
    <tripinfo id="flow_route_144_duration_20250327_1920.12" depart="49.00" departLane="683079388#0_0" departPos="9.16" departSpeed="0.00" departDelay="14.72" arrival="141.00" arrivalLane="380585338#0_0" arrivalPos="117.91" arrivalSpeed="15.79" duration="92.00" routeLength="688.49" waitingTime="24.00" waitingCount="1" stopTime="0.00" timeLoss="49.62" rerouteNo="0" devices="tripinfo_flow_route_144_duration_20250327_1920.12" vType="car" speedFactor="1.03" vaporized=""/>
    <tripinfo id="flow_route_144_duration_20250327_1920.13" depart="50.00" departLane="683079388#0_0" departPos="1.85" departSpeed="0.00" departDelay="12.86" arrival="141.00" arrivalLane="380585338#0_1" arrivalPos="168.58" arrivalSpeed="16.13" duration="91.00" routeLength="746.47" waitingTime="20.00" waitingCount="1" stopTime="0.00" timeLoss="45.27" rerouteNo="0" devices="tripinfo_flow_route_144_duration_20250327_1920.13" vType="car" speedFactor="1.03" vaporized=""/>
    <tripinfo id="flow_route_144_duration_20250327_1920.16" depart="74.00" departLane="683079388#0_0" departPos="0.63" departSpeed="0.00" departDelay="28.29" arrival="141.00" arrivalLane="380585338#0_2" arrivalPos="135.49" arrivalSpeed="16.20" duration="67.00" routeLength="714.60" waitingTime="0.00" waitingCount="0" stopTime="0.00" timeLoss="23.41" rerouteNo="0" devices="tripinfo_flow_route_144_duration_20250327_1920.16" vType="car" speedFactor="1.07" vaporized=""/>
    <tripinfo id="flow_route_93_duration_20250327_1920.4" depart="5.00" departLane="133000063_0" departPos="84.84" departSpeed="0.00" departDelay="3.20" arrival="143.00" arrivalLane="380585336_2" arrivalPos="347.33" arrivalSpeed="16.49" duration="138.00" routeLength="1117.78" waitingTime="36.00" waitingCount="1" stopTime="0.00" timeLoss="69.88" rerouteNo="0" devices="tripinfo_flow_route_93_duration_20250327_1920.4" vType="car" speedFactor="1.12" vaporized=""/>
    <tripinfo id="flow_route_144_duration_20250327_1920.18" depart="74.00" departLane="683079388#0_0" departPos="9.61" departSpeed="0.00" departDelay="22.57" arrival="144.00" arrivalLane="380585338#0_1" arrivalPos="157.87" arrivalSpeed="16.21" duration="70.00" routeLength="728.00" waitingTime="0.00" waitingCount="0" stopTime="0.00" timeLoss="25.70" rerouteNo="0" devices="tripinfo_flow_route_144_duration_20250327_1920.18" vType="car" speedFactor="1.01" vaporized=""/>
    <tripinfo id="flow_route_93_duration_20250327_1920.18" depart="36.00" departLane="133000063_0" departPos="34.92" departSpeed="0.00" departDelay="27.88" arrival="145.00" arrivalLane="380585336_1" arrivalPos="164.23" arrivalSpeed="16.34" duration="109.00" routeLength="984.60" waitingTime="0.00" waitingCount="0" stopTime="0.00" timeLoss="49.34" rerouteNo="0" devices="tripinfo_flow_route_93_duration_20250327_1920.18" vType="car" speedFactor="1.09" vaporized=""/>
    <tripinfo id="flow_route_144_duration_20250327_1920.20" depart="83.00" departLane="683079388#0_0" departPos="9.54" departSpeed="0.00" departDelay="25.86" arrival="147.00" arrivalLane="380585338#0_1" arrivalPos="170.56" arrivalSpeed="14.06" duration="64.00" routeLength="740.76" waitingTime="0.00" waitingCount="0" stopTime="0.00" timeLoss="12.35" rerouteNo="0" devices="tripinfo_flow_route_144_duration_20250327_1920.20" vType="car" speedFactor="0.87" vaporized=""/>
    <tripinfo id="flow_route_103_duration_20250327_1920.0" depart="2.00" departLane="1342963997_0" departPos="97.74" departSpeed="0.00" departDelay="2.00" arrival="151.00" arrivalLane="683079387#1_0" arrivalPos="6.02" arrivalSpeed="16.56" duration="149.00" routeLength="484.50" waitingTime="62.00" waitingCount="5" stopTime="0.00" timeLoss="118.58" rerouteNo="0" devices="tripinfo_flow_route_103_duration_20250327_1920.0" vType="car" speedFactor="1.03" vaporized=""/>
    <tripinfo id="flow_route_93_duration_20250327_1920.12" depart="18.00" departLane="133000063_0" departPos="35.74" departSpeed="0.00" departDelay="12.59" arrival="155.00" arrivalLane="380585336_1" arrivalPos="63.98" arrivalSpeed="16.30" duration="137.00" routeLength="883.53" waitingTime="14.00" waitingCount="1" stopTime="0.00" timeLoss="83.77" rerouteNo="0" devices="tripinfo_flow_route_93_duration_20250327_1920.12" vType="car" speedFactor="1.18" vaporized=""/>
    <tripinfo id="flow_route_93_duration_20250327_1920.10" depart="12.00" departLane="133000063_0" departPos="7.34" departSpeed="0.00" departDelay="7.49" arrival="157.00" arrivalLane="380585336_0" arrivalPos="291.42" arrivalSpeed="15.28" duration="145.00" routeLength="1139.37" waitingTime="25.00" waitingCount="2" stopTime="0.00" timeLoss="70.37" rerouteNo="0" devices="tripinfo_flow_route_93_duration_20250327_1920.10" vType="car" speedFactor="0.92" vaporized=""/>
    <tripinfo id="flow_route_93_duration_20250327_1920.21" depart="42.00" departLane="133000063_0" departPos="95.68" departSpeed="0.00" departDelay="32.53" arrival="157.00" arrivalLane="380585336_0" arrivalPos="368.92" arrivalSpeed="14.26" duration="115.00" routeLength="1128.53" waitingTime="8.00" waitingCount="1" stopTime="0.00" timeLoss="37.74" rerouteNo="0" devices="tripinfo_flow_route_93_duration_20250327_1920.21" vType="car" speedFactor="0.88" vaporized=""/>
    <tripinfo id="flow_route_93_duration_20250327_1920.3" depart="3.00" departLane="133000063_0" departPos="22.28" departSpeed="0.00" departDelay="1.65" arrival="158.00" arrivalLane="380585336_1" arrivalPos="395.67" arrivalSpeed="16.19" duration="155.00" routeLength="1228.68" waitingTime="23.00" waitingCount="2" stopTime="0.00" timeLoss="80.25" rerouteNo="0" devices="tripinfo_flow_route_93_duration_20250327_1920.3" vType="car" speedFactor="1.05" vaporized=""/>
    <tripinfo id="flow_route_93_duration_20250327_1920.15" depart="24.00" departLane="133000063_0" departPos="39.67" departSpeed="0.00" departDelay="17.24" arrival="158.00" arrivalLane="380585336_1" arrivalPos="238.97" arrivalSpeed="16.17" duration="134.00" routeLength="1054.59" waitingTime="18.00" waitingCount="1" stopTime="0.00" timeLoss="68.84" rerouteNo="0" devices="tripinfo_flow_route_93_duration_20250327_1920.15" vType="car" speedFactor="0.97" vaporized=""/>
    <tripinfo id="flow_route_93_duration_20250327_1920.20" depart="42.00" departLane="133000063_0" departPos="73.27" departSpeed="0.00" departDelay="32.98" arrival="160.00" arrivalLane="380585336_1" arrivalPos="44.12" arrivalSpeed="14.72" duration="118.00" routeLength="826.15" waitingTime="7.00" waitingCount="2" stopTime="0.00" timeLoss="62.95" rerouteNo="0" devices="tripinfo_flow_route_93_duration_20250327_1920.20" vType="car" speedFactor="0.90" vaporized=""/>
    <tripinfo id="flow_route_93_duration_20250327_1920.9" depart="10.00" departLane="133000063_0" departPos="73.22" departSpeed="0.00" departDelay="5.94" arrival="166.00" arrivalLane="380585336_0" arrivalPos="251.23" arrivalSpeed="14.27" duration="156.00" routeLength="1033.30" waitingTime="33.00" waitingCount="1" stopTime="0.00" timeLoss="85.06" rerouteNo="0" devices="tripinfo_flow_route_93_duration_20250327_1920.9" vType="car" speedFactor="0.87" vaporized=""/>
    <tripinfo id="flow_route_93_duration_20250327_1920.16" depart="28.00" departLane="133000063_0" departPos="66.30" departSpeed="0.00" departDelay="20.78" arrival="172.00" arrivalLane="380585336_1" arrivalPos="304.17" arrivalSpeed="16.11" duration="144.00" routeLength="1093.16" waitingTime="14.00" waitingCount="1" stopTime="0.00" timeLoss="77.63" rerouteNo="0" devices="tripinfo_flow_route_93_duration_20250327_1920.16" vType="car" speedFactor="1.10" vaporized=""/>