<?xml version="1.0" encoding="UTF-8"?>

<!-- generated on 2025-05-06 21:08:22 by Eclipse SUMO sumo Version 1.20.0
<configuration xmlns:xsi="http://www.w3.org/2001/XMLSchema-instance" xsi:noNamespaceSchemaLocation="http://sumo.dlr.de/xsd/sumoConfiguration.xsd">

    <input>
        <net-file value="osm.net.xml"/>
        <route-files value="xml/route_rl_cluster_4110471701_632031939_4.rou.xml"/>
    </input>

    <output>
        <tripinfo-output value="xml/tripinfo_rl_cluster_4110471701_632031939_4.xml"/>
    </output>

    <traci_server>
        <remote-port value="55463"/>
    </traci_server>

</configuration>
-->

<tripinfos xmlns:xsi="http://www.w3.org/2001/XMLSchema-instance" xsi:noNamespaceSchemaLocation="http://sumo.dlr.de/xsd/tripinfo_file.xsd">
    <tripinfo id="flow_route_83_duration_20250327_2020.0" depart="0.00" departLane="423956929_0" departPos="101.16" departSpeed="0.00" departDelay="0.00" arrival="17.00" arrivalLane="186407685_0" arrivalPos="8.05" arrivalSpeed="6.86" duration="17.00" routeLength="101.45" waitingTime="0.00" waitingCount="0" stopTime="0.00" timeLoss="10.18" rerouteNo="0" devices="tripinfo_flow_route_83_duration_20250327_2020.0" vType="car" speedFactor="1.01" vaporized=""/>
    <tripinfo id="flow_route_62_duration_20250327_2020.0" depart="0.00" departLane="409155823_0" departPos="65.43" departSpeed="0.00" departDelay="0.00" arrival="23.00" arrivalLane="1091883842_0" arrivalPos="165.47" arrivalSpeed="16.29" duration="23.00" routeLength="205.45" waitingTime="0.00" waitingCount="0" stopTime="0.00" timeLoss="10.50" rerouteNo="0" devices="tripinfo_flow_route_62_duration_20250327_2020.0" vType="car" speedFactor="1.06" vaporized=""/>
    <tripinfo id="flow_route_82_duration_20250327_2020.0" depart="0.00" departLane="423956929_0" departPos="45.92" departSpeed="0.00" departDelay="0.00" arrival="24.00" arrivalLane="186407684#0_0" arrivalPos="62.79" arrivalSpeed="15.18" duration="24.00" routeLength="219.95" waitingTime="0.00" waitingCount="0" stopTime="0.00" timeLoss="8.99" rerouteNo="0" devices="tripinfo_flow_route_82_duration_20250327_2020.0" vType="car" speedFactor="0.94" vaporized=""/>
    <tripinfo id="flow_route_62_duration_20250327_2020.1" depart="10.00" departLane="409155823_0" departPos="4.07" departSpeed="0.00" departDelay="0.00" arrival="32.00" arrivalLane="1091883842_1" arrivalPos="59.79" arrivalSpeed="14.08" duration="22.00" routeLength="161.14" waitingTime="0.00" waitingCount="0" stopTime="0.00" timeLoss="10.27" rerouteNo="0" devices="tripinfo_flow_route_62_duration_20250327_2020.1" vType="car" speedFactor="0.86" vaporized=""/>
    <tripinfo id="flow_route_83_duration_20250327_2020.1" depart="15.00" departLane="423956929_0" departPos="43.92" departSpeed="0.00" departDelay="0.00" arrival="45.00" arrivalLane="186407685_0" arrivalPos="96.38" arrivalSpeed="12.84" duration="30.00" routeLength="247.02" waitingTime="0.00" waitingCount="0" stopTime="0.00" timeLoss="14.49" rerouteNo="0" devices="tripinfo_flow_route_83_duration_20250327_2020.1" vType="car" speedFactor="1.12" vaporized=""/>
    <tripinfo id="flow_route_87_duration_20250327_2020.3" depart="18.00" departLane="430416184_0" departPos="221.09" departSpeed="0.00" departDelay="0.00" arrival="45.00" arrivalLane="1091883842_0" arrivalPos="6.02" arrivalSpeed="7.58" duration="27.00" routeLength="85.38" waitingTime="2.00" waitingCount="1" stopTime="0.00" timeLoss="20.63" rerouteNo="0" devices="tripinfo_flow_route_87_duration_20250327_2020.3" vType="car" speedFactor="0.99" vaporized=""/>
    <tripinfo id="flow_route_62_duration_20250327_2020.2" depart="20.00" departLane="409155823_0" departPos="60.31" departSpeed="0.00" departDelay="0.00" arrival="45.00" arrivalLane="1091883842_0" arrivalPos="177.65" arrivalSpeed="14.38" duration="25.00" routeLength="222.75" waitingTime="0.00" waitingCount="0" stopTime="0.00" timeLoss="9.66" rerouteNo="0" devices="tripinfo_flow_route_62_duration_20250327_2020.2" vType="car" speedFactor="0.88" vaporized=""/>
    <tripinfo id="flow_route_87_duration_20250327_2020.4" depart="24.00" departLane="430416184_0" departPos="278.94" departSpeed="0.00" departDelay="0.00" arrival="50.00" arrivalLane="1091883842_0" arrivalPos="76.39" arrivalSpeed="11.40" duration="26.00" routeLength="97.90" waitingTime="7.00" waitingCount="1" stopTime="0.00" timeLoss="19.09" rerouteNo="0" devices="tripinfo_flow_route_87_duration_20250327_2020.4" vType="car" speedFactor="1.16" vaporized=""/>
    <tripinfo id="flow_route_88_duration_20250327_2020.2" depart="9.00" departLane="430416184_0" departPos="253.21" departSpeed="0.00" departDelay="0.43" arrival="51.00" arrivalLane="186407684#0_1" arrivalPos="5.31" arrivalSpeed="8.43" duration="42.00" routeLength="69.73" waitingTime="18.00" waitingCount="1" stopTime="0.00" timeLoss="36.19" rerouteNo="0" devices="tripinfo_flow_route_88_duration_20250327_2020.2" vType="car" speedFactor="0.94" vaporized=""/>
    <tripinfo id="flow_route_88_duration_20250327_2020.0" depart="0.00" departLane="430416184_0" departPos="194.63" departSpeed="0.00" departDelay="0.00" arrival="52.00" arrivalLane="186407684#0_1" arrivalPos="3.84" arrivalSpeed="8.48" duration="52.00" routeLength="126.85" waitingTime="18.00" waitingCount="1" stopTime="0.00" timeLoss="42.88" rerouteNo="0" devices="tripinfo_flow_route_88_duration_20250327_2020.0" vType="car" speedFactor="0.83" vaporized=""/>
    <tripinfo id="flow_route_87_duration_20250327_2020.2" depart="12.00" departLane="430416184_0" departPos="238.38" departSpeed="0.00" departDelay="0.00" arrival="52.00" arrivalLane="1091883842_0" arrivalPos="117.64" arrivalSpeed="13.68" duration="40.00" routeLength="179.71" waitingTime="9.00" waitingCount="1" stopTime="0.00" timeLoss="27.94" rerouteNo="0" devices="tripinfo_flow_route_87_duration_20250327_2020.2" vType="car" speedFactor="1.03" vaporized=""/>
    <tripinfo id="flow_route_86_duration_20250327_2020.0" depart="0.00" departLane="430416184_0" departPos="215.48" departSpeed="0.00" departDelay="0.00" arrival="54.00" arrivalLane="186407685_1" arrivalPos="87.02" arrivalSpeed="14.09" duration="54.00" routeLength="195.42" waitingTime="20.00" waitingCount="1" stopTime="0.00" timeLoss="41.64" rerouteNo="0" devices="tripinfo_flow_route_86_duration_20250327_2020.0" vType="car" speedFactor="1.08" vaporized=""/>
    <tripinfo id="flow_route_87_duration_20250327_2020.1" depart="6.00" departLane="430416184_0" departPos="76.50" departSpeed="0.00" departDelay="0.00" arrival="57.00" arrivalLane="1091883842_0" arrivalPos="105.16" arrivalSpeed="14.54" duration="51.00" routeLength="329.12" waitingTime="0.00" waitingCount="0" stopTime="0.00" timeLoss="28.73" rerouteNo="0" devices="tripinfo_flow_route_87_duration_20250327_2020.1" vType="car" speedFactor="0.89" vaporized=""/>
    <tripinfo id="flow_route_88_duration_20250327_2020.1" depart="5.00" departLane="430416184_0" departPos="130.75" departSpeed="0.00" departDelay="0.72" arrival="58.00" arrivalLane="186407684#0_1" arrivalPos="41.08" arrivalSpeed="12.15" duration="53.00" routeLength="227.97" waitingTime="14.00" waitingCount="1" stopTime="0.00" timeLoss="38.02" rerouteNo="0" devices="tripinfo_flow_route_88_duration_20250327_2020.1" vType="car" speedFactor="1.05" vaporized=""/>
    <tripinfo id="flow_route_87_duration_20250327_2020.0" depart="0.00" departLane="430416184_0" departPos="1.75" departSpeed="0.00" departDelay="0.00" arrival="59.00" arrivalLane="1091883842_0" arrivalPos="109.56" arrivalSpeed="15.12" duration="59.00" routeLength="408.27" waitingTime="0.00" waitingCount="0" stopTime="0.00" timeLoss="32.98" rerouteNo="0" devices="tripinfo_flow_route_87_duration_20250327_2020.0" vType="car" speedFactor="1.03" vaporized=""/>
    <tripinfo id="flow_route_86_duration_20250327_2020.1" depart="12.00" departLane="430416184_0" departPos="271.56" departSpeed="0.00" departDelay="2.00" arrival="59.00" arrivalLane="186407685_1" arrivalPos="121.05" arrivalSpeed="15.92" duration="47.00" routeLength="173.37" waitingTime="19.00" waitingCount="1" stopTime="0.00" timeLoss="36.14" rerouteNo="0" devices="tripinfo_flow_route_86_duration_20250327_2020.1" vType="car" speedFactor="1.09" vaporized=""/>
    <tripinfo id="flow_route_86_duration_20250327_2020.2" depart="20.00" departLane="430416184_0" departPos="95.81" departSpeed="0.00" departDelay="0.00" arrival="61.00" arrivalLane="186407685_1" arrivalPos="5.28" arrivalSpeed="11.62" duration="41.00" routeLength="233.35" waitingTime="0.00" waitingCount="0" stopTime="0.00" timeLoss="26.36" rerouteNo="0" devices="tripinfo_flow_route_86_duration_20250327_2020.2" vType="car" speedFactor="0.94" vaporized=""/>
    <tripinfo id="flow_route_88_duration_20250327_2020.3" depart="13.00" departLane="430416184_0" departPos="114.69" departSpeed="0.00" departDelay="0.15" arrival="62.00" arrivalLane="186407684#0_1" arrivalPos="78.23" arrivalSpeed="13.85" duration="49.00" routeLength="281.17" waitingTime="8.00" waitingCount="1" stopTime="0.00" timeLoss="31.28" rerouteNo="0" devices="tripinfo_flow_route_88_duration_20250327_2020.3" vType="car" speedFactor="1.05" vaporized=""/>
    <tripinfo id="flow_route_86_duration_20250327_2020.3" depart="30.00" departLane="430416184_0" departPos="172.42" departSpeed="0.00" departDelay="0.00" arrival="62.00" arrivalLane="186407685_1" arrivalPos="42.74" arrivalSpeed="13.59" duration="32.00" routeLength="194.20" waitingTime="0.00" waitingCount="0" stopTime="0.00" timeLoss="19.75" rerouteNo="0" devices="tripinfo_flow_route_86_duration_20250327_2020.3" vType="car" speedFactor="0.89" vaporized=""/>
    <tripinfo id="flow_route_87_duration_20250327_2020.5" depart="32.00" departLane="430416184_0" departPos="142.45" departSpeed="0.00" departDelay="2.00" arrival="68.00" arrivalLane="1091883842_0" arrivalPos="150.74" arrivalSpeed="13.58" duration="36.00" routeLength="308.74" waitingTime="0.00" waitingCount="0" stopTime="0.00" timeLoss="14.55" rerouteNo="0" devices="tripinfo_flow_route_87_duration_20250327_2020.5" vType="car" speedFactor="0.83" vaporized=""/>
    <tripinfo id="flow_route_88_duration_20250327_2020.11" depart="48.00" departLane="430416184_0" departPos="238.74" departSpeed="0.00" departDelay="0.87" arrival="68.00" arrivalLane="186407684#0_1" arrivalPos="34.35" arrivalSpeed="12.54" duration="20.00" routeLength="113.24" waitingTime="1.00" waitingCount="1" stopTime="0.00" timeLoss="12.49" rerouteNo="0" devices="tripinfo_flow_route_88_duration_20250327_2020.11" vType="car" speedFactor="1.02" vaporized=""/>
    <tripinfo id="flow_route_88_duration_20250327_2020.4" depart="18.00" departLane="430416184_0" departPos="46.01" departSpeed="0.00" departDelay="0.86" arrival="70.00" arrivalLane="186407684#0_1" arrivalPos="26.59" arrivalSpeed="11.91" duration="52.00" routeLength="298.21" waitingTime="0.00" waitingCount="0" stopTime="0.00" timeLoss="32.64" rerouteNo="0" devices="tripinfo_flow_route_88_duration_20250327_2020.4" vType="car" speedFactor="0.93" vaporized=""/>
    <tripinfo id="flow_route_88_duration_20250327_2020.5" depart="22.00" departLane="430416184_0" departPos="36.26" departSpeed="0.00" departDelay="0.58" arrival="71.00" arrivalLane="186407684#0_1" arrivalPos="11.40" arrivalSpeed="10.76" duration="49.00" routeLength="292.77" waitingTime="0.00" waitingCount="0" stopTime="0.00" timeLoss="29.74" rerouteNo="0" devices="tripinfo_flow_route_88_duration_20250327_2020.5" vType="car" speedFactor="0.94" vaporized=""/>
    <tripinfo id="flow_route_88_duration_20250327_2020.6" depart="26.00" departLane="430416184_0" departPos="64.53" departSpeed="0.00" departDelay="0.29" arrival="74.00" arrivalLane="186407684#0_1" arrivalPos="23.27" arrivalSpeed="11.97" duration="48.00" routeLength="276.38" waitingTime="0.00" waitingCount="0" stopTime="0.00" timeLoss="29.86" rerouteNo="0" devices="tripinfo_flow_route_88_duration_20250327_2020.6" vType="car" speedFactor="1.02" vaporized=""/>
    <tripinfo id="flow_route_88_duration_20250327_2020.7" depart="33.00" departLane="430416184_0" departPos="48.70" departSpeed="0.00" departDelay="3.01" arrival="74.00" arrivalLane="186407684#0_1" arrivalPos="7.85" arrivalSpeed="9.04" duration="41.00" routeLength="276.78" waitingTime="0.00" waitingCount="0" stopTime="0.00" timeLoss="22.50" rerouteNo="0" devices="tripinfo_flow_route_88_duration_20250327_2020.7" vType="car" speedFactor="0.87" vaporized=""/>
    <tripinfo id="flow_route_62_duration_20250327_2020.3" depart="30.00" departLane="409155823_0" departPos="58.82" departSpeed="0.00" departDelay="0.00" arrival="86.00" arrivalLane="1091883842_0" arrivalPos="31.19" arrivalSpeed="8.59" duration="56.00" routeLength="77.79" waitingTime="34.00" waitingCount="1" stopTime="0.00" timeLoss="50.83" rerouteNo="0" devices="tripinfo_flow_route_62_duration_20250327_2020.3" vType="car" speedFactor="1.01" vaporized=""/>
    <tripinfo id="flow_route_87_duration_20250327_2020.8" depart="48.00" departLane="430416184_0" departPos="148.30" departSpeed="0.00" departDelay="0.00" arrival="87.00" arrivalLane="1091883842_0" arrivalPos="114.23" arrivalSpeed="13.73" duration="39.00" routeLength="266.38" waitingTime="0.00" waitingCount="0" stopTime="0.00" timeLoss="21.46" rerouteNo="0" devices="tripinfo_flow_route_87_duration_20250327_2020.8" vType="car" speedFactor="0.99" vaporized=""/>
    <tripinfo id="flow_route_87_duration_20250327_2020.9" depart="54.00" departLane="430416184_0" departPos="180.81" departSpeed="0.00" departDelay="0.00" arrival="89.00" arrivalLane="1091883842_0" arrivalPos="162.60" arrivalSpeed="14.87" duration="35.00" routeLength="282.24" waitingTime="0.00" waitingCount="0" stopTime="0.00" timeLoss="14.98" rerouteNo="0" devices="tripinfo_flow_route_87_duration_20250327_2020.9" vType="car" speedFactor="0.90" vaporized=""/>
    <tripinfo id="flow_route_83_duration_20250327_2020.3" depart="46.00" departLane="423956929_0" departPos="78.52" departSpeed="0.00" departDelay="1.00" arrival="90.00" arrivalLane="186407685_0" arrivalPos="62.30" arrivalSpeed="10.67" duration="44.00" routeLength="178.34" waitingTime="11.00" waitingCount="1" stopTime="0.00" timeLoss="32.40" rerouteNo="0" devices="tripinfo_flow_route_83_duration_20250327_2020.3" vType="car" speedFactor="1.17" vaporized=""/>
    <tripinfo id="flow_route_83_duration_20250327_2020.2" depart="32.00" departLane="423956929_0" departPos="57.10" departSpeed="0.00" departDelay="2.00" arrival="91.00" arrivalLane="186407685_0" arrivalPos="101.21" arrivalSpeed="13.51" duration="59.00" routeLength="238.67" waitingTime="22.00" waitingCount="1" stopTime="0.00" timeLoss="43.30" rerouteNo="0" devices="tripinfo_flow_route_83_duration_20250327_2020.2" vType="car" speedFactor="0.97" vaporized=""/>
    <tripinfo id="flow_route_62_duration_20250327_2020.5" depart="50.00" departLane="409155823_0" departPos="32.15" departSpeed="0.00" departDelay="0.00" arrival="94.00" arrivalLane="1091883842_0" arrivalPos="108.64" arrivalSpeed="13.37" duration="44.00" routeLength="181.91" waitingTime="13.00" waitingCount="1" stopTime="0.00" timeLoss="32.79" rerouteNo="0" devices="tripinfo_flow_route_62_duration_20250327_2020.5" vType="car" speedFactor="0.97" vaporized=""/>
    <tripinfo id="flow_route_62_duration_20250327_2020.4" depart="41.00" departLane="409155823_0" departPos="29.84" departSpeed="0.00" departDelay="1.00" arrival="97.00" arrivalLane="1091883842_0" arrivalPos="172.36" arrivalSpeed="15.49" duration="56.00" routeLength="247.93" waitingTime="18.00" waitingCount="1" stopTime="0.00" timeLoss="39.06" rerouteNo="0" devices="tripinfo_flow_route_62_duration_20250327_2020.4" vType="car" speedFactor="0.93" vaporized=""/>
    <tripinfo id="flow_route_87_duration_20250327_2020.7" depart="45.00" departLane="430416184_0" departPos="83.88" departSpeed="0.00" departDelay="3.00" arrival="102.00" arrivalLane="1091883842_0" arrivalPos="105.32" arrivalSpeed="13.01" duration="57.00" routeLength="321.90" waitingTime="5.00" waitingCount="1" stopTime="0.00" timeLoss="36.38" rerouteNo="0" devices="tripinfo_flow_route_87_duration_20250327_2020.7" vType="car" speedFactor="1.15" vaporized=""/>
    <tripinfo id="flow_route_87_duration_20250327_2020.6" depart="36.00" departLane="430416184_0" departPos="8.05" departSpeed="0.00" departDelay="0.00" arrival="104.00" arrivalLane="1091883842_0" arrivalPos="119.16" arrivalSpeed="14.04" duration="68.00" routeLength="411.56" waitingTime="4.00" waitingCount="1" stopTime="0.00" timeLoss="41.76" rerouteNo="0" devices="tripinfo_flow_route_87_duration_20250327_2020.6" vType="car" speedFactor="0.95" vaporized=""/>
    <tripinfo id="flow_route_88_duration_20250327_2020.9" depart="41.00" departLane="430416184_0" departPos="90.77" departSpeed="0.00" departDelay="2.44" arrival="123.00" arrivalLane="186407684#0_1" arrivalPos="24.57" arrivalSpeed="8.50" duration="82.00" routeLength="251.44" waitingTime="37.00" waitingCount="1" stopTime="0.00" timeLoss="66.14" rerouteNo="0" devices="tripinfo_flow_route_88_duration_20250327_2020.9" vType="car" speedFactor="1.13" vaporized=""/>
    <tripinfo id="flow_route_88_duration_20250327_2020.10" depart="45.00" departLane="430416184_0" departPos="61.41" departSpeed="0.00" departDelay="2.15" arrival="126.00" arrivalLane="186407684#0_1" arrivalPos="15.92" arrivalSpeed="9.51" duration="81.00" routeLength="272.14" waitingTime="35.00" waitingCount="1" stopTime="0.00" timeLoss="63.62" rerouteNo="0" devices="tripinfo_flow_route_88_duration_20250327_2020.10" vType="car" speedFactor="1.01" vaporized=""/>
    <tripinfo id="flow_route_86_duration_20250327_2020.4" depart="43.00" departLane="430416184_0" departPos="13.55" departSpeed="0.00" departDelay="3.00" arrival="129.00" arrivalLane="186407685_1" arrivalPos="11.86" arrivalSpeed="10.82" duration="86.00" routeLength="322.19" waitingTime="35.00" waitingCount="1" stopTime="0.00" timeLoss="66.03" rerouteNo="0" devices="tripinfo_flow_route_86_duration_20250327_2020.4" vType="car" speedFactor="1.18" vaporized=""/>
    <tripinfo id="flow_route_88_duration_20250327_2020.8" depart="36.00" departLane="430416184_0" departPos="43.91" departSpeed="0.00" departDelay="1.72" arrival="130.00" arrivalLane="186407684#0_1" arrivalPos="84.16" arrivalSpeed="13.45" duration="94.00" routeLength="357.88" waitingTime="37.00" waitingCount="1" stopTime="0.00" timeLoss="70.75" rerouteNo="0" devices="tripinfo_flow_route_88_duration_20250327_2020.8" vType="car" speedFactor="0.92" vaporized=""/>
    <tripinfo id="flow_route_88_duration_20250327_2020.12" depart="52.00" departLane="430416184_0" departPos="30.28" departSpeed="0.00" departDelay="0.58" arrival="134.00" arrivalLane="186407684#0_1" arrivalPos="26.68" arrivalSpeed="11.38" duration="82.00" routeLength="314.03" waitingTime="33.00" waitingCount="1" stopTime="0.00" timeLoss="62.03" rerouteNo="0" devices="tripinfo_flow_route_88_duration_20250327_2020.12" vType="car" speedFactor="1.10" vaporized=""/>
    <tripinfo id="flow_route_88_duration_20250327_2020.13" depart="57.00" departLane="430416184_0" departPos="122.94" departSpeed="0.00" departDelay="1.30" arrival="136.00" arrivalLane="186407684#0_1" arrivalPos="81.51" arrivalSpeed="14.21" duration="79.00" routeLength="276.21" waitingTime="34.00" waitingCount="1" stopTime="0.00" timeLoss="61.39" rerouteNo="0" devices="tripinfo_flow_route_88_duration_20250327_2020.13" vType="car" speedFactor="1.03" vaporized=""/>
    <tripinfo id="flow_route_86_duration_20250327_2020.5" depart="51.00" departLane="430416184_0" departPos="6.90" departSpeed="0.00" departDelay="1.00" arrival="140.00" arrivalLane="186407685_1" arrivalPos="73.87" arrivalSpeed="15.78" duration="89.00" routeLength="390.85" waitingTime="33.00" waitingCount="1" stopTime="0.00" timeLoss="65.17" rerouteNo="0" devices="tripinfo_flow_route_86_duration_20250327_2020.5" vType="car" speedFactor="1.18" vaporized=""/>
</tripinfos>
