<?xml version="1.0" encoding="UTF-8"?>

<!-- generated on 2025-05-06 21:08:05 by Eclipse SUMO sumo Version 1.20.0
<configuration xmlns:xsi="http://www.w3.org/2001/XMLSchema-instance" xsi:noNamespaceSchemaLocation="http://sumo.dlr.de/xsd/sumoConfiguration.xsd">

    <input>
        <net-file value="osm.net.xml"/>
        <route-files value="xml/route_static_cluster_11648561419_11648561420_2271142975_4854142869_2.rou.xml"/>
    </input>

    <output>
        <tripinfo-output value="xml/tripinfo_static_cluster_11648561419_11648561420_2271142975_4854142869_2.xml"/>
    </output>

    <traci_server>
        <remote-port value="38337"/>
    </traci_server>

</configuration>
-->

<tripinfos xmlns:xsi="http://www.w3.org/2001/XMLSchema-instance" xsi:noNamespaceSchemaLocation="http://sumo.dlr.de/xsd/tripinfo_file.xsd">
    <tripinfo id="flow_route_118_duration_20250327_1950.1" depart="2.00" departLane="134194079#0_0" departPos="277.04" departSpeed="0.00" departDelay="0.54" arrival="24.00" arrivalLane="1328664744#0_0" arrivalPos="140.54" arrivalSpeed="16.56" duration="22.00" routeLength="184.65" waitingTime="0.00" waitingCount="0" stopTime="0.00" timeLoss="10.69" rerouteNo="0" devices="tripinfo_flow_route_118_duration_20250327_1950.1" vType="car" speedFactor="1.03" vaporized=""/>
    <tripinfo id="flow_route_97_duration_20250327_1950.0" depart="0.00" departLane="1328664748#0_0" departPos="149.74" departSpeed="0.00" departDelay="0.00" arrival="27.00" arrivalLane="135474719#0_0" arrivalPos="137.46" arrivalSpeed="15.89" duration="27.00" routeLength="222.45" waitingTime="0.00" waitingCount="0" stopTime="0.00" timeLoss="12.50" rerouteNo="0" devices="tripinfo_flow_route_97_duration_20250327_1950.0" vType="car" speedFactor="1.06" vaporized=""/>
    <tripinfo id="flow_route_98_duration_20250327_1950.0" depart="0.00" departLane="1328664748#0_0" departPos="103.72" departSpeed="0.00" departDelay="0.00" arrival="27.00" arrivalLane="177211987#1_0" arrivalPos="104.29" arrivalSpeed="15.20" duration="27.00" routeLength="249.04" waitingTime="0.00" waitingCount="0" stopTime="0.00" timeLoss="10.96" rerouteNo="0" devices="tripinfo_flow_route_98_duration_20250327_1950.0" vType="car" speedFactor="0.94" vaporized=""/>
    <tripinfo id="flow_route_118_duration_20250327_1950.8" depart="15.00" departLane="134194079#0_0" departPos="272.87" departSpeed="0.00" departDelay="3.30" arrival="31.00" arrivalLane="1328664744#0_0" arrivalPos="40.08" arrivalSpeed="11.66" duration="16.00" routeLength="88.36" waitingTime="0.00" waitingCount="0" stopTime="0.00" timeLoss="10.05" rerouteNo="0" devices="tripinfo_flow_route_118_duration_20250327_1950.8" vType="car" speedFactor="0.97" vaporized=""/>
    <tripinfo id="flow_route_119_duration_20250327_1950.0" depart="0.00" departLane="134194079#0_0" departPos="151.34" departSpeed="0.00" departDelay="0.00" arrival="32.00" arrivalLane="1253188486#8_0" arrivalPos="1.48" arrivalSpeed="8.97" duration="32.00" routeLength="161.10" waitingTime="0.00" waitingCount="0" stopTime="0.00" timeLoss="21.23" rerouteNo="0" devices="tripinfo_flow_route_119_duration_20250327_1950.0" vType="car" speedFactor="1.09" vaporized=""/>
    <tripinfo id="flow_route_118_duration_20250327_1950.5" depart="8.00" departLane="134194079#0_0" departPos="275.86" departSpeed="0.00" departDelay="0.69" arrival="32.00" arrivalLane="1328664744#0_0" arrivalPos="148.22" arrivalSpeed="13.50" duration="24.00" routeLength="193.51" waitingTime="0.00" waitingCount="0" stopTime="0.00" timeLoss="9.48" rerouteNo="0" devices="tripinfo_flow_route_118_duration_20250327_1950.5" vType="car" speedFactor="0.83" vaporized=""/>
    <tripinfo id="flow_route_119_duration_20250327_1950.4" depart="18.00" departLane="134194079#0_0" departPos="210.12" departSpeed="0.00" departDelay="6.57" arrival="36.00" arrivalLane="1253188486#8_0" arrivalPos="11.49" arrivalSpeed="10.42" duration="18.00" routeLength="112.32" waitingTime="0.00" waitingCount="0" stopTime="0.00" timeLoss="10.12" rerouteNo="0" devices="tripinfo_flow_route_119_duration_20250327_1950.4" vType="car" speedFactor="1.18" vaporized=""/>
    <tripinfo id="flow_route_118_duration_20250327_1950.2" depart="3.00" departLane="134194079#0_0" departPos="69.84" departSpeed="0.00" departDelay="0.07" arrival="41.00" arrivalLane="1328664744#0_1" arrivalPos="196.92" arrivalSpeed="16.49" duration="38.00" routeLength="448.23" waitingTime="0.00" waitingCount="0" stopTime="0.00" timeLoss="10.02" rerouteNo="0" devices="tripinfo_flow_route_118_duration_20250327_1950.2" vType="car" speedFactor="1.12" vaporized=""/>
    <tripinfo id="flow_route_118_duration_20250327_1950.4" depart="7.00" departLane="134194079#0_0" departPos="49.55" departSpeed="0.00" departDelay="1.15" arrival="41.00" arrivalLane="1328664744#0_1" arrivalPos="91.26" arrivalSpeed="16.15" duration="34.00" routeLength="362.86" waitingTime="0.00" waitingCount="0" stopTime="0.00" timeLoss="12.11" rerouteNo="0" devices="tripinfo_flow_route_118_duration_20250327_1950.4" vType="car" speedFactor="1.16" vaporized=""/>
    <tripinfo id="flow_route_97_duration_20250327_1950.1" depart="12.00" departLane="1328664748#0_0" departPos="64.53" departSpeed="0.00" departDelay="0.00" arrival="41.00" arrivalLane="135474719#0_0" arrivalPos="52.30" arrivalSpeed="11.31" duration="29.00" routeLength="222.49" waitingTime="0.00" waitingCount="0" stopTime="0.00" timeLoss="14.60" rerouteNo="0" devices="tripinfo_flow_route_97_duration_20250327_1950.1" vType="car" speedFactor="1.01" vaporized=""/>
    <tripinfo id="flow_route_118_duration_20250327_1950.0" depart="0.00" departLane="134194079#0_0" departPos="13.63" departSpeed="0.00" departDelay="0.00" arrival="44.00" arrivalLane="1328664744#0_1" arrivalPos="165.30" arrivalSpeed="13.86" duration="44.00" routeLength="472.83" waitingTime="0.00" waitingCount="0" stopTime="0.00" timeLoss="10.16" rerouteNo="0" devices="tripinfo_flow_route_118_duration_20250327_1950.0" vType="car" speedFactor="0.86" vaporized=""/>
    <tripinfo id="flow_route_118_duration_20250327_1950.7" depart="15.00" departLane="134194079#0_0" departPos="258.30" departSpeed="0.00" departDelay="4.76" arrival="44.00" arrivalLane="1328664744#0_0" arrivalPos="205.90" arrivalSpeed="16.43" duration="29.00" routeLength="268.75" waitingTime="0.00" waitingCount="0" stopTime="0.00" timeLoss="11.86" rerouteNo="0" devices="tripinfo_flow_route_118_duration_20250327_1950.7" vType="car" speedFactor="1.15" vaporized=""/>
    <tripinfo id="flow_route_119_duration_20250327_1950.2" depart="8.00" departLane="134194079#0_0" departPos="211.10" departSpeed="0.00" departDelay="2.29" arrival="47.00" arrivalLane="1253188486#8_0" arrivalPos="236.64" arrivalSpeed="16.48" duration="39.00" routeLength="336.49" waitingTime="0.00" waitingCount="0" stopTime="0.00" timeLoss="17.57" rerouteNo="0" devices="tripinfo_flow_route_119_duration_20250327_1950.2" vType="car" speedFactor="1.02" vaporized=""/>
    <tripinfo id="flow_route_99_duration_20250327_1950.0" depart="1.00" departLane="1328664748#0_0" departPos="68.32" departSpeed="0.00" departDelay="1.00" arrival="48.00" arrivalLane="1253188486#8_2" arrivalPos="11.16" arrivalSpeed="7.01" duration="47.00" routeLength="200.71" waitingTime="14.00" waitingCount="1" stopTime="0.00" timeLoss="34.29" rerouteNo="0" devices="tripinfo_flow_route_99_duration_20250327_1950.0" vType="car" speedFactor="1.01" vaporized=""/>
    <tripinfo id="flow_route_118_duration_20250327_1950.3" depart="5.00" departLane="134194079#0_0" departPos="36.99" departSpeed="0.00" departDelay="0.61" arrival="48.00" arrivalLane="1328664744#0_1" arrivalPos="151.98" arrivalSpeed="15.14" duration="43.00" routeLength="436.14" waitingTime="0.00" waitingCount="0" stopTime="0.00" timeLoss="14.52" rerouteNo="0" devices="tripinfo_flow_route_118_duration_20250327_1950.3" vType="car" speedFactor="0.94" vaporized=""/>
    <tripinfo id="flow_route_119_duration_20250327_1950.3" depart="14.00" departLane="134194079#0_0" departPos="172.59" departSpeed="0.00" departDelay="5.43" arrival="48.00" arrivalLane="1253188486#8_0" arrivalPos="120.85" arrivalSpeed="15.19" duration="34.00" routeLength="259.21" waitingTime="0.00" waitingCount="0" stopTime="0.00" timeLoss="16.17" rerouteNo="0" devices="tripinfo_flow_route_119_duration_20250327_1950.3" vType="car" speedFactor="0.95" vaporized=""/>
    <tripinfo id="flow_route_99_duration_20250327_1950.1" depart="12.00" departLane="1328664748#0_0" departPos="47.25" departSpeed="0.00" departDelay="0.00" arrival="52.00" arrivalLane="1253188486#8_2" arrivalPos="21.10" arrivalSpeed="8.71" duration="40.00" routeLength="231.72" waitingTime="4.00" waitingCount="1" stopTime="0.00" timeLoss="25.50" rerouteNo="0" devices="tripinfo_flow_route_99_duration_20250327_1950.1" vType="car" speedFactor="1.17" vaporized=""/>
    <tripinfo id="flow_route_97_duration_20250327_1950.2" depart="24.00" departLane="1328664748#0_0" departPos="75.39" departSpeed="0.00" departDelay="0.00" arrival="52.00" arrivalLane="135474719#0_0" arrivalPos="74.47" arrivalSpeed="13.29" duration="28.00" routeLength="233.80" waitingTime="0.00" waitingCount="0" stopTime="0.00" timeLoss="13.22" rerouteNo="0" devices="tripinfo_flow_route_97_duration_20250327_1950.2" vType="car" speedFactor="1.12" vaporized=""/>
    <tripinfo id="flow_route_99_duration_20250327_1950.3" depart="36.00" departLane="1328664748#0_0" departPos="203.72" departSpeed="0.00" departDelay="0.00" arrival="60.00" arrivalLane="1253188486#8_2" arrivalPos="96.77" arrivalSpeed="14.05" duration="24.00" routeLength="150.92" waitingTime="0.00" waitingCount="0" stopTime="0.00" timeLoss="14.22" rerouteNo="0" devices="tripinfo_flow_route_99_duration_20250327_1950.3" vType="car" speedFactor="1.02" vaporized=""/>
    <tripinfo id="flow_route_110_duration_20250327_1950.0" depart="0.00" departLane="1254519225#0.109_0" departPos="3.76" departSpeed="0.00" departDelay="0.00" arrival="63.00" arrivalLane="177211987#1_2" arrivalPos="6.38" arrivalSpeed="7.52" duration="63.00" routeLength="190.24" waitingTime="32.00" waitingCount="1" stopTime="0.00" timeLoss="48.27" rerouteNo="0" devices="tripinfo_flow_route_110_duration_20250327_1950.0" vType="car" speedFactor="0.83" vaporized=""/>
    <tripinfo id="flow_route_108_duration_20250327_1950.0" depart="0.00" departLane="1254519225#0.109_0" departPos="35.33" departSpeed="0.00" departDelay="0.00" arrival="71.00" arrivalLane="135474719#0_0" arrivalPos="75.82" arrivalSpeed="14.39" duration="71.00" routeLength="240.24" waitingTime="32.00" waitingCount="1" stopTime="0.00" timeLoss="55.70" rerouteNo="0" devices="tripinfo_flow_route_108_duration_20250327_1950.0" vType="car" speedFactor="1.08" vaporized=""/>
    <tripinfo id="flow_route_109_duration_20250327_1950.3" depart="11.00" departLane="1254519225#0.109_0" departPos="61.91" departSpeed="0.00" departDelay="0.41" arrival="71.00" arrivalLane="1328664744#0_0" arrivalPos="61.86" arrivalSpeed="12.39" duration="60.00" routeLength="174.18" waitingTime="25.00" waitingCount="1" stopTime="0.00" timeLoss="47.66" rerouteNo="0" devices="tripinfo_flow_route_109_duration_20250327_1950.3" vType="car" speedFactor="0.93" vaporized=""/>
    <tripinfo id="flow_route_108_duration_20250327_1950.2" depart="20.00" departLane="1254519225#0.109_0" departPos="21.50" departSpeed="0.00" departDelay="0.00" arrival="71.00" arrivalLane="135474719#0_2" arrivalPos="6.57" arrivalSpeed="10.53" duration="51.00" routeLength="184.82" waitingTime="17.00" waitingCount="1" stopTime="0.00" timeLoss="39.56" rerouteNo="0" devices="tripinfo_flow_route_108_duration_20250327_1950.2" vType="car" speedFactor="1.17" vaporized=""/>
    <tripinfo id="flow_route_99_duration_20250327_1950.2" depart="24.00" departLane="1328664748#0_0" departPos="0.19" departSpeed="0.00" departDelay="0.00" arrival="71.00" arrivalLane="1253188486#8_2" arrivalPos="221.63" arrivalSpeed="16.44" duration="47.00" routeLength="479.31" waitingTime="0.00" waitingCount="0" stopTime="0.00" timeLoss="16.99" rerouteNo="0" devices="tripinfo_flow_route_99_duration_20250327_1950.2" vType="car" speedFactor="1.02" vaporized=""/>
    <tripinfo id="flow_route_109_duration_20250327_1950.0" depart="0.00" departLane="1254519225#0.109_0" departPos="16.50" departSpeed="0.00" departDelay="0.00" arrival="74.00" arrivalLane="1328664744#0_0" arrivalPos="130.88" arrivalSpeed="15.78" duration="74.00" routeLength="288.61" waitingTime="31.00" waitingCount="1" stopTime="0.00" timeLoss="55.60" rerouteNo="0" devices="tripinfo_flow_route_109_duration_20250327_1950.0" vType="car" speedFactor="1.03" vaporized=""/>
    <tripinfo id="flow_route_108_duration_20250327_1950.3" depart="31.00" departLane="1254519225#0.109_0" departPos="29.06" departSpeed="0.00" departDelay="1.00" arrival="74.00" arrivalLane="135474719#0_2" arrivalPos="17.69" arrivalSpeed="11.37" duration="43.00" routeLength="188.38" waitingTime="9.00" waitingCount="1" stopTime="0.00" timeLoss="31.07" rerouteNo="0" devices="tripinfo_flow_route_108_duration_20250327_1950.3" vType="car" speedFactor="0.98" vaporized=""/>
    <tripinfo id="flow_route_110_duration_20250327_1950.1" depart="12.00" departLane="1254519225#0.109_0" departPos="42.34" departSpeed="0.00" departDelay="0.00" arrival="75.00" arrivalLane="177211987#1_2" arrivalPos="83.01" arrivalSpeed="14.18" duration="63.00" routeLength="228.29" waitingTime="23.00" waitingCount="2" stopTime="0.00" timeLoss="47.70" rerouteNo="0" devices="tripinfo_flow_route_110_duration_20250327_1950.1" vType="car" speedFactor="0.99" vaporized=""/>
    <tripinfo id="flow_route_109_duration_20250327_1950.1" depart="4.00" departLane="1254519225#0.109_0" departPos="9.93" departSpeed="0.00" departDelay="0.47" arrival="77.00" arrivalLane="1328664744#0_0" arrivalPos="66.95" arrivalSpeed="12.39" duration="73.00" routeLength="231.25" waitingTime="24.00" waitingCount="1" stopTime="0.00" timeLoss="56.55" rerouteNo="0" devices="tripinfo_flow_route_109_duration_20250327_1950.1" vType="car" speedFactor="0.93" vaporized=""/>
    <tripinfo id="flow_route_110_duration_20250327_1950.2" depart="24.00" departLane="1254519225#0.109_0" departPos="41.09" departSpeed="0.00" departDelay="0.00" arrival="77.00" arrivalLane="177211987#1_2" arrivalPos="24.52" arrivalSpeed="10.17" duration="53.00" routeLength="171.05" waitingTime="10.00" waitingCount="3" stopTime="0.00" timeLoss="41.77" rerouteNo="0" devices="tripinfo_flow_route_110_duration_20250327_1950.2" vType="car" speedFactor="0.99" vaporized=""/>
    <tripinfo id="flow_route_108_duration_20250327_1950.1" depart="10.00" departLane="1254519225#0.109_0" departPos="1.74" departSpeed="0.00" departDelay="0.00" arrival="78.00" arrivalLane="135474719#0_2" arrivalPos="147.32" arrivalSpeed="16.46" duration="68.00" routeLength="345.34" waitingTime="24.00" waitingCount="1" stopTime="0.00" timeLoss="46.71" rerouteNo="0" devices="tripinfo_flow_route_108_duration_20250327_1950.1" vType="car" speedFactor="1.13" vaporized=""/>
    <tripinfo id="flow_route_109_duration_20250327_1950.2" depart="8.00" departLane="1254519225#0.109_0" departPos="37.20" departSpeed="0.00" departDelay="0.94" arrival="81.00" arrivalLane="1328664744#0_0" arrivalPos="180.08" arrivalSpeed="15.90" duration="73.00" routeLength="317.11" waitingTime="25.00" waitingCount="1" stopTime="0.00" timeLoss="52.44" rerouteNo="0" devices="tripinfo_flow_route_109_duration_20250327_1950.2" vType="car" speedFactor="0.97" vaporized=""/>
    <tripinfo id="flow_route_109_duration_20250327_1950.6" depart="22.00" departLane="1254519225#0.109_0" departPos="40.00" departSpeed="0.00" departDelay="0.83" arrival="84.00" arrivalLane="1328664744#0_0" arrivalPos="84.18" arrivalSpeed="14.33" duration="62.00" routeLength="218.41" waitingTime="19.00" waitingCount="3" stopTime="0.00" timeLoss="45.78" rerouteNo="0" devices="tripinfo_flow_route_109_duration_20250327_1950.6" vType="car" speedFactor="0.90" vaporized=""/>
    <tripinfo id="flow_route_109_duration_20250327_1950.8" depart="29.00" departLane="1254519225#0.109_0" departPos="49.26" departSpeed="0.00" departDelay="0.77" arrival="85.00" arrivalLane="1328664744#0_0" arrivalPos="71.75" arrivalSpeed="13.94" duration="56.00" routeLength="196.72" waitingTime="16.00" waitingCount="1" stopTime="0.00" timeLoss="42.68" rerouteNo="0" devices="tripinfo_flow_route_109_duration_20250327_1950.8" vType="car" speedFactor="1.06" vaporized=""/>
    <tripinfo id="flow_route_110_duration_20250327_1950.3" depart="37.00" departLane="1254519225#0.109_0" departPos="18.86" departSpeed="0.00" departDelay="1.00" arrival="86.00" arrivalLane="177211987#1_2" arrivalPos="77.33" arrivalSpeed="14.15" duration="49.00" routeLength="246.09" waitingTime="2.00" waitingCount="2" stopTime="0.00" timeLoss="31.20" rerouteNo="0" devices="tripinfo_flow_route_110_duration_20250327_1950.3" vType="car" speedFactor="0.89" vaporized=""/>
    <tripinfo id="flow_route_109_duration_20250327_1950.4" depart="15.00" departLane="1254519225#0.109_0" departPos="44.34" departSpeed="0.00" departDelay="0.88" arrival="88.00" arrivalLane="1328664744#0_0" arrivalPos="216.71" arrivalSpeed="16.15" duration="73.00" routeLength="346.59" waitingTime="26.00" waitingCount="3" stopTime="0.00" timeLoss="51.12" rerouteNo="0" devices="tripinfo_flow_route_109_duration_20250327_1950.4" vType="car" speedFactor="1.03" vaporized=""/>
    <tripinfo id="flow_route_108_duration_20250327_1950.4" depart="41.00" departLane="1254519225#0.109_0" departPos="24.02" departSpeed="0.00" departDelay="1.00" arrival="88.00" arrivalLane="135474719#0_2" arrivalPos="141.67" arrivalSpeed="15.85" duration="47.00" routeLength="317.41" waitingTime="4.00" waitingCount="1" stopTime="0.00" timeLoss="26.74" rerouteNo="0" devices="tripinfo_flow_route_108_duration_20250327_1950.4" vType="car" speedFactor="0.96" vaporized=""/>
    <tripinfo id="flow_route_110_duration_20250327_1950.4" depart="48.00" departLane="1254519225#0.109_0" departPos="37.70" departSpeed="0.00" departDelay="0.00" arrival="88.00" arrivalLane="177211987#1_2" arrivalPos="83.49" arrivalSpeed="15.13" duration="40.00" routeLength="233.41" waitingTime="3.00" waitingCount="1" stopTime="0.00" timeLoss="24.98" rerouteNo="0" devices="tripinfo_flow_route_110_duration_20250327_1950.4" vType="car" speedFactor="1.10" vaporized=""/>
    <tripinfo id="flow_route_109_duration_20250327_1950.7" depart="25.00" departLane="1254519225#0.109_0" departPos="51.12" departSpeed="0.00" departDelay="0.30" arrival="90.00" arrivalLane="1328664744#0_0" arrivalPos="203.80" arrivalSpeed="14.71" duration="65.00" routeLength="326.91" waitingTime="18.00" waitingCount="2" stopTime="0.00" timeLoss="41.66" rerouteNo="0" devices="tripinfo_flow_route_109_duration_20250327_1950.7" vType="car" speedFactor="0.88" vaporized=""/>
    <tripinfo id="flow_route_114_duration_20250327_1950.0" depart="0.00" departLane="1253188486#4_0" departPos="49.31" departSpeed="0.00" departDelay="0.00" arrival="94.00" arrivalLane="177211987#1_0" arrivalPos="36.23" arrivalSpeed="9.62" duration="94.00" routeLength="153.37" waitingTime="63.00" waitingCount="1" stopTime="0.00" timeLoss="82.99" rerouteNo="0" devices="tripinfo_flow_route_114_duration_20250327_1950.0" vType="car" speedFactor="0.89" vaporized=""/>
    <tripinfo id="flow_route_113_duration_20250327_1950.2" depart="5.00" departLane="1253188486#4_0" departPos="19.82" departSpeed="0.00" departDelay="0.56" arrival="96.00" arrivalLane="1253188486#8_2" arrivalPos="7.32" arrivalSpeed="9.62" duration="91.00" routeLength="186.13" waitingTime="58.00" waitingCount="1" stopTime="0.00" timeLoss="79.72" rerouteNo="0" devices="tripinfo_flow_route_113_duration_20250327_1950.2" vType="car" speedFactor="0.94" vaporized=""/>
    <tripinfo id="flow_route_113_duration_20250327_1950.3" depart="7.00" departLane="1253188486#4_0" departPos="36.97" departSpeed="0.00" departDelay="0.33" arrival="98.00" arrivalLane="1253188486#8_1" arrivalPos="54.74" arrivalSpeed="12.95" duration="91.00" routeLength="216.40" waitingTime="54.00" waitingCount="1" stopTime="0.00" timeLoss="77.66" rerouteNo="0" devices="tripinfo_flow_route_113_duration_20250327_1950.3" vType="car" speedFactor="1.01" vaporized=""/>
    <tripinfo id="flow_route_115_duration_20250327_1950.0" depart="0.00" departLane="1253188486#4_0" departPos="104.70" departSpeed="0.00" departDelay="0.00" arrival="99.00" arrivalLane="1328664744#0_2" arrivalPos="120.97" arrivalSpeed="15.18" duration="99.00" routeLength="201.67" waitingTime="68.00" waitingCount="1" stopTime="0.00" timeLoss="85.32" rerouteNo="0" devices="tripinfo_flow_route_115_duration_20250327_1950.0" vType="car" speedFactor="0.94" vaporized=""/>
    <tripinfo id="flow_route_113_duration_20250327_1950.5" depart="15.00" departLane="1253188486#4_0" departPos="95.76" departSpeed="0.00" departDelay="3.89" arrival="101.00" arrivalLane="1253188486#8_0" arrivalPos="50.83" arrivalSpeed="12.72" duration="86.00" routeLength="153.70" waitingTime="56.00" waitingCount="1" stopTime="0.00" timeLoss="76.01" rerouteNo="0" devices="tripinfo_flow_route_113_duration_20250327_1950.5" vType="car" speedFactor="1.02" vaporized=""/>
    <tripinfo id="flow_route_115_duration_20250327_1950.2" depart="10.00" departLane="1253188486#4_0" departPos="28.08" departSpeed="0.00" departDelay="2.94" arrival="102.00" arrivalLane="1328664744#0_2" arrivalPos="19.75" arrivalSpeed="10.36" duration="92.00" routeLength="177.07" waitingTime="56.00" waitingCount="1" stopTime="0.00" timeLoss="79.56" rerouteNo="0" devices="tripinfo_flow_route_115_duration_20250327_1950.2" vType="car" speedFactor="0.89" vaporized=""/>
    <tripinfo id="flow_route_115_duration_20250327_1950.4" depart="17.00" departLane="1253188486#4_0" departPos="52.51" departSpeed="0.00" departDelay="2.88" arrival="104.00" arrivalLane="1328664744#0_2" arrivalPos="5.29" arrivalSpeed="10.38" duration="87.00" routeLength="138.18" waitingTime="55.00" waitingCount="1" stopTime="0.00" timeLoss="77.33" rerouteNo="0" devices="tripinfo_flow_route_115_duration_20250327_1950.4" vType="car" speedFactor="0.96" vaporized=""/>
    <tripinfo id="flow_route_113_duration_20250327_1950.0" depart="0.00" departLane="1253188486#4_0" departPos="134.10" departSpeed="0.00" departDelay="0.00" arrival="105.00" arrivalLane="1253188486#8_0" arrivalPos="182.35" arrivalSpeed="16.49" duration="105.00" routeLength="246.88" waitingTime="73.00" waitingCount="1" stopTime="0.00" timeLoss="89.51" rerouteNo="0" devices="tripinfo_flow_route_113_duration_20250327_1950.0" vType="car" speedFactor="1.05" vaporized=""/>
    <tripinfo id="flow_route_113_duration_20250327_1950.1" depart="3.00" departLane="1253188486#4_0" departPos="83.37" departSpeed="0.00" departDelay="0.78" arrival="105.00" arrivalLane="1253188486#8_1" arrivalPos="202.24" arrivalSpeed="16.45" duration="102.00" routeLength="317.50" waitingTime="63.00" waitingCount="1" stopTime="0.00" timeLoss="82.39" rerouteNo="0" devices="tripinfo_flow_route_113_duration_20250327_1950.1" vType="car" speedFactor="1.05" vaporized=""/>
    <tripinfo id="flow_route_115_duration_20250327_1950.1" depart="5.00" departLane="1253188486#4_0" departPos="50.74" departSpeed="0.00" departDelay="1.47" arrival="105.00" arrivalLane="1328664744#0_2" arrivalPos="169.60" arrivalSpeed="14.60" duration="100.00" routeLength="304.26" waitingTime="58.00" waitingCount="1" stopTime="0.00" timeLoss="79.08" rerouteNo="0" devices="tripinfo_flow_route_115_duration_20250327_1950.1" vType="car" speedFactor="0.88" vaporized=""/>
    <tripinfo id="flow_route_113_duration_20250327_1950.11" depart="29.00" departLane="1253188486#4_0" departPos="24.14" departSpeed="0.00" departDelay="4.56" arrival="105.00" arrivalLane="1253188486#8_1" arrivalPos="2.86" arrivalSpeed="11.53" duration="76.00" routeLength="177.35" waitingTime="39.00" waitingCount="1" stopTime="0.00" timeLoss="64.82" rerouteNo="0" devices="tripinfo_flow_route_113_duration_20250327_1950.11" vType="car" speedFactor="0.91" vaporized=""/>
    <tripinfo id="flow_route_115_duration_20250327_1950.3" depart="13.00" departLane="1253188486#4_0" departPos="94.21" departSpeed="0.00" departDelay="2.41" arrival="106.00" arrivalLane="1328664744#0_2" arrivalPos="121.30" arrivalSpeed="16.37" duration="93.00" routeLength="212.49" waitingTime="58.00" waitingCount="1" stopTime="0.00" timeLoss="79.29" rerouteNo="0" devices="tripinfo_flow_route_115_duration_20250327_1950.3" vType="car" speedFactor="1.18" vaporized=""/>
    <tripinfo id="flow_route_113_duration_20250327_1950.7" depart="19.00" departLane="1253188486#4_0" departPos="56.92" departSpeed="0.00" departDelay="3.45" arrival="107.00" arrivalLane="1253188486#8_1" arrivalPos="111.82" arrivalSpeed="16.52" duration="88.00" routeLength="253.53" waitingTime="48.00" waitingCount="1" stopTime="0.00" timeLoss="71.92" rerouteNo="0" devices="tripinfo_flow_route_113_duration_20250327_1950.7" vType="car" speedFactor="1.04" vaporized=""/>
    <tripinfo id="flow_route_113_duration_20250327_1950.16" depart="42.00" departLane="1253188486#4_0" departPos="48.87" departSpeed="0.00" departDelay="6.45" arrival="107.00" arrivalLane="1253188486#8_0" arrivalPos="2.86" arrivalSpeed="11.72" duration="65.00" routeLength="152.62" waitingTime="34.00" waitingCount="1" stopTime="0.00" timeLoss="55.80" rerouteNo="0" devices="tripinfo_flow_route_113_duration_20250327_1950.16" vType="car" speedFactor="0.83" vaporized=""/>
    <tripinfo id="flow_route_113_duration_20250327_1950.9" depart="21.00" departLane="1253188486#4_0" departPos="42.47" departSpeed="0.00" departDelay="1.00" arrival="108.00" arrivalLane="1253188486#8_1" arrivalPos="95.85" arrivalSpeed="15.83" duration="87.00" routeLength="252.01" waitingTime="47.00" waitingCount="1" stopTime="0.00" timeLoss="71.13" rerouteNo="0" devices="tripinfo_flow_route_113_duration_20250327_1950.9" vType="car" speedFactor="1.02" vaporized=""/>
    <tripinfo id="flow_route_113_duration_20250327_1950.14" depart="34.00" departLane="1253188486#4_0" departPos="65.90" departSpeed="0.00" departDelay="2.89" arrival="108.00" arrivalLane="1253188486#8_0" arrivalPos="58.49" arrivalSpeed="14.06" duration="74.00" routeLength="191.22" waitingTime="41.00" waitingCount="1" stopTime="0.00" timeLoss="62.26" rerouteNo="0" devices="tripinfo_flow_route_113_duration_20250327_1950.14" vType="car" speedFactor="1.00" vaporized=""/>
    <tripinfo id="flow_route_113_duration_20250327_1950.6" depart="17.00" departLane="1253188486#4_0" departPos="62.96" departSpeed="0.00" departDelay="3.67" arrival="109.00" arrivalLane="1253188486#8_0" arrivalPos="125.82" arrivalSpeed="16.21" duration="92.00" routeLength="261.48" waitingTime="55.00" waitingCount="1" stopTime="0.00" timeLoss="75.91" rerouteNo="0" devices="tripinfo_flow_route_113_duration_20250327_1950.6" vType="car" speedFactor="1.10" vaporized=""/>
    <tripinfo id="flow_route_113_duration_20250327_1950.20" depart="55.00" departLane="1253188486#4_0" departPos="79.72" departSpeed="0.00" departDelay="10.56" arrival="109.00" arrivalLane="1253188486#8_0" arrivalPos="6.53" arrivalSpeed="12.46" duration="54.00" routeLength="125.44" waitingTime="31.00" waitingCount="1" stopTime="0.00" timeLoss="46.37" rerouteNo="0" devices="tripinfo_flow_route_113_duration_20250327_1950.20" vType="car" speedFactor="1.10" vaporized=""/>
    <tripinfo id="flow_route_113_duration_20250327_1950.8" depart="20.00" departLane="1253188486#4_0" departPos="23.52" departSpeed="0.00" departDelay="2.22" arrival="111.00" arrivalLane="1253188486#8_1" arrivalPos="114.41" arrivalSpeed="16.17" duration="91.00" routeLength="289.52" waitingTime="47.00" waitingCount="1" stopTime="0.00" timeLoss="72.67" rerouteNo="0" devices="tripinfo_flow_route_113_duration_20250327_1950.8" vType="car" speedFactor="0.90" vaporized=""/>
    <tripinfo id="flow_route_113_duration_20250327_1950.4" depart="11.00" departLane="1253188486#4_0" departPos="10.26" departSpeed="0.00" departDelay="2.11" arrival="112.00" arrivalLane="1253188486#8_1" arrivalPos="235.51" arrivalSpeed="16.13" duration="101.00" routeLength="423.88" waitingTime="50.00" waitingCount="1" stopTime="0.00" timeLoss="74.62" rerouteNo="0" devices="tripinfo_flow_route_113_duration_20250327_1950.4" vType="car" speedFactor="0.87" vaporized=""/>
    <tripinfo id="flow_route_115_duration_20250327_1950.5" depart="21.00" departLane="1253188486#4_0" departPos="90.23" departSpeed="0.00" departDelay="3.36" arrival="113.00" arrivalLane="1328664744#0_2" arrivalPos="146.82" arrivalSpeed="14.30" duration="92.00" routeLength="242.00" waitingTime="56.00" waitingCount="1" stopTime="0.00" timeLoss="74.36" rerouteNo="0" devices="tripinfo_flow_route_115_duration_20250327_1950.5" vType="car" speedFactor="0.88" vaporized=""/>
    <tripinfo id="flow_route_115_duration_20250327_1950.7" depart="29.00" departLane="1253188486#4_0" departPos="88.77" departSpeed="0.00" departDelay="4.30" arrival="113.00" arrivalLane="1328664744#0_2" arrivalPos="107.91" arrivalSpeed="14.97" duration="84.00" routeLength="204.54" waitingTime="54.00" waitingCount="1" stopTime="0.00" timeLoss="70.07" rerouteNo="0" devices="tripinfo_flow_route_115_duration_20250327_1950.7" vType="car" speedFactor="0.91" vaporized=""/>
    <tripinfo id="flow_route_113_duration_20250327_1950.22" depart="60.00" departLane="1253188486#4_0" departPos="18.27" departSpeed="0.00" departDelay="11.12" arrival="113.00" arrivalLane="1253188486#8_0" arrivalPos="4.03" arrivalSpeed="13.93" duration="53.00" routeLength="184.38" waitingTime="20.00" waitingCount="1" stopTime="0.00" timeLoss="41.31" rerouteNo="0" devices="tripinfo_flow_route_113_duration_20250327_1950.22" vType="car" speedFactor="1.03" vaporized=""/>