<?xml version="1.0" encoding="UTF-8"?>

<!-- generated on 2025-05-06 21:08:54 by Eclipse SUMO sumo Version 1.20.0
<configuration xmlns:xsi="http://www.w3.org/2001/XMLSchema-instance" xsi:noNamespaceSchemaLocation="http://sumo.dlr.de/xsd/sumoConfiguration.xsd">

    <input>
        <net-file value="osm.net.xml"/>
        <route-files value="xml/route_rl_cluster3828547534_cluster_1507433914_2954854770_2954854771_2954854772_#9more_7.rou.xml"/>
    </input>

    <output>
        <tripinfo-output value="xml/tripinfo_rl_cluster3828547534_cluster_1507433914_2954854770_2954854771_2954854772_#9more_7.xml"/>
    </output>

    <traci_server>
        <remote-port value="39369"/>
    </traci_server>

</configuration>
-->

<tripinfos xmlns:xsi="http://www.w3.org/2001/XMLSchema-instance" xsi:noNamespaceSchemaLocation="http://sumo.dlr.de/xsd/tripinfo_file.xsd">
    <tripinfo id="flow_route_6_duration_20250327_2050.0" depart="0.00" departLane="1252820505#0_0" departPos="39.30" departSpeed="0.00" departDelay="0.00" arrival="18.00" arrivalLane="379698350#0_0" arrivalPos="9.38" arrivalSpeed="14.11" duration="18.00" routeLength="129.45" waitingTime="0.00" waitingCount="0" stopTime="0.00" timeLoss="9.86" rerouteNo="0" devices="tripinfo_flow_route_6_duration_20250327_2050.0" vType="car" speedFactor="1.01" vaporized=""/>
    <tripinfo id="flow_route_11_duration_20250327_2050.0" depart="0.00" departLane="1252820505#0_0" departPos="76.11" departSpeed="0.00" departDelay="0.00" arrival="21.00" arrivalLane="137406408#0_2" arrivalPos="68.60" arrivalSpeed="14.85" duration="21.00" routeLength="154.08" waitingTime="0.00" waitingCount="0" stopTime="0.00" timeLoss="11.20" rerouteNo="0" devices="tripinfo_flow_route_11_duration_20250327_2050.0" vType="car" speedFactor="1.05" vaporized=""/>
    <tripinfo id="flow_route_22_duration_20250327_2050.0" depart="0.00" departLane="137415945#0_0" departPos="8.70" departSpeed="0.00" departDelay="0.00" arrival="25.00" arrivalLane="1342054204_0" arrivalPos="47.56" arrivalSpeed="15.23" duration="25.00" routeLength="232.19" waitingTime="0.00" waitingCount="0" stopTime="0.00" timeLoss="9.36" rerouteNo="0" devices="tripinfo_flow_route_22_duration_20250327_2050.0" vType="car" speedFactor="0.94" vaporized=""/>
    <tripinfo id="flow_route_24_duration_20250327_2050.0" depart="5.00" departLane="137415945#0_0" departPos="0.41" departSpeed="0.00" departDelay="5.00" arrival="26.00" arrivalLane="137406408#0_0" arrivalPos="0.56" arrivalSpeed="15.45" duration="21.00" routeLength="169.14" waitingTime="0.00" waitingCount="0" stopTime="0.00" timeLoss="10.79" rerouteNo="0" devices="tripinfo_flow_route_24_duration_20250327_2050.0" vType="car" speedFactor="1.09" vaporized=""/>
    <tripinfo id="flow_route_10_duration_20250327_2050.0" depart="0.00" departLane="1252820505#0_0" departPos="5.24" departSpeed="0.00" departDelay="0.00" arrival="28.00" arrivalLane="1235147073.116_0" arrivalPos="0.67" arrivalSpeed="13.80" duration="28.00" routeLength="263.17" waitingTime="0.00" waitingCount="0" stopTime="0.00" timeLoss="8.22" rerouteNo="0" devices="tripinfo_flow_route_10_duration_20250327_2050.0" vType="car" speedFactor="0.83" vaporized=""/>
    <tripinfo id="flow_route_8_duration_20250327_2050.1" depart="5.00" departLane="133000078#0_0" departPos="157.85" departSpeed="0.00" departDelay="0.00" arrival="36.00" arrivalLane="1235147073.116_0" arrivalPos="6.07" arrivalSpeed="15.59" duration="31.00" routeLength="208.40" waitingTime="0.00" waitingCount="0" stopTime="0.00" timeLoss="17.12" rerouteNo="0" devices="tripinfo_flow_route_8_duration_20250327_2050.1" vType="car" speedFactor="1.05" vaporized=""/>
    <tripinfo id="flow_route_22_duration_20250327_2050.1" depart="13.00" departLane="137415945#0_0" departPos="7.38" departSpeed="0.00" departDelay="8.72" arrival="37.00" arrivalLane="1342054204_0" arrivalPos="20.65" arrivalSpeed="16.27" duration="24.00" routeLength="206.59" waitingTime="0.00" waitingCount="0" stopTime="0.00" timeLoss="10.68" rerouteNo="0" devices="tripinfo_flow_route_22_duration_20250327_2050.1" vType="car" speedFactor="0.99" vaporized=""/>
    <tripinfo id="flow_route_8_duration_20250327_2050.0" depart="0.00" departLane="133000078#0_0" departPos="54.62" departSpeed="0.00" departDelay="0.00" arrival="38.00" arrivalLane="1235147073.116_0" arrivalPos="9.03" arrivalSpeed="15.89" duration="38.00" routeLength="314.60" waitingTime="0.00" waitingCount="0" stopTime="0.00" timeLoss="17.79" rerouteNo="0" devices="tripinfo_flow_route_8_duration_20250327_2050.0" vType="car" speedFactor="1.03" vaporized=""/>
    <tripinfo id="flow_route_6_duration_20250327_2050.1" depart="15.00" departLane="1252820505#0_0" departPos="80.67" departSpeed="0.00" departDelay="0.00" arrival="39.00" arrivalLane="379698350#0_0" arrivalPos="132.33" arrivalSpeed="14.23" duration="24.00" routeLength="211.03" waitingTime="0.00" waitingCount="0" stopTime="0.00" timeLoss="9.22" rerouteNo="0" devices="tripinfo_flow_route_6_duration_20250327_2050.1" vType="car" speedFactor="0.87" vaporized=""/>
    <tripinfo id="flow_route_11_duration_20250327_2050.1" depart="12.00" departLane="1252820505#0_0" departPos="26.75" departSpeed="0.00" departDelay="2.00" arrival="47.00" arrivalLane="137406408#0_2" arrivalPos="15.50" arrivalSpeed="8.77" duration="35.00" routeLength="150.33" waitingTime="5.00" waitingCount="1" stopTime="0.00" timeLoss="25.67" rerouteNo="0" devices="tripinfo_flow_route_11_duration_20250327_2050.1" vType="car" speedFactor="1.16" vaporized=""/>
    <tripinfo id="flow_route_8_duration_20250327_2050.3" depart="16.00" departLane="133000078#0_0" departPos="64.81" departSpeed="0.00" departDelay="1.00" arrival="48.00" arrivalLane="1235147073.116_0" arrivalPos="0.43" arrivalSpeed="15.73" duration="32.00" routeLength="295.80" waitingTime="0.00" waitingCount="0" stopTime="0.00" timeLoss="11.90" rerouteNo="0" devices="tripinfo_flow_route_8_duration_20250327_2050.3" vType="car" speedFactor="0.95" vaporized=""/>
    <tripinfo id="flow_route_11_duration_20250327_2050.2" depart="20.00" departLane="1252820505#0_0" departPos="31.74" departSpeed="0.00" departDelay="0.00" arrival="51.00" arrivalLane="137406408#0_2" arrivalPos="35.97" arrivalSpeed="11.25" duration="31.00" routeLength="165.81" waitingTime="0.00" waitingCount="0" stopTime="0.00" timeLoss="20.54" rerouteNo="0" devices="tripinfo_flow_route_11_duration_20250327_2050.2" vType="car" speedFactor="1.17" vaporized=""/>
    <tripinfo id="flow_route_11_duration_20250327_2050.3" depart="30.00" departLane="1252820505#0_0" departPos="51.20" departSpeed="0.00" departDelay="0.00" arrival="53.00" arrivalLane="137406408#0_2" arrivalPos="36.06" arrivalSpeed="11.26" duration="23.00" routeLength="146.43" waitingTime="0.00" waitingCount="0" stopTime="0.00" timeLoss="12.10" rerouteNo="0" devices="tripinfo_flow_route_11_duration_20250327_2050.3" vType="car" speedFactor="0.88" vaporized=""/>
    <tripinfo id="flow_route_8_duration_20250327_2050.2" depart="10.00" departLane="133000078#0_0" departPos="18.38" departSpeed="0.00" departDelay="0.00" arrival="54.00" arrivalLane="1235147073.116_0" arrivalPos="3.42" arrivalSpeed="15.59" duration="44.00" routeLength="345.21" waitingTime="0.00" waitingCount="0" stopTime="0.00" timeLoss="20.45" rerouteNo="0" devices="tripinfo_flow_route_8_duration_20250327_2050.2" vType="car" speedFactor="0.94" vaporized=""/>
    <tripinfo id="flow_route_10_duration_20250327_2050.1" depart="30.00" departLane="1252820505#0_0" departPos="37.45" departSpeed="0.00" departDelay="0.00" arrival="55.00" arrivalLane="1235147073.116_0" arrivalPos="0.65" arrivalSpeed="14.60" duration="25.00" routeLength="230.94" waitingTime="0.00" waitingCount="0" stopTime="0.00" timeLoss="9.57" rerouteNo="0" devices="tripinfo_flow_route_10_duration_20250327_2050.1" vType="car" speedFactor="0.90" vaporized=""/>
    <tripinfo id="flow_route_6_duration_20250327_2050.2" depart="30.00" departLane="1252820505#0_0" departPos="29.95" departSpeed="0.00" departDelay="0.00" arrival="61.00" arrivalLane="379698350#0_0" arrivalPos="181.90" arrivalSpeed="16.58" duration="31.00" routeLength="311.32" waitingTime="1.00" waitingCount="1" stopTime="0.00" timeLoss="12.10" rerouteNo="0" devices="tripinfo_flow_route_6_duration_20250327_2050.2" vType="car" speedFactor="1.04" vaporized=""/>
    <tripinfo id="flow_route_8_duration_20250327_2050.8" depart="41.00" departLane="133000078#0_0" departPos="174.20" departSpeed="0.00" departDelay="1.00" arrival="63.00" arrivalLane="1235147073.116_0" arrivalPos="1.75" arrivalSpeed="16.44" duration="22.00" routeLength="187.73" waitingTime="0.00" waitingCount="0" stopTime="0.00" timeLoss="9.19" rerouteNo="0" devices="tripinfo_flow_route_8_duration_20250327_2050.8" vType="car" speedFactor="1.08" vaporized=""/>
    <tripinfo id="flow_route_6_duration_20250327_2050.3" depart="45.00" departLane="1252820505#0_0" departPos="19.80" departSpeed="0.00" departDelay="0.00" arrival="66.00" arrivalLane="379698350#0_0" arrivalPos="26.71" arrivalSpeed="15.18" duration="21.00" routeLength="166.28" waitingTime="0.00" waitingCount="0" stopTime="0.00" timeLoss="10.10" rerouteNo="0" devices="tripinfo_flow_route_6_duration_20250327_2050.3" vType="car" speedFactor="0.91" vaporized=""/>
    <tripinfo id="flow_route_8_duration_20250327_2050.6" depart="32.00" departLane="133000078#0_0" departPos="118.38" departSpeed="0.00" departDelay="2.00" arrival="68.00" arrivalLane="1235147073.116_0" arrivalPos="7.35" arrivalSpeed="16.54" duration="36.00" routeLength="249.15" waitingTime="0.00" waitingCount="0" stopTime="0.00" timeLoss="19.51" rerouteNo="0" devices="tripinfo_flow_route_8_duration_20250327_2050.6" vType="car" speedFactor="1.00" vaporized=""/>
    <tripinfo id="flow_route_11_duration_20250327_2050.4" depart="41.00" departLane="1252820505#0_0" departPos="28.93" departSpeed="0.00" departDelay="1.00" arrival="69.00" arrivalLane="137406408#0_2" arrivalPos="78.57" arrivalSpeed="14.68" duration="28.00" routeLength="211.23" waitingTime="0.00" waitingCount="0" stopTime="0.00" timeLoss="14.82" rerouteNo="0" devices="tripinfo_flow_route_11_duration_20250327_2050.4" vType="car" speedFactor="1.12" vaporized=""/>
    <tripinfo id="flow_route_8_duration_20250327_2050.5" depart="25.00" departLane="133000078#0_0" departPos="70.80" departSpeed="0.00" departDelay="0.00" arrival="70.00" arrivalLane="1235147073.116_0" arrivalPos="13.38" arrivalSpeed="14.77" duration="45.00" routeLength="302.76" waitingTime="0.00" waitingCount="0" stopTime="0.00" timeLoss="23.77" rerouteNo="0" devices="tripinfo_flow_route_8_duration_20250327_2050.5" vType="car" speedFactor="0.90" vaporized=""/>
    <tripinfo id="flow_route_8_duration_20250327_2050.4" depart="21.00" departLane="133000078#0_0" departPos="4.92" departSpeed="0.00" departDelay="1.00" arrival="72.00" arrivalLane="1235147073.116_0" arrivalPos="9.42" arrivalSpeed="16.18" duration="51.00" routeLength="364.67" waitingTime="0.00" waitingCount="0" stopTime="0.00" timeLoss="28.19" rerouteNo="0" devices="tripinfo_flow_route_8_duration_20250327_2050.4" vType="car" speedFactor="1.01" vaporized=""/>
    <tripinfo id="flow_route_8_duration_20250327_2050.7" depart="36.00" departLane="133000078#0_0" departPos="69.97" departSpeed="0.00" departDelay="1.00" arrival="74.00" arrivalLane="1235147073.116_0" arrivalPos="0.22" arrivalSpeed="16.38" duration="38.00" routeLength="290.44" waitingTime="0.00" waitingCount="0" stopTime="0.00" timeLoss="18.73" rerouteNo="0" devices="tripinfo_flow_route_8_duration_20250327_2050.7" vType="car" speedFactor="1.00" vaporized=""/>
    <tripinfo id="flow_route_11_duration_20250327_2050.5" depart="50.00" departLane="1252820505#0_0" departPos="10.38" departSpeed="0.00" departDelay="0.00" arrival="75.00" arrivalLane="137406408#0_2" arrivalPos="7.81" arrivalSpeed="10.62" duration="25.00" routeLength="159.01" waitingTime="0.00" waitingCount="0" stopTime="0.00" timeLoss="14.58" rerouteNo="0" devices="tripinfo_flow_route_11_duration_20250327_2050.5" vType="car" speedFactor="0.98" vaporized=""/>
    <tripinfo id="flow_route_8_duration_20250327_2050.10" depart="50.00" departLane="133000078#0_0" departPos="137.54" departSpeed="0.00" departDelay="0.00" arrival="76.00" arrivalLane="1235147073.116_0" arrivalPos="6.17" arrivalSpeed="15.59" duration="26.00" routeLength="228.82" waitingTime="0.00" waitingCount="0" stopTime="0.00" timeLoss="9.80" rerouteNo="0" devices="tripinfo_flow_route_8_duration_20250327_2050.10" vType="car" speedFactor="0.96" vaporized=""/>
    <tripinfo id="flow_route_8_duration_20250327_2050.9" depart="46.00" departLane="133000078#0_0" departPos="51.72" departSpeed="0.00" departDelay="1.00" arrival="80.00" arrivalLane="1235147073.116_0" arrivalPos="1.76" arrivalSpeed="16.19" duration="34.00" routeLength="310.21" waitingTime="0.00" waitingCount="0" stopTime="0.00" timeLoss="14.41" rerouteNo="0" devices="tripinfo_flow_route_8_duration_20250327_2050.9" vType="car" speedFactor="1.02" vaporized=""/>
    <tripinfo id="flow_route_5_duration_20250327_2050.1" depart="9.00" departLane="291974733#0_0" departPos="24.74" departSpeed="0.00" departDelay="0.43" arrival="89.00" arrivalLane="1342054204_0" arrivalPos="10.94" arrivalSpeed="10.06" duration="80.00" routeLength="124.44" waitingTime="53.00" waitingCount="1" stopTime="0.00" timeLoss="70.21" rerouteNo="0" devices="tripinfo_flow_route_5_duration_20250327_2050.1" vType="car" speedFactor="0.88" vaporized=""/>
    <tripinfo id="flow_route_5_duration_20250327_2050.0" depart="0.00" departLane="291974733#0_0" departPos="43.68" departSpeed="0.00" departDelay="0.00" arrival="91.00" arrivalLane="1342054204_0" arrivalPos="62.15" arrivalSpeed="12.71" duration="91.00" routeLength="156.72" waitingTime="61.00" waitingCount="1" stopTime="0.00" timeLoss="79.81" rerouteNo="0" devices="tripinfo_flow_route_5_duration_20250327_2050.0" vType="car" speedFactor="0.94" vaporized=""/>
    <tripinfo id="flow_route_5_duration_20250327_2050.2" depart="18.00" departLane="291974733#0_0" departPos="19.90" departSpeed="0.00" departDelay="0.86" arrival="91.00" arrivalLane="1342054204_0" arrivalPos="15.76" arrivalSpeed="10.49" duration="73.00" routeLength="134.11" waitingTime="44.00" waitingCount="1" stopTime="0.00" timeLoss="64.50" rerouteNo="0" devices="tripinfo_flow_route_5_duration_20250327_2050.2" vType="car" speedFactor="1.18" vaporized=""/>
    <tripinfo id="flow_route_5_duration_20250327_2050.3" depart="27.00" departLane="291974733#0_0" departPos="11.65" departSpeed="0.00" departDelay="1.29" arrival="92.00" arrivalLane="1342054204_0" arrivalPos="8.86" arrivalSpeed="10.01" duration="65.00" routeLength="135.46" waitingTime="37.00" waitingCount="1" stopTime="0.00" timeLoss="55.58" rerouteNo="0" devices="tripinfo_flow_route_5_duration_20250327_2050.3" vType="car" speedFactor="0.96" vaporized=""/>
    <tripinfo id="flow_route_8_duration_20250327_2050.11" depart="55.00" departLane="133000078#0_0" departPos="47.56" departSpeed="0.00" departDelay="0.00" arrival="93.00" arrivalLane="1235147073.116_0" arrivalPos="8.09" arrivalSpeed="16.53" duration="38.00" routeLength="320.71" waitingTime="0.00" waitingCount="0" stopTime="0.00" timeLoss="17.25" rerouteNo="0" devices="tripinfo_flow_route_8_duration_20250327_2050.11" vType="car" speedFactor="1.00" vaporized=""/>
    <tripinfo id="flow_route_23_duration_20250327_2050.3" depart="23.00" departLane="137415945#0_0" departPos="11.77" departSpeed="0.00" departDelay="13.00" arrival="98.00" arrivalLane="379698350#0_2" arrivalPos="49.78" arrivalSpeed="12.24" duration="75.00" routeLength="230.36" waitingTime="34.00" waitingCount="1" stopTime="0.00" timeLoss="60.86" rerouteNo="0" devices="tripinfo_flow_route_23_duration_20250327_2050.3" vType="car" speedFactor="1.01" vaporized=""/>
    <tripinfo id="flow_route_23_duration_20250327_2050.0" depart="0.00" departLane="137415945#0_0" departPos="0.59" departSpeed="0.00" departDelay="0.00" arrival="99.00" arrivalLane="379698350#0_2" arrivalPos="153.67" arrivalSpeed="14.06" duration="99.00" routeLength="345.44" waitingTime="52.00" waitingCount="1" stopTime="0.00" timeLoss="74.18" rerouteNo="0" devices="tripinfo_flow_route_23_duration_20250327_2050.0" vType="car" speedFactor="0.86" vaporized=""/>
    <tripinfo id="flow_route_5_duration_20250327_2050.4" depart="35.00" departLane="291974733#0_0" departPos="15.70" departSpeed="0.00" departDelay="0.72" arrival="99.00" arrivalLane="1342054204_0" arrivalPos="47.91" arrivalSpeed="12.62" duration="64.00" routeLength="170.46" waitingTime="31.00" waitingCount="1" stopTime="0.00" timeLoss="53.02" rerouteNo="0" devices="tripinfo_flow_route_5_duration_20250327_2050.4" vType="car" speedFactor="1.10" vaporized=""/>
    <tripinfo id="flow_route_5_duration_20250327_2050.5" depart="43.00" departLane="291974733#0_0" departPos="34.34" departSpeed="0.00" departDelay="0.15" arrival="99.00" arrivalLane="1342054204_0" arrivalPos="28.21" arrivalSpeed="11.63" duration="56.00" routeLength="132.12" waitingTime="28.00" waitingCount="1" stopTime="0.00" timeLoss="46.46" rerouteNo="0" devices="tripinfo_flow_route_5_duration_20250327_2050.5" vType="car" speedFactor="0.94" vaporized=""/>
    <tripinfo id="flow_route_4_duration_20250327_2050.0" depart="0.00" departLane="291974733#0_0" departPos="63.06" departSpeed="0.00" departDelay="0.00" arrival="100.00" arrivalLane="379698350#0_0" arrivalPos="183.76" arrivalSpeed="16.21" duration="100.00" routeLength="311.60" waitingTime="61.00" waitingCount="1" stopTime="0.00" timeLoss="80.70" rerouteNo="0" devices="tripinfo_flow_route_4_duration_20250327_2050.0" vType="car" speedFactor="1.06" vaporized=""/>
    <tripinfo id="flow_route_5_duration_20250327_2050.6" depart="53.00" departLane="291974733#0_0" departPos="17.86" departSpeed="0.00" departDelay="1.57" arrival="100.00" arrivalLane="1342054204_0" arrivalPos="7.42" arrivalSpeed="11.36" duration="47.00" routeLength="127.81" waitingTime="18.00" waitingCount="1" stopTime="0.00" timeLoss="38.11" rerouteNo="0" devices="tripinfo_flow_route_5_duration_20250327_2050.6" vType="car" speedFactor="1.01" vaporized=""/>
    <tripinfo id="flow_route_23_duration_20250327_2050.5" depart="33.00" departLane="137415945#0_0" departPos="10.90" departSpeed="0.00" departDelay="16.34" arrival="101.00" arrivalLane="379698350#0_2" arrivalPos="17.74" arrivalSpeed="9.63" duration="68.00" routeLength="199.19" waitingTime="26.00" waitingCount="1" stopTime="0.00" timeLoss="54.62" rerouteNo="0" devices="tripinfo_flow_route_23_duration_20250327_2050.5" vType="car" speedFactor="0.93" vaporized=""/>
    <tripinfo id="flow_route_23_duration_20250327_2050.1" depart="6.00" departLane="137415945#0_0" departPos="12.18" departSpeed="0.00" departDelay="2.67" arrival="102.00" arrivalLane="379698350#0_2" arrivalPos="170.01" arrivalSpeed="16.29" duration="96.00" routeLength="350.18" waitingTime="49.00" waitingCount="1" stopTime="0.00" timeLoss="74.18" rerouteNo="0" devices="tripinfo_flow_route_23_duration_20250327_2050.1" vType="car" speedFactor="1.03" vaporized=""/>
    <tripinfo id="flow_route_23_duration_20250327_2050.2" depart="18.00" departLane="137415945#0_0" departPos="1.02" departSpeed="0.00" departDelay="11.33" arrival="103.00" arrivalLane="379698350#0_2" arrivalPos="141.29" arrivalSpeed="15.09" duration="85.00" routeLength="332.62" waitingTime="37.00" waitingCount="1" stopTime="0.00" timeLoss="62.27" rerouteNo="0" devices="tripinfo_flow_route_23_duration_20250327_2050.2" vType="car" speedFactor="0.93" vaporized=""/>
    <tripinfo id="flow_route_23_duration_20250327_2050.4" depart="30.00" departLane="137415945#0_0" departPos="1.95" departSpeed="0.00" departDelay="16.67" arrival="112.00" arrivalLane="379698350#0_2" arrivalPos="196.94" arrivalSpeed="13.55" duration="82.00" routeLength="387.33" waitingTime="29.00" waitingCount="1" stopTime="0.00" timeLoss="52.74" rerouteNo="0" devices="tripinfo_flow_route_23_duration_20250327_2050.4" vType="car" speedFactor="0.83" vaporized=""/>
    <tripinfo id="flow_route_23_duration_20250327_2050.7" depart="42.00" departLane="137415945#0_0" departPos="1.95" departSpeed="0.00" departDelay="18.67" arrival="112.00" arrivalLane="379698350#0_2" arrivalPos="87.67" arrivalSpeed="14.27" duration="70.00" routeLength="278.07" waitingTime="22.00" waitingCount="1" stopTime="0.00" timeLoss="52.69" rerouteNo="0" devices="tripinfo_flow_route_23_duration_20250327_2050.7" vType="car" speedFactor="1.18" vaporized=""/>
    <tripinfo id="flow_route_23_duration_20250327_2050.8" depart="51.00" departLane="137415945#0_0" departPos="0.09" departSpeed="0.00" departDelay="24.34" arrival="112.00" arrivalLane="379698350#0_2" arrivalPos="58.00" arrivalSpeed="13.06" duration="61.00" routeLength="250.25" waitingTime="15.00" waitingCount="1" stopTime="0.00" timeLoss="45.17" rerouteNo="0" devices="tripinfo_flow_route_23_duration_20250327_2050.8" vType="car" speedFactor="1.04" vaporized=""/>
    <tripinfo id="flow_route_23_duration_20250327_2050.6" depart="38.00" departLane="137415945#0_0" departPos="0.15" departSpeed="0.00" departDelay="18.00" arrival="114.00" arrivalLane="379698350#0_2" arrivalPos="170.26" arrivalSpeed="16.35" duration="76.00" routeLength="362.46" waitingTime="23.00" waitingCount="1" stopTime="0.00" timeLoss="53.08" rerouteNo="0" devices="tripinfo_flow_route_23_duration_20250327_2050.6" vType="car" speedFactor="1.02" vaporized=""/>
    <tripinfo id="flow_route_23_duration_20250327_2050.9" depart="58.00" departLane="137415945#0_0" departPos="2.94" departSpeed="0.00" departDelay="28.00" arrival="123.00" arrivalLane="379698350#0_2" arrivalPos="174.37" arrivalSpeed="16.49" duration="65.00" routeLength="363.78" waitingTime="9.00" waitingCount="1" stopTime="0.00" timeLoss="42.26" rerouteNo="0" devices="tripinfo_flow_route_23_duration_20250327_2050.9" vType="car" speedFactor="1.17" vaporized=""/>
    <tripinfo id="flow_route_23_duration_20250327_2050.11" depart="72.00" departLane="137415945#0_0" departPos="2.57" departSpeed="0.00" departDelay="35.34" arrival="123.00" arrivalLane="379698350#0_2" arrivalPos="135.84" arrivalSpeed="16.10" duration="51.00" routeLength="325.61" waitingTime="1.00" waitingCount="1" stopTime="0.00" timeLoss="31.19" rerouteNo="0" devices="tripinfo_flow_route_23_duration_20250327_2050.11" vType="car" speedFactor="1.02" vaporized=""/>
    <tripinfo id="flow_route_23_duration_20250327_2050.12" depart="78.00" departLane="137415945#0_0" departPos="6.06" departSpeed="0.00" departDelay="38.00" arrival="123.00" arrivalLane="379698350#0_2" arrivalPos="81.15" arrivalSpeed="14.77" duration="45.00" routeLength="267.44" waitingTime="0.00" waitingCount="0" stopTime="0.00" timeLoss="27.68" rerouteNo="0" devices="tripinfo_flow_route_23_duration_20250327_2050.12" vType="car" speedFactor="0.99" vaporized=""/>
    <tripinfo id="flow_route_23_duration_20250327_2050.10" depart="59.00" departLane="137415945#0_0" departPos="4.41" departSpeed="0.00" departDelay="25.67" arrival="124.00" arrivalLane="379698350#0_2" arrivalPos="169.34" arrivalSpeed="16.57" duration="65.00" routeLength="357.28" waitingTime="9.00" waitingCount="1" stopTime="0.00" timeLoss="42.80" rerouteNo="0" devices="tripinfo_flow_route_23_duration_20250327_2050.10" vType="car" speedFactor="1.02" vaporized=""/>
    <tripinfo id="flow_route_12_duration_20250327_2050.2" depart="10.00" departLane="133000078#0_0" departPos="147.75" departSpeed="0.00" departDelay="0.00" arrival="131.00" arrivalLane="1342054204_3" arrivalPos="49.86" arrivalSpeed="14.78" duration="121.00" routeLength="199.91" waitingTime="87.00" waitingCount="2" stopTime="0.00" timeLoss="108.73" rerouteNo="0" devices="tripinfo_flow_route_12_duration_20250327_2050.2" vType="car" speedFactor="1.02" vaporized=""/>
    <tripinfo id="flow_route_7_duration_20250327_2050.1" depart="15.00" departLane="133000078#0_0" departPos="13.83" departSpeed="0.00" departDelay="0.00" arrival="132.00" arrivalLane="137406408#0_1" arrivalPos="14.01" arrivalSpeed="12.57" duration="117.00" routeLength="304.99" waitingTime="73.00" waitingCount="2" stopTime="0.00" timeLoss="96.75" rerouteNo="0" devices="tripinfo_flow_route_7_duration_20250327_2050.1" vType="car" speedFactor="0.92" vaporized=""/>
    <tripinfo id="flow_route_7_duration_20250327_2050.0" depart="0.00" departLane="133000078#0_0" departPos="116.92" departSpeed="0.00" departDelay="0.00" arrival="133.00" arrivalLane="137406408#0_1" arrivalPos="45.36" arrivalSpeed="14.91" duration="133.00" routeLength="233.24" waitingTime="93.00" waitingCount="2" stopTime="0.00" timeLoss="118.12" rerouteNo="0" devices="tripinfo_flow_route_7_duration_20250327_2050.0" vType="car" speedFactor="1.08" vaporized=""/>
    <tripinfo id="flow_route_12_duration_20250327_2050.0" depart="0.00" departLane="133000078#0_0" departPos="66.48" departSpeed="0.00" departDelay="0.00" arrival="133.00" arrivalLane="1342054204_3" arrivalPos="21.59" arrivalSpeed="12.67" duration="133.00" routeLength="252.91" waitingTime="86.00" waitingCount="2" stopTime="0.00" timeLoss="115.18" rerouteNo="0" devices="tripinfo_flow_route_12_duration_20250327_2050.0" vType="car" speedFactor="0.89" vaporized=""/>
    <tripinfo id="flow_route_7_duration_20250327_2050.2" depart="31.00" departLane="133000078#0_0" departPos="78.35" departSpeed="0.00" departDelay="1.00" arrival="135.00" arrivalLane="137406408#0_1" arrivalPos="34.30" arrivalSpeed="14.04" duration="104.00" routeLength="260.75" waitingTime="61.00" waitingCount="1" stopTime="0.00" timeLoss="88.07" rerouteNo="0" devices="tripinfo_flow_route_7_duration_20250327_2050.2" vType="car" speedFactor="1.09" vaporized=""/>
    <tripinfo id="flow_route_12_duration_20250327_2050.1" depart="5.00" departLane="133000078#0_0" departPos="32.85" departSpeed="0.00" departDelay="0.00" arrival="137.00" arrivalLane="1342054204_3" arrivalPos="47.48" arrivalSpeed="13.97" duration="132.00" routeLength="312.43" waitingTime="84.00" waitingCount="2" stopTime="0.00" timeLoss="112.53" rerouteNo="0" devices="tripinfo_flow_route_12_duration_20250327_2050.1" vType="car" speedFactor="1.12" vaporized=""/>
    <tripinfo id="flow_route_12_duration_20250327_2050.5" depart="25.00" departLane="133000078#0_0" departPos="144.43" departSpeed="0.00" departDelay="0.00" arrival="139.00" arrivalLane="1342054204_3" arrivalPos="50.04" arrivalSpeed="14.64" duration="114.00" routeLength="203.41" waitingTime="76.00" waitingCount="1" stopTime="0.00" timeLoss="100.97" rerouteNo="0" devices="tripinfo_flow_route_12_duration_20250327_2050.5" vType="car" speedFactor="1.03" vaporized=""/>
    <tripinfo id="flow_route_12_duration_20250327_2050.4" depart="22.00" departLane="133000078#0_0" departPos="129.10" departSpeed="0.00" departDelay="2.00" arrival="140.00" arrivalLane="1342054204_3" arrivalPos="44.73" arrivalSpeed="15.16" duration="118.00" routeLength="213.44" waitingTime="75.00" waitingCount="2" stopTime="0.00" timeLoss="104.59" rerouteNo="0" devices="tripinfo_flow_route_12_duration_20250327_2050.4" vType="car" speedFactor="0.99" vaporized=""/>
    <tripinfo id="flow_route_12_duration_20250327_2050.3" depart="19.00" departLane="133000078#0_0" departPos="87.39" departSpeed="0.00" departDelay="4.00" arrival="141.00" arrivalLane="1342054204_3" arrivalPos="24.32" arrivalSpeed="13.89" duration="122.00" routeLength="234.74" waitingTime="73.00" waitingCount="1" stopTime="0.00" timeLoss="107.86" rerouteNo="0" devices="tripinfo_flow_route_12_duration_20250327_2050.3" vType="car" speedFactor="1.13" vaporized=""/>
    <tripinfo id="flow_route_7_duration_20250327_2050.3" depart="45.00" departLane="133000078#0_0" departPos="40.33" departSpeed="0.00" departDelay="0.00" arrival="141.00" arrivalLane="137406408#0_1" arrivalPos="72.87" arrivalSpeed="16.52" duration="96.00" routeLength="337.34" waitingTime="41.00" waitingCount="1" stopTime="0.00" timeLoss="74.70" rerouteNo="0" devices="tripinfo_flow_route_7_duration_20250327_2050.3" vType="car" speedFactor="1.04" vaporized=""/>
    <tripinfo id="flow_route_12_duration_20250327_2050.6" depart="32.00" departLane="133000078#0_0" departPos="21.24" departSpeed="0.00" departDelay="2.00" arrival="146.00" arrivalLane="1342054204_3" arrivalPos="58.91" arrivalSpeed="13.73" duration="114.00" routeLength="335.47" waitingTime="62.00" waitingCount="1" stopTime="0.00" timeLoss="89.46" rerouteNo="0" devices="tripinfo_flow_route_12_duration_20250327_2050.6" vType="car" speedFactor="0.85" vaporized=""/>
    <tripinfo id="flow_route_12_duration_20250327_2050.9" depart="48.00" departLane="133000078#0_0" departPos="117.40" departSpeed="0.00" departDelay="3.00" arrival="146.00" arrivalLane="1342054204_3" arrivalPos="8.52" arrivalSpeed="13.43" duration="98.00" routeLength="188.92" waitingTime="59.00" waitingCount="1" stopTime="0.00" timeLoss="85.99" rerouteNo="0" devices="tripinfo_flow_route_12_duration_20250327_2050.9" vType="car" speedFactor="1.02" vaporized=""/>
    <tripinfo id="flow_route_12_duration_20250327_2050.11" depart="55.00" departLane="133000078#0_0" departPos="112.68" departSpeed="0.00" departDelay="0.00" arrival="151.00" arrivalLane="1342054204_3" arrivalPos="1.02" arrivalSpeed="12.66" duration="96.00" routeLength="186.14" waitingTime="55.00" waitingCount="1" stopTime="0.00" timeLoss="84.74" rerouteNo="0" devices="tripinfo_flow_route_12_duration_20250327_2050.11" vType="car" speedFactor="1.02" vaporized=""/>
    <tripinfo id="flow_route_12_duration_20250327_2050.8" depart="41.00" departLane="133000078#0_0" departPos="42.85" departSpeed="0.00" departDelay="1.00" arrival="152.00" arrivalLane="1342054204_3" arrivalPos="71.47" arrivalSpeed="16.53" duration="111.00" routeLength="326.43" waitingTime="58.00" waitingCount="1" stopTime="0.00" timeLoss="90.50" rerouteNo="0" devices="tripinfo_flow_route_12_duration_20250327_2050.8" vType="car" speedFactor="1.02" vaporized=""/>