<?xml version="1.0" encoding="UTF-8"?>

<!-- generated on 2025-05-06 21:01:12 by Eclipse SUMO sumo Version 1.20.0
<configuration xmlns:xsi="http://www.w3.org/2001/XMLSchema-instance" xsi:noNamespaceSchemaLocation="http://sumo.dlr.de/xsd/sumoConfiguration.xsd">

    <input>
        <net-file value="osm.net.xml"/>
        <route-files value="xml/routes_sac2_11644940310.rou.xml"/>
    </input>

    <output>
        <tripinfo-output value="xml/tripinfo_9772.xml"/>
    </output>

    <traci_server>
        <remote-port value="56385"/>
    </traci_server>

</configuration>
-->

<tripinfos xmlns:xsi="http://www.w3.org/2001/XMLSchema-instance" xsi:noNamespaceSchemaLocation="http://sumo.dlr.de/xsd/tripinfo_file.xsd">
    <tripinfo id="flow_route_27_duration_20250327_2040.1" depart="5.00" departLane="1254771874#0_0" departPos="223.82" departSpeed="0.00" departDelay="0.00" arrival="17.00" arrivalLane="138002006#0_1" arrivalPos="5.35" arrivalSpeed="7.68" duration="12.00" routeLength="53.42" waitingTime="0.00" waitingCount="0" stopTime="0.00" timeLoss="7.23" rerouteNo="0" devices="tripinfo_flow_route_27_duration_20250327_2040.1" vType="car" speedFactor="0.89" vaporized=""/>
    <tripinfo id="flow_route_27_duration_20250327_2040.0" depart="0.00" departLane="1254771874#0_0" departPos="190.47" departSpeed="0.00" departDelay="0.00" arrival="22.00" arrivalLane="138002006#0_1" arrivalPos="4.04" arrivalSpeed="8.20" duration="22.00" routeLength="85.46" waitingTime="0.00" waitingCount="0" stopTime="0.00" timeLoss="16.01" rerouteNo="0" devices="tripinfo_flow_route_27_duration_20250327_2040.0" vType="car" speedFactor="1.01" vaporized=""/>
    <tripinfo id="flow_route_27_duration_20250327_2040.2" depart="10.00" departLane="1254771874#0_0" departPos="161.93" departSpeed="0.00" departDelay="0.00" arrival="30.00" arrivalLane="138002006#0_1" arrivalPos="27.26" arrivalSpeed="11.85" duration="20.00" routeLength="137.22" waitingTime="0.00" waitingCount="0" stopTime="0.00" timeLoss="10.82" rerouteNo="0" devices="tripinfo_flow_route_27_duration_20250327_2040.2" vType="car" speedFactor="1.09" vaporized=""/>
    <tripinfo id="flow_route_25_duration_20250327_2040.0" depart="0.00" departLane="1254771874#0_0" departPos="63.27" departSpeed="0.00" departDelay="0.00" arrival="34.00" arrivalLane="1341093415#0_0" arrivalPos="158.81" arrivalSpeed="16.47" duration="34.00" routeLength="373.33" waitingTime="0.00" waitingCount="0" stopTime="0.00" timeLoss="10.90" rerouteNo="0" devices="tripinfo_flow_route_25_duration_20250327_2040.0" vType="car" speedFactor="1.06" vaporized=""/>
    <tripinfo id="flow_route_26_duration_20250327_2040.0" depart="0.00" departLane="1254771874#0_0" departPos="139.38" departSpeed="0.00" departDelay="0.00" arrival="38.00" arrivalLane="-422986370#2_0" arrivalPos="213.43" arrivalSpeed="15.21" duration="38.00" routeLength="338.64" waitingTime="0.00" waitingCount="0" stopTime="0.00" timeLoss="15.11" rerouteNo="0" devices="tripinfo_flow_route_26_duration_20250327_2040.0" vType="car" speedFactor="0.94" vaporized=""/>
    <tripinfo id="flow_route_27_duration_20250327_2040.4" depart="21.00" departLane="1254771874#0_0" departPos="175.12" departSpeed="0.00" departDelay="1.00" arrival="39.00" arrivalLane="138002006#0_1" arrivalPos="14.12" arrivalSpeed="8.97" duration="18.00" routeLength="110.90" waitingTime="0.00" waitingCount="0" stopTime="0.00" timeLoss="10.19" rerouteNo="0" devices="tripinfo_flow_route_27_duration_20250327_2040.4" vType="car" speedFactor="0.93" vaporized=""/>
    <tripinfo id="flow_route_27_duration_20250327_2040.3" depart="16.00" departLane="1254771874#0_0" departPos="139.14" departSpeed="0.00" departDelay="1.00" arrival="47.00" arrivalLane="138002006#0_1" arrivalPos="83.36" arrivalSpeed="14.55" duration="31.00" routeLength="216.11" waitingTime="0.00" waitingCount="0" stopTime="0.00" timeLoss="16.56" rerouteNo="0" devices="tripinfo_flow_route_27_duration_20250327_2040.3" vType="car" speedFactor="1.03" vaporized=""/>
    <tripinfo id="flow_route_27_duration_20250327_2040.5" depart="25.00" departLane="1254771874#0_0" departPos="105.15" departSpeed="0.00" departDelay="0.00" arrival="49.00" arrivalLane="138002006#0_1" arrivalPos="11.13" arrivalSpeed="9.09" duration="24.00" routeLength="177.87" waitingTime="0.00" waitingCount="0" stopTime="0.00" timeLoss="11.91" rerouteNo="0" devices="tripinfo_flow_route_27_duration_20250327_2040.5" vType="car" speedFactor="0.94" vaporized=""/>
    <tripinfo id="flow_route_27_duration_20250327_2040.6" depart="30.00" departLane="1254771874#0_0" departPos="61.70" departSpeed="0.00" departDelay="0.00" arrival="58.00" arrivalLane="138002006#0_1" arrivalPos="19.81" arrivalSpeed="10.63" duration="28.00" routeLength="229.99" waitingTime="0.00" waitingCount="0" stopTime="0.00" timeLoss="13.08" rerouteNo="0" devices="tripinfo_flow_route_27_duration_20250327_2040.6" vType="car" speedFactor="1.16" vaporized=""/>
    <tripinfo id="flow_route_27_duration_20250327_2040.7" depart="35.00" departLane="1254771874#0_0" departPos="152.41" departSpeed="0.00" departDelay="0.00" arrival="59.00" arrivalLane="138002006#0_1" arrivalPos="59.31" arrivalSpeed="12.44" duration="24.00" routeLength="178.79" waitingTime="0.00" waitingCount="0" stopTime="0.00" timeLoss="12.19" rerouteNo="0" devices="tripinfo_flow_route_27_duration_20250327_2040.7" vType="car" speedFactor="0.97" vaporized=""/>
    <tripinfo id="flow_route_41_duration_20250327_2040.1" depart="9.00" departLane="1369578054_0" departPos="153.71" departSpeed="0.00" departDelay="0.43" arrival="67.00" arrivalLane="138002006#0_1" arrivalPos="4.10" arrivalSpeed="6.28" duration="58.00" routeLength="172.33" waitingTime="28.00" waitingCount="1" stopTime="0.00" timeLoss="45.69" rerouteNo="0" devices="tripinfo_flow_route_41_duration_20250327_2040.1" vType="car" speedFactor="0.86" vaporized=""/>
    <tripinfo id="flow_route_50_duration_20250327_2040.0" depart="0.00" departLane="-138002006#3_0" departPos="41.39" departSpeed="0.00" departDelay="0.00" arrival="68.00" arrivalLane="-422986370#2_0" arrivalPos="13.06" arrivalSpeed="7.56" duration="68.00" routeLength="82.72" waitingTime="46.00" waitingCount="1" stopTime="0.00" timeLoss="61.77" rerouteNo="0" devices="tripinfo_flow_route_50_duration_20250327_2040.0" vType="car" speedFactor="0.83" vaporized=""/>
    <tripinfo id="flow_route_41_duration_20250327_2040.2" depart="18.00" departLane="1369578054_0" departPos="90.42" departSpeed="0.00" departDelay="0.86" arrival="69.00" arrivalLane="138002006#0_1" arrivalPos="2.88" arrivalSpeed="7.13" duration="51.00" routeLength="234.39" waitingTime="16.00" waitingCount="1" stopTime="0.00" timeLoss="36.66" rerouteNo="0" devices="tripinfo_flow_route_41_duration_20250327_2040.2" vType="car" speedFactor="1.12" vaporized=""/>
    <tripinfo id="flow_route_41_duration_20250327_2040.0" depart="0.00" departLane="1369578054_0" departPos="201.66" departSpeed="0.00" departDelay="0.00" arrival="72.00" arrivalLane="138002006#0_0" arrivalPos="52.37" arrivalSpeed="11.41" duration="72.00" routeLength="172.64" waitingTime="40.00" waitingCount="1" stopTime="0.00" timeLoss="61.12" rerouteNo="0" devices="tripinfo_flow_route_41_duration_20250327_2040.0" vType="car" speedFactor="1.03" vaporized=""/>
    <tripinfo id="flow_route_40_duration_20250327_2040.1" depart="8.00" departLane="1369578054_0" departPos="204.84" departSpeed="0.00" departDelay="0.50" arrival="74.00" arrivalLane="1341093415#0_0" arrivalPos="57.39" arrivalSpeed="10.86" duration="66.00" routeLength="163.47" waitingTime="34.00" waitingCount="1" stopTime="0.00" timeLoss="54.50" rerouteNo="0" devices="tripinfo_flow_route_40_duration_20250327_2040.1" vType="car" speedFactor="0.94" vaporized=""/>
    <tripinfo id="flow_route_40_duration_20250327_2040.4" depart="30.00" departLane="1369578054_0" departPos="243.22" departSpeed="0.00" departDelay="0.00" arrival="75.00" arrivalLane="1341093415#0_0" arrivalPos="29.94" arrivalSpeed="9.18" duration="45.00" routeLength="97.64" waitingTime="21.00" waitingCount="1" stopTime="0.00" timeLoss="38.24" rerouteNo="0" devices="tripinfo_flow_route_40_duration_20250327_2040.4" vType="car" speedFactor="1.02" vaporized=""/>
    <tripinfo id="flow_route_41_duration_20250327_2040.5" depart="43.00" departLane="1369578054_0" departPos="83.55" departSpeed="0.00" departDelay="0.15" arrival="75.00" arrivalLane="138002006#0_1" arrivalPos="2.47" arrivalSpeed="8.78" duration="32.00" routeLength="240.85" waitingTime="0.00" waitingCount="0" stopTime="0.00" timeLoss="16.62" rerouteNo="0" devices="tripinfo_flow_route_41_duration_20250327_2040.5" vType="car" speedFactor="0.95" vaporized=""/>
    <tripinfo id="flow_route_40_duration_20250327_2040.0" depart="0.00" departLane="1369578054_0" departPos="1.81" departSpeed="0.00" departDelay="0.00" arrival="78.00" arrivalLane="1341093415#0_0" arrivalPos="87.60" arrivalSpeed="12.68" duration="78.00" routeLength="396.71" waitingTime="28.00" waitingCount="1" stopTime="0.00" timeLoss="53.38" rerouteNo="0" devices="tripinfo_flow_route_40_duration_20250327_2040.0" vType="car" speedFactor="1.08" vaporized=""/>
    <tripinfo id="flow_route_41_duration_20250327_2040.3" depart="26.00" departLane="1369578054_0" departPos="79.13" departSpeed="0.00" departDelay="0.29" arrival="79.00" arrivalLane="138002006#0_1" arrivalPos="85.62" arrivalSpeed="13.36" duration="53.00" routeLength="328.43" waitingTime="8.00" waitingCount="1" stopTime="0.00" timeLoss="31.61" rerouteNo="0" devices="tripinfo_flow_route_41_duration_20250327_2040.3" vType="car" speedFactor="0.94" vaporized=""/>
    <tripinfo id="flow_route_41_duration_20250327_2040.4" depart="39.00" departLane="1369578054_0" departPos="173.81" departSpeed="0.00" departDelay="4.72" arrival="79.00" arrivalLane="138002006#0_1" arrivalPos="63.52" arrivalSpeed="12.62" duration="40.00" routeLength="211.64" waitingTime="4.00" waitingCount="1" stopTime="0.00" timeLoss="25.35" rerouteNo="0" devices="tripinfo_flow_route_41_duration_20250327_2040.4" vType="car" speedFactor="0.89" vaporized=""/>
    <tripinfo id="flow_route_26_duration_20250327_2040.2" depart="40.00" departLane="1254771874#0_0" departPos="164.02" departSpeed="0.00" departDelay="0.00" arrival="81.00" arrivalLane="-422986370#2_0" arrivalPos="286.04" arrivalSpeed="14.22" duration="41.00" routeLength="386.63" waitingTime="0.00" waitingCount="0" stopTime="0.00" timeLoss="14.37" rerouteNo="0" devices="tripinfo_flow_route_26_duration_20250327_2040.2" vType="car" speedFactor="0.87" vaporized=""/>
    <tripinfo id="flow_route_40_duration_20250327_2040.3" depart="23.00" departLane="1369578054_0" departPos="38.77" departSpeed="0.00" departDelay="0.50" arrival="83.00" arrivalLane="1341093415#0_0" arrivalPos="59.05" arrivalSpeed="11.57" duration="60.00" routeLength="331.21" waitingTime="7.00" waitingCount="1" stopTime="0.00" timeLoss="36.70" rerouteNo="0" devices="tripinfo_flow_route_40_duration_20250327_2040.3" vType="car" speedFactor="0.88" vaporized=""/>
    <tripinfo id="flow_route_50_duration_20250327_2040.1" depart="30.00" departLane="-138002006#3_0" departPos="7.90" departSpeed="0.00" departDelay="0.00" arrival="83.00" arrivalLane="-422986370#2_0" arrivalPos="171.23" arrivalSpeed="16.18" duration="53.00" routeLength="274.36" waitingTime="14.00" waitingCount="1" stopTime="0.00" timeLoss="35.90" rerouteNo="0" devices="tripinfo_flow_route_50_duration_20250327_2040.1" vType="car" speedFactor="1.01" vaporized=""/>
    <tripinfo id="flow_route_40_duration_20250327_2040.2" depart="16.00" departLane="1369578054_0" departPos="70.93" departSpeed="0.00" departDelay="1.00" arrival="86.00" arrivalLane="1341093415#0_0" arrivalPos="146.92" arrivalSpeed="16.18" duration="70.00" routeLength="386.91" waitingTime="18.00" waitingCount="1" stopTime="0.00" timeLoss="45.94" rerouteNo="0" devices="tripinfo_flow_route_40_duration_20250327_2040.2" vType="car" speedFactor="1.05" vaporized=""/>
    <tripinfo id="flow_route_40_duration_20250327_2040.5" depart="39.00" departLane="1369578054_0" departPos="50.46" departSpeed="0.00" departDelay="1.50" arrival="86.00" arrivalLane="1341093415#0_0" arrivalPos="54.86" arrivalSpeed="10.49" duration="47.00" routeLength="315.32" waitingTime="0.00" waitingCount="0" stopTime="0.00" timeLoss="23.35" rerouteNo="0" devices="tripinfo_flow_route_40_duration_20250327_2040.5" vType="car" speedFactor="0.83" vaporized=""/>
    <tripinfo id="flow_route_51_duration_20250327_2040.0" depart="2.00" departLane="-138002006#3_0" departPos="23.48" departSpeed="0.00" departDelay="2.00" arrival="97.00" arrivalLane="1341093415#0_3" arrivalPos="132.48" arrivalSpeed="15.56" duration="95.00" routeLength="212.67" waitingTime="59.00" waitingCount="2" stopTime="0.00" timeLoss="80.62" rerouteNo="0" devices="tripinfo_flow_route_51_duration_20250327_2040.0" vType="car" speedFactor="1.05" vaporized=""/>
    <tripinfo id="flow_route_27_duration_20250327_2040.8" depart="40.00" departLane="1254771874#0_0" departPos="38.81" departSpeed="0.00" departDelay="0.00" arrival="111.00" arrivalLane="138002006#0_1" arrivalPos="16.28" arrivalSpeed="7.36" duration="71.00" routeLength="249.36" waitingTime="36.00" waitingCount="1" stopTime="0.00" timeLoss="54.50" rerouteNo="0" devices="tripinfo_flow_route_27_duration_20250327_2040.8" vType="car" speedFactor="0.92" vaporized=""/>
    <tripinfo id="flow_route_27_duration_20250327_2040.11" depart="55.00" departLane="1254771874#0_0" departPos="11.97" departSpeed="0.00" departDelay="0.00" arrival="117.00" arrivalLane="138002006#0_1" arrivalPos="16.04" arrivalSpeed="9.03" duration="62.00" routeLength="275.95" waitingTime="23.00" waitingCount="1" stopTime="0.00" timeLoss="44.81" rerouteNo="0" devices="tripinfo_flow_route_27_duration_20250327_2040.11" vType="car" speedFactor="1.17" vaporized=""/>
    <tripinfo id="flow_route_27_duration_20250327_2040.9" depart="45.00" departLane="1254771874#0_0" departPos="17.12" departSpeed="0.00" departDelay="0.00" arrival="119.00" arrivalLane="138002006#0_1" arrivalPos="48.54" arrivalSpeed="11.55" duration="74.00" routeLength="303.31" waitingTime="27.00" waitingCount="1" stopTime="0.00" timeLoss="54.52" rerouteNo="0" devices="tripinfo_flow_route_27_duration_20250327_2040.9" vType="car" speedFactor="1.13" vaporized=""/>
    <tripinfo id="flow_route_27_duration_20250327_2040.10" depart="50.00" departLane="1254771874#0_0" departPos="80.23" departSpeed="0.00" departDelay="0.00" arrival="120.00" arrivalLane="138002006#0_1" arrivalPos="88.08" arrivalSpeed="13.30" duration="70.00" routeLength="279.74" waitingTime="29.00" waitingCount="1" stopTime="0.00" timeLoss="52.12" rerouteNo="0" devices="tripinfo_flow_route_27_duration_20250327_2040.10" vType="car" speedFactor="1.18" vaporized=""/>
    <tripinfo id="flow_route_26_duration_20250327_2040.1" depart="21.00" departLane="1254771874#0_0" departPos="7.62" departSpeed="0.00" departDelay="1.00" arrival="127.00" arrivalLane="-422986370#2_0" arrivalPos="229.01" arrivalSpeed="16.30" duration="106.00" routeLength="485.98" waitingTime="42.00" waitingCount="1" stopTime="0.00" timeLoss="75.18" rerouteNo="0" devices="tripinfo_flow_route_26_duration_20250327_2040.1" vType="car" speedFactor="0.99" vaporized=""/>
    <tripinfo id="flow_route_41_duration_20250327_2040.6" depart="52.00" departLane="1369578054_0" departPos="25.77" departSpeed="0.00" departDelay="0.57" arrival="172.00" arrivalLane="138002006#0_0" arrivalPos="30.09" arrivalSpeed="8.23" duration="120.00" routeLength="326.25" waitingTime="78.00" waitingCount="1" stopTime="0.00" timeLoss="100.34" rerouteNo="0" devices="tripinfo_flow_route_41_duration_20250327_2040.6" vType="car" speedFactor="1.15" vaporized=""/>
    <tripinfo id="flow_route_40_duration_20250327_2040.7" depart="53.00" departLane="1369578054_0" departPos="62.08" departSpeed="0.00" departDelay="0.50" arrival="179.00" arrivalLane="1341093415#0_0" arrivalPos="101.09" arrivalSpeed="13.20" duration="126.00" routeLength="349.93" waitingTime="79.00" waitingCount="1" stopTime="0.00" timeLoss="103.88" rerouteNo="0" devices="tripinfo_flow_route_40_duration_20250327_2040.7" vType="car" speedFactor="1.01" vaporized=""/>
    <tripinfo id="flow_route_40_duration_20250327_2040.6" depart="45.00" departLane="1369578054_0" departPos="53.63" departSpeed="0.00" departDelay="0.00" arrival="181.00" arrivalLane="1341093415#0_0" arrivalPos="165.43" arrivalSpeed="16.36" duration="136.00" routeLength="422.72" waitingTime="79.00" waitingCount="1" stopTime="0.00" timeLoss="108.40" rerouteNo="0" devices="tripinfo_flow_route_40_duration_20250327_2040.6" vType="car" speedFactor="0.93" vaporized=""/>
</tripinfos>
