<?xml version="1.0" encoding="UTF-8"?>

<!-- generated on 2025-05-06 21:08:44 by Eclipse SUMO sumo Version 1.20.0
<configuration xmlns:xsi="http://www.w3.org/2001/XMLSchema-instance" xsi:noNamespaceSchemaLocation="http://sumo.dlr.de/xsd/sumoConfiguration.xsd">

    <input>
        <net-file value="osm.net.xml"/>
        <route-files value="xml/route_rl_cluster3828547534_cluster_1507433914_2954854770_2954854771_2954854772_#9more_6.rou.xml"/>
    </input>

    <output>
        <tripinfo-output value="xml/tripinfo_rl_cluster3828547534_cluster_1507433914_2954854770_2954854771_2954854772_#9more_6.xml"/>
    </output>

    <traci_server>
        <remote-port value="52127"/>
    </traci_server>

</configuration>
-->

<tripinfos xmlns:xsi="http://www.w3.org/2001/XMLSchema-instance" xsi:noNamespaceSchemaLocation="http://sumo.dlr.de/xsd/tripinfo_file.xsd">
    <tripinfo id="flow_route_6_duration_20250327_2220.0" depart="0.00" departLane="1252820505#0_0" departPos="39.30" departSpeed="0.00" departDelay="0.00" arrival="18.00" arrivalLane="379698350#0_0" arrivalPos="9.38" arrivalSpeed="13.64" duration="18.00" routeLength="129.45" waitingTime="0.00" waitingCount="0" stopTime="0.00" timeLoss="9.98" rerouteNo="0" devices="tripinfo_flow_route_6_duration_20250327_2220.0" vType="car" speedFactor="1.01" vaporized=""/>
    <tripinfo id="flow_route_22_duration_20250327_2220.0" depart="0.00" departLane="137415945#0_0" departPos="8.70" departSpeed="0.00" departDelay="0.00" arrival="25.00" arrivalLane="1342054204_0" arrivalPos="47.56" arrivalSpeed="15.26" duration="25.00" routeLength="232.19" waitingTime="0.00" waitingCount="0" stopTime="0.00" timeLoss="9.24" rerouteNo="0" devices="tripinfo_flow_route_22_duration_20250327_2220.0" vType="car" speedFactor="0.94" vaporized=""/>
    <tripinfo id="flow_route_24_duration_20250327_2220.0" depart="5.00" departLane="137415945#0_0" departPos="11.30" departSpeed="0.00" departDelay="5.00" arrival="25.00" arrivalLane="137406408#0_0" arrivalPos="0.56" arrivalSpeed="15.01" duration="20.00" routeLength="158.26" waitingTime="0.00" waitingCount="0" stopTime="0.00" timeLoss="10.16" rerouteNo="0" devices="tripinfo_flow_route_24_duration_20250327_2220.0" vType="car" speedFactor="1.09" vaporized=""/>
    <tripinfo id="flow_route_10_duration_20250327_2220.0" depart="0.00" departLane="1252820505#0_0" departPos="5.24" departSpeed="0.00" departDelay="0.00" arrival="28.00" arrivalLane="1235147073.116_0" arrivalPos="0.67" arrivalSpeed="13.77" duration="28.00" routeLength="263.17" waitingTime="0.00" waitingCount="0" stopTime="0.00" timeLoss="8.25" rerouteNo="0" devices="tripinfo_flow_route_10_duration_20250327_2220.0" vType="car" speedFactor="0.83" vaporized=""/>
    <tripinfo id="flow_route_22_duration_20250327_2220.1" depart="7.00" departLane="137415945#0_0" departPos="3.01" departSpeed="0.00" departDelay="1.00" arrival="32.00" arrivalLane="1342054204_0" arrivalPos="34.59" arrivalSpeed="16.42" duration="25.00" routeLength="224.91" waitingTime="0.00" waitingCount="0" stopTime="0.00" timeLoss="10.97" rerouteNo="0" devices="tripinfo_flow_route_22_duration_20250327_2220.1" vType="car" speedFactor="1.03" vaporized=""/>
    <tripinfo id="flow_route_8_duration_20250327_2220.0" depart="0.00" departLane="133000078#0_0" departPos="54.62" departSpeed="0.00" departDelay="0.00" arrival="33.00" arrivalLane="1235147073.116_0" arrivalPos="9.03" arrivalSpeed="16.34" duration="33.00" routeLength="314.60" waitingTime="0.00" waitingCount="0" stopTime="0.00" timeLoss="12.70" rerouteNo="0" devices="tripinfo_flow_route_8_duration_20250327_2220.0" vType="car" speedFactor="1.03" vaporized=""/>
    <tripinfo id="flow_route_22_duration_20250327_2220.2" depart="12.00" departLane="137415945#0_0" departPos="2.03" departSpeed="0.00" departDelay="0.00" arrival="39.00" arrivalLane="1342054204_0" arrivalPos="66.69" arrivalSpeed="16.24" duration="27.00" routeLength="257.99" waitingTime="0.00" waitingCount="0" stopTime="0.00" timeLoss="10.70" rerouteNo="0" devices="tripinfo_flow_route_22_duration_20250327_2220.2" vType="car" speedFactor="1.12" vaporized=""/>
    <tripinfo id="flow_route_8_duration_20250327_2220.1" depart="9.00" departLane="133000078#0_0" departPos="62.31" departSpeed="0.00" departDelay="0.43" arrival="41.00" arrivalLane="1235147073.116_0" arrivalPos="0.50" arrivalSpeed="16.18" duration="32.00" routeLength="298.37" waitingTime="0.00" waitingCount="0" stopTime="0.00" timeLoss="12.25" rerouteNo="0" devices="tripinfo_flow_route_8_duration_20250327_2220.1" vType="car" speedFactor="1.05" vaporized=""/>
    <tripinfo id="flow_route_6_duration_20250327_2220.1" depart="15.00" departLane="1252820505#0_0" departPos="59.55" departSpeed="0.00" departDelay="0.00" arrival="44.00" arrivalLane="379698350#0_0" arrivalPos="197.29" arrivalSpeed="16.39" duration="29.00" routeLength="297.11" waitingTime="0.00" waitingCount="0" stopTime="0.00" timeLoss="10.47" rerouteNo="0" devices="tripinfo_flow_route_6_duration_20250327_2220.1" vType="car" speedFactor="0.99" vaporized=""/>
    <tripinfo id="flow_route_11_duration_20250327_2220.1" depart="15.00" departLane="1252820505#0_0" departPos="28.80" departSpeed="0.00" departDelay="0.00" arrival="46.00" arrivalLane="137406408#0_2" arrivalPos="2.75" arrivalSpeed="8.56" duration="31.00" routeLength="135.54" waitingTime="3.00" waitingCount="1" stopTime="0.00" timeLoss="21.93" rerouteNo="0" devices="tripinfo_flow_route_11_duration_20250327_2220.1" vType="car" speedFactor="0.93" vaporized=""/>
    <tripinfo id="flow_route_11_duration_20250327_2220.0" depart="0.00" departLane="1252820505#0_0" departPos="76.11" departSpeed="0.00" departDelay="0.00" arrival="50.00" arrivalLane="137406408#0_2" arrivalPos="68.60" arrivalSpeed="12.41" duration="50.00" routeLength="154.08" waitingTime="21.00" waitingCount="1" stopTime="0.00" timeLoss="40.68" rerouteNo="0" devices="tripinfo_flow_route_11_duration_20250327_2220.0" vType="car" speedFactor="1.05" vaporized=""/>
    <tripinfo id="flow_route_8_duration_20250327_2220.2" depart="18.00" departLane="133000078#0_0" departPos="84.93" departSpeed="0.00" departDelay="0.86" arrival="50.00" arrivalLane="1235147073.116_0" arrivalPos="1.98" arrivalSpeed="14.16" duration="32.00" routeLength="277.23" waitingTime="0.00" waitingCount="0" stopTime="0.00" timeLoss="11.24" rerouteNo="0" devices="tripinfo_flow_route_8_duration_20250327_2220.2" vType="car" speedFactor="0.88" vaporized=""/>
    <tripinfo id="flow_route_6_duration_20250327_2220.2" depart="30.00" departLane="1252820505#0_0" departPos="27.28" departSpeed="0.00" departDelay="0.00" arrival="56.00" arrivalLane="379698350#0_0" arrivalPos="112.77" arrivalSpeed="14.64" duration="26.00" routeLength="244.85" waitingTime="0.00" waitingCount="0" stopTime="0.00" timeLoss="9.07" rerouteNo="0" devices="tripinfo_flow_route_6_duration_20250327_2220.2" vType="car" speedFactor="0.89" vaporized=""/>
    <tripinfo id="flow_route_11_duration_20250327_2220.2" depart="32.00" departLane="1252820505#0_0" departPos="6.95" departSpeed="0.00" departDelay="2.00" arrival="56.00" arrivalLane="137406408#0_2" arrivalPos="6.18" arrivalSpeed="10.98" duration="24.00" routeLength="160.81" waitingTime="0.00" waitingCount="0" stopTime="0.00" timeLoss="12.45" rerouteNo="0" devices="tripinfo_flow_route_11_duration_20250327_2220.2" vType="car" speedFactor="0.87" vaporized=""/>
    <tripinfo id="flow_route_10_duration_20250327_2220.1" depart="31.00" departLane="1252820505#0_0" departPos="18.01" departSpeed="0.00" departDelay="1.00" arrival="60.00" arrivalLane="1235147073.116_0" arrivalPos="14.21" arrivalSpeed="13.60" duration="29.00" routeLength="263.94" waitingTime="0.00" waitingCount="0" stopTime="0.00" timeLoss="9.32" rerouteNo="0" devices="tripinfo_flow_route_10_duration_20250327_2220.1" vType="car" speedFactor="0.83" vaporized=""/>
    <tripinfo id="flow_route_6_duration_20250327_2220.3" depart="45.00" departLane="1252820505#0_0" departPos="25.76" departSpeed="0.00" departDelay="0.00" arrival="70.00" arrivalLane="379698350#0_0" arrivalPos="94.00" arrivalSpeed="16.52" duration="25.00" routeLength="227.61" waitingTime="0.00" waitingCount="0" stopTime="0.00" timeLoss="11.27" rerouteNo="0" devices="tripinfo_flow_route_6_duration_20250327_2220.3" vType="car" speedFactor="1.17" vaporized=""/>
    <tripinfo id="flow_route_11_duration_20250327_2220.3" depart="45.00" departLane="1252820505#0_0" departPos="35.73" departSpeed="0.00" departDelay="0.00" arrival="72.00" arrivalLane="137406408#0_2" arrivalPos="80.65" arrivalSpeed="14.47" duration="27.00" routeLength="206.50" waitingTime="0.00" waitingCount="0" stopTime="0.00" timeLoss="14.06" rerouteNo="0" devices="tripinfo_flow_route_11_duration_20250327_2220.3" vType="car" speedFactor="0.99" vaporized=""/>
    <tripinfo id="flow_route_5_duration_20250327_2220.0" depart="0.00" departLane="291974733#0_0" departPos="43.68" departSpeed="0.00" departDelay="0.00" arrival="89.00" arrivalLane="1342054204_0" arrivalPos="62.15" arrivalSpeed="13.17" duration="89.00" routeLength="156.72" waitingTime="61.00" waitingCount="1" stopTime="0.00" timeLoss="77.85" rerouteNo="0" devices="tripinfo_flow_route_5_duration_20250327_2220.0" vType="car" speedFactor="0.94" vaporized=""/>
    <tripinfo id="flow_route_5_duration_20250327_2220.1" depart="31.00" departLane="291974733#0_0" departPos="53.14" departSpeed="0.00" departDelay="1.00" arrival="89.00" arrivalLane="1342054204_0" arrivalPos="24.32" arrivalSpeed="11.19" duration="58.00" routeLength="109.43" waitingTime="33.00" waitingCount="1" stopTime="0.00" timeLoss="50.11" rerouteNo="0" devices="tripinfo_flow_route_5_duration_20250327_2220.1" vType="car" speedFactor="0.97" vaporized=""/>
    <tripinfo id="flow_route_23_duration_20250327_2220.1" depart="26.00" departLane="137415945#0_0" departPos="3.92" departSpeed="0.00" departDelay="6.00" arrival="90.00" arrivalLane="379698350#0_2" arrivalPos="34.64" arrivalSpeed="11.74" duration="64.00" routeLength="223.07" waitingTime="27.00" waitingCount="1" stopTime="0.00" timeLoss="50.28" rerouteNo="0" devices="tripinfo_flow_route_23_duration_20250327_2220.1" vType="car" speedFactor="1.16" vaporized=""/>
    <tripinfo id="flow_route_23_duration_20250327_2220.0" depart="0.00" departLane="137415945#0_0" departPos="0.59" departSpeed="0.00" departDelay="0.00" arrival="97.00" arrivalLane="379698350#0_2" arrivalPos="153.67" arrivalSpeed="14.15" duration="97.00" routeLength="345.44" waitingTime="52.00" waitingCount="1" stopTime="0.00" timeLoss="71.95" rerouteNo="0" devices="tripinfo_flow_route_23_duration_20250327_2220.0" vType="car" speedFactor="0.86" vaporized=""/>
    <tripinfo id="flow_route_23_duration_20250327_2220.2" depart="45.00" departLane="137415945#0_0" departPos="7.30" departSpeed="0.00" departDelay="5.00" arrival="97.00" arrivalLane="379698350#0_2" arrivalPos="86.04" arrivalSpeed="14.17" duration="52.00" routeLength="271.09" waitingTime="10.00" waitingCount="1" stopTime="0.00" timeLoss="35.39" rerouteNo="0" devices="tripinfo_flow_route_23_duration_20250327_2220.2" vType="car" speedFactor="1.18" vaporized=""/>
    <tripinfo id="flow_route_4_duration_20250327_2220.0" depart="0.00" departLane="291974733#0_0" departPos="63.06" departSpeed="0.00" departDelay="0.00" arrival="99.00" arrivalLane="379698350#0_0" arrivalPos="183.76" arrivalSpeed="16.55" duration="99.00" routeLength="311.60" waitingTime="61.00" waitingCount="1" stopTime="0.00" timeLoss="79.52" rerouteNo="0" devices="tripinfo_flow_route_4_duration_20250327_2220.0" vType="car" speedFactor="1.06" vaporized=""/>
    <tripinfo id="flow_route_12_duration_20250327_2220.0" depart="0.00" departLane="133000078#0_0" departPos="66.48" departSpeed="0.00" departDelay="0.00" arrival="125.00" arrivalLane="1342054204_3" arrivalPos="21.59" arrivalSpeed="13.46" duration="125.00" routeLength="252.91" waitingTime="86.00" waitingCount="1" stopTime="0.00" timeLoss="107.05" rerouteNo="0" devices="tripinfo_flow_route_12_duration_20250327_2220.0" vType="car" speedFactor="0.89" vaporized=""/>
    <tripinfo id="flow_route_7_duration_20250327_2220.0" depart="0.00" departLane="133000078#0_0" departPos="116.92" departSpeed="0.00" departDelay="0.00" arrival="126.00" arrivalLane="137406408#0_1" arrivalPos="45.36" arrivalSpeed="15.15" duration="126.00" routeLength="233.24" waitingTime="89.00" waitingCount="1" stopTime="0.00" timeLoss="111.76" rerouteNo="0" devices="tripinfo_flow_route_7_duration_20250327_2220.0" vType="car" speedFactor="1.08" vaporized=""/>
    <tripinfo id="flow_route_12_duration_20250327_2220.1" depart="21.00" departLane="133000078#0_0" departPos="167.60" departSpeed="0.00" departDelay="1.00" arrival="126.00" arrivalLane="1342054204_3" arrivalPos="19.46" arrivalSpeed="13.23" duration="105.00" routeLength="149.66" waitingTime="75.00" waitingCount="1" stopTime="0.00" timeLoss="95.08" rerouteNo="0" devices="tripinfo_flow_route_12_duration_20250327_2220.1" vType="car" speedFactor="0.94" vaporized=""/>
    <tripinfo id="flow_route_8_duration_20250327_2220.4" depart="35.00" departLane="133000078#0_0" departPos="140.13" departSpeed="0.00" departDelay="0.72" arrival="132.00" arrivalLane="1235147073.116_0" arrivalPos="3.25" arrivalSpeed="15.40" duration="97.00" routeLength="223.30" waitingTime="61.00" waitingCount="1" stopTime="0.00" timeLoss="81.79" rerouteNo="0" devices="tripinfo_flow_route_8_duration_20250327_2220.4" vType="car" speedFactor="0.95" vaporized=""/>
    <tripinfo id="flow_route_12_duration_20250327_2220.2" depart="40.00" departLane="133000078#0_0" departPos="201.69" departSpeed="0.00" departDelay="0.00" arrival="134.00" arrivalLane="1342054204_3" arrivalPos="51.03" arrivalSpeed="14.63" duration="94.00" routeLength="147.14" waitingTime="71.00" waitingCount="2" stopTime="0.00" timeLoss="83.87" rerouteNo="0" devices="tripinfo_flow_route_12_duration_20250327_2220.2" vType="car" speedFactor="0.93" vaporized=""/>
    <tripinfo id="flow_route_8_duration_20250327_2220.5" depart="44.00" departLane="133000078#0_0" departPos="146.76" departSpeed="0.00" departDelay="1.15" arrival="134.00" arrivalLane="1235147073.116_0" arrivalPos="9.57" arrivalSpeed="16.25" duration="90.00" routeLength="223.00" waitingTime="54.00" waitingCount="1" stopTime="0.00" timeLoss="75.46" rerouteNo="0" devices="tripinfo_flow_route_8_duration_20250327_2220.5" vType="car" speedFactor="1.01" vaporized=""/>
    <tripinfo id="flow_route_8_duration_20250327_2220.3" depart="29.00" departLane="133000078#0_0" departPos="5.75" departSpeed="0.00" departDelay="3.29" arrival="136.00" arrivalLane="1235147073.116_0" arrivalPos="14.70" arrivalSpeed="16.57" duration="107.00" routeLength="369.13" waitingTime="53.00" waitingCount="1" stopTime="0.00" timeLoss="83.72" rerouteNo="0" devices="tripinfo_flow_route_8_duration_20250327_2220.3" vType="car" speedFactor="1.01" vaporized=""/>
    <tripinfo id="flow_route_8_duration_20250327_2220.6" depart="52.00" departLane="133000078#0_0" departPos="29.15" departSpeed="0.00" departDelay="0.57" arrival="137.00" arrivalLane="1235147073.116_0" arrivalPos="1.90" arrivalSpeed="15.83" duration="85.00" routeLength="332.94" waitingTime="39.00" waitingCount="1" stopTime="0.00" timeLoss="63.44" rerouteNo="0" devices="tripinfo_flow_route_8_duration_20250327_2220.6" vType="car" speedFactor="0.97" vaporized=""/>
    <tripinfo id="flow_route_22_duration_20250327_2220.3" depart="19.00" departLane="137415945#0_0" departPos="3.36" departSpeed="0.00" departDelay="1.00" arrival="159.00" arrivalLane="1342054204_0" arrivalPos="10.94" arrivalSpeed="11.38" duration="140.00" routeLength="200.91" waitingTime="105.00" waitingCount="1" stopTime="0.00" timeLoss="126.56" rerouteNo="0" devices="tripinfo_flow_route_22_duration_20250327_2220.3" vType="car" speedFactor="0.94" vaporized=""/>
    <tripinfo id="flow_route_22_duration_20250327_2220.5" depart="34.00" departLane="137415945#0_0" departPos="3.69" departSpeed="0.00" departDelay="4.00" arrival="161.00" arrivalLane="1342054204_0" arrivalPos="15.61" arrivalSpeed="10.73" duration="127.00" routeLength="205.25" waitingTime="91.00" waitingCount="1" stopTime="0.00" timeLoss="113.37" rerouteNo="0" devices="tripinfo_flow_route_22_duration_20250327_2220.5" vType="car" speedFactor="0.92" vaporized=""/>
    <tripinfo id="flow_route_22_duration_20250327_2220.4" depart="29.00" departLane="137415945#0_0" departPos="1.93" departSpeed="0.00" departDelay="5.00" arrival="163.00" arrivalLane="1342054204_0" arrivalPos="52.01" arrivalSpeed="12.86" duration="134.00" routeLength="243.41" waitingTime="96.00" waitingCount="1" stopTime="0.00" timeLoss="118.65" rerouteNo="0" devices="tripinfo_flow_route_22_duration_20250327_2220.4" vType="car" speedFactor="1.02" vaporized=""/>
    <tripinfo id="flow_route_22_duration_20250327_2220.6" depart="40.00" departLane="137415945#0_0" departPos="4.65" departSpeed="0.00" departDelay="4.00" arrival="163.00" arrivalLane="1342054204_1" arrivalPos="36.92" arrivalSpeed="12.47" duration="123.00" routeLength="225.60" waitingTime="85.00" waitingCount="1" stopTime="0.00" timeLoss="109.07" rerouteNo="0" devices="tripinfo_flow_route_22_duration_20250327_2220.6" vType="car" speedFactor="1.13" vaporized=""/>
    <tripinfo id="flow_route_22_duration_20250327_2220.7" depart="48.00" departLane="137415945#0_0" departPos="5.94" departSpeed="0.00" departDelay="6.00" arrival="163.00" arrivalLane="1342054204_0" arrivalPos="9.13" arrivalSpeed="11.62" duration="115.00" routeLength="196.53" waitingTime="81.00" waitingCount="1" stopTime="0.00" timeLoss="102.57" rerouteNo="0" devices="tripinfo_flow_route_22_duration_20250327_2220.7" vType="car" speedFactor="1.15" vaporized=""/>
    <tripinfo id="flow_route_22_duration_20250327_2220.8" depart="54.00" departLane="137415945#0_0" departPos="6.11" departSpeed="0.00" departDelay="6.00" arrival="163.00" arrivalLane="1342054204_1" arrivalPos="8.86" arrivalSpeed="11.58" duration="109.00" routeLength="196.08" waitingTime="73.00" waitingCount="1" stopTime="0.00" timeLoss="96.57" rerouteNo="0" devices="tripinfo_flow_route_22_duration_20250327_2220.8" vType="car" speedFactor="1.02" vaporized=""/>
    <tripinfo id="flow_route_22_duration_20250327_2220.9" depart="59.00" departLane="137415945#0_0" departPos="1.95" departSpeed="0.00" departDelay="5.00" arrival="166.00" arrivalLane="1342054204_0" arrivalPos="32.42" arrivalSpeed="12.87" duration="107.00" routeLength="223.79" waitingTime="70.00" waitingCount="1" stopTime="0.00" timeLoss="93.42" rerouteNo="0" devices="tripinfo_flow_route_22_duration_20250327_2220.9" vType="car" speedFactor="1.18" vaporized=""/>
</tripinfos>
