<?xml version="1.0" encoding="UTF-8"?>

<!-- generated on 2025-05-06 21:09:17 by Eclipse SUMO sumo Version 1.20.0
<configuration xmlns:xsi="http://www.w3.org/2001/XMLSchema-instance" xsi:noNamespaceSchemaLocation="http://sumo.dlr.de/xsd/sumoConfiguration.xsd">

    <input>
        <net-file value="osm.net.xml"/>
        <route-files value="xml/route_static_cluster_11644940323_11644940324_3828703845_9.rou.xml"/>
    </input>

    <output>
        <tripinfo-output value="xml/tripinfo_static_cluster_11644940323_11644940324_3828703845_9.xml"/>
    </output>

    <traci_server>
        <remote-port value="41357"/>
    </traci_server>

</configuration>
-->

<tripinfos xmlns:xsi="http://www.w3.org/2001/XMLSchema-instance" xsi:noNamespaceSchemaLocation="http://sumo.dlr.de/xsd/tripinfo_file.xsd">
    <tripinfo id="flow_route_3_duration_20250327_2130.0" depart="0.00" departLane="1318793173#0_0" departPos="80.53" departSpeed="0.00" departDelay="0.00" arrival="19.00" arrivalLane="291974733#0_1" arrivalPos="66.76" arrivalSpeed="13.99" duration="19.00" routeLength="123.20" waitingTime="0.00" waitingCount="0" stopTime="0.00" timeLoss="10.27" rerouteNo="0" devices="tripinfo_flow_route_3_duration_20250327_2130.0" vType="car" speedFactor="0.94" vaporized=""/>
    <tripinfo id="flow_route_2_duration_20250327_2130.0" depart="0.00" departLane="1318793173#0_0" departPos="58.93" departSpeed="0.00" departDelay="0.00" arrival="20.00" arrivalLane="189835257_0" arrivalPos="46.92" arrivalSpeed="15.82" duration="20.00" routeLength="167.93" waitingTime="0.00" waitingCount="0" stopTime="0.00" timeLoss="9.27" rerouteNo="0" devices="tripinfo_flow_route_2_duration_20250327_2130.0" vType="car" speedFactor="1.06" vaporized=""/>
    <tripinfo id="flow_route_16_duration_20250327_2130.0" depart="0.00" departLane="137406408#0_0" departPos="52.27" departSpeed="0.00" departDelay="0.00" arrival="21.00" arrivalLane="133126040#0_0" arrivalPos="80.39" arrivalSpeed="14.92" duration="21.00" routeLength="149.31" waitingTime="0.00" waitingCount="0" stopTime="0.00" timeLoss="11.11" rerouteNo="0" devices="tripinfo_flow_route_16_duration_20250327_2130.0" vType="car" speedFactor="1.05" vaporized=""/>
    <tripinfo id="flow_route_17_duration_20250327_2130.0" depart="0.00" departLane="137406408#0_0" departPos="24.41" departSpeed="0.00" departDelay="0.00" arrival="22.00" arrivalLane="1254771874#0_0" arrivalPos="63.27" arrivalSpeed="16.22" duration="22.00" routeLength="182.06" waitingTime="0.00" waitingCount="0" stopTime="0.00" timeLoss="9.94" rerouteNo="0" devices="tripinfo_flow_route_17_duration_20250327_2130.0" vType="car" speedFactor="0.89" vaporized=""/>
    <tripinfo id="flow_route_9_duration_20250327_2130.0" depart="0.00" departLane="1318793173#0_0" departPos="0.65" departSpeed="0.00" departDelay="0.00" arrival="24.00" arrivalLane="1254771874#0_1" arrivalPos="11.63" arrivalSpeed="10.99" duration="24.00" routeLength="169.44" waitingTime="0.00" waitingCount="0" stopTime="0.00" timeLoss="12.45" rerouteNo="0" devices="tripinfo_flow_route_9_duration_20250327_2130.0" vType="car" speedFactor="1.01" vaporized=""/>
    <tripinfo id="flow_route_2_duration_20250327_2130.1" depart="6.00" departLane="1318793173#0_0" departPos="34.79" departSpeed="0.00" departDelay="0.55" arrival="31.00" arrivalLane="189835257_0" arrivalPos="46.11" arrivalSpeed="14.39" duration="25.00" routeLength="191.25" waitingTime="0.00" waitingCount="0" stopTime="0.00" timeLoss="11.73" rerouteNo="0" devices="tripinfo_flow_route_2_duration_20250327_2130.1" vType="car" speedFactor="0.94" vaporized=""/>
    <tripinfo id="flow_route_2_duration_20250327_2130.3" depart="17.00" departLane="1318793173#0_0" departPos="58.82" departSpeed="0.00" departDelay="0.64" arrival="37.00" arrivalLane="189835257_0" arrivalPos="20.88" arrivalSpeed="15.14" duration="20.00" routeLength="142.00" waitingTime="0.00" waitingCount="0" stopTime="0.00" timeLoss="10.33" rerouteNo="0" devices="tripinfo_flow_route_2_duration_20250327_2130.3" vType="car" speedFactor="1.12" vaporized=""/>
    <tripinfo id="flow_route_2_duration_20250327_2130.2" depart="11.00" departLane="1318793173#0_0" departPos="4.99" departSpeed="0.00" departDelay="0.09" arrival="41.00" arrivalLane="189835257_0" arrivalPos="36.00" arrivalSpeed="13.91" duration="30.00" routeLength="210.95" waitingTime="0.00" waitingCount="0" stopTime="0.00" timeLoss="13.78" rerouteNo="0" devices="tripinfo_flow_route_2_duration_20250327_2130.2" vType="car" speedFactor="0.86" vaporized=""/>
    <tripinfo id="flow_route_9_duration_20250327_2130.1" depart="12.00" departLane="1318793173#0_0" departPos="33.18" departSpeed="0.00" departDelay="0.00" arrival="42.00" arrivalLane="1254771874#0_1" arrivalPos="131.12" arrivalSpeed="16.16" duration="30.00" routeLength="256.41" waitingTime="0.00" waitingCount="0" stopTime="0.00" timeLoss="13.25" rerouteNo="0" devices="tripinfo_flow_route_9_duration_20250327_2130.1" vType="car" speedFactor="1.09" vaporized=""/>
    <tripinfo id="flow_route_13_duration_20250327_2130.0" depart="0.00" departLane="1252820503#0_0" departPos="99.64" departSpeed="0.00" departDelay="0.00" arrival="43.00" arrivalLane="291974733#0_0" arrivalPos="46.05" arrivalSpeed="9.81" duration="43.00" routeLength="103.57" waitingTime="19.00" waitingCount="1" stopTime="0.00" timeLoss="35.47" rerouteNo="0" devices="tripinfo_flow_route_13_duration_20250327_2130.0" vType="car" speedFactor="1.08" vaporized=""/>
    <tripinfo id="flow_route_15_duration_20250327_2130.0" depart="1.00" departLane="1252820503#0_0" departPos="8.92" departSpeed="0.00" departDelay="1.00" arrival="44.00" arrivalLane="133126040#0_1" arrivalPos="4.72" arrivalSpeed="8.20" duration="43.00" routeLength="174.98" waitingTime="10.00" waitingCount="1" stopTime="0.00" timeLoss="31.36" rerouteNo="0" devices="tripinfo_flow_route_15_duration_20250327_2130.0" vType="car" speedFactor="0.83" vaporized=""/>
    <tripinfo id="flow_route_13_duration_20250327_2130.1" depart="15.00" departLane="1252820503#0_0" departPos="122.04" departSpeed="0.00" departDelay="0.00" arrival="49.00" arrivalLane="291974733#0_0" arrivalPos="59.36" arrivalSpeed="10.20" duration="34.00" routeLength="94.48" waitingTime="11.00" waitingCount="1" stopTime="0.00" timeLoss="27.06" rerouteNo="0" devices="tripinfo_flow_route_13_duration_20250327_2130.1" vType="car" speedFactor="1.03" vaporized=""/>
    <tripinfo id="flow_route_2_duration_20250327_2130.4" depart="22.00" departLane="1318793173#0_0" departPos="3.22" departSpeed="0.00" departDelay="0.18" arrival="49.00" arrivalLane="189835257_0" arrivalPos="50.37" arrivalSpeed="14.55" duration="27.00" routeLength="227.09" waitingTime="0.00" waitingCount="0" stopTime="0.00" timeLoss="9.97" rerouteNo="0" devices="tripinfo_flow_route_2_duration_20250327_2130.4" vType="car" speedFactor="0.88" vaporized=""/>
    <tripinfo id="flow_route_2_duration_20250327_2130.5" depart="28.00" departLane="1318793173#0_0" departPos="13.55" departSpeed="0.00" departDelay="0.73" arrival="52.00" arrivalLane="189835257_0" arrivalPos="6.81" arrivalSpeed="14.16" duration="24.00" routeLength="173.20" waitingTime="0.00" waitingCount="0" stopTime="0.00" timeLoss="11.63" rerouteNo="0" devices="tripinfo_flow_route_2_duration_20250327_2130.5" vType="car" speedFactor="0.94" vaporized=""/>
    <tripinfo id="flow_route_13_duration_20250327_2130.2" depart="30.00" departLane="1252820503#0_0" departPos="39.10" departSpeed="0.00" departDelay="0.00" arrival="54.00" arrivalLane="291974733#0_0" arrivalPos="38.54" arrivalSpeed="9.55" duration="24.00" routeLength="156.61" waitingTime="0.00" waitingCount="0" stopTime="0.00" timeLoss="13.69" rerouteNo="0" devices="tripinfo_flow_route_13_duration_20250327_2130.2" vType="car" speedFactor="1.16" vaporized=""/>
    <tripinfo id="flow_route_14_duration_20250327_2130.0" depart="0.00" departLane="1252820503#0_0" departPos="69.02" departSpeed="0.00" departDelay="0.00" arrival="56.00" arrivalLane="1254771874#0_0" arrivalPos="150.80" arrivalSpeed="16.20" duration="56.00" routeLength="291.67" waitingTime="15.00" waitingCount="1" stopTime="0.00" timeLoss="38.07" rerouteNo="0" devices="tripinfo_flow_route_14_duration_20250327_2130.0" vType="car" speedFactor="1.03" vaporized=""/>
    <tripinfo id="flow_route_14_duration_20250327_2130.1" depart="15.00" departLane="1252820503#0_0" departPos="131.41" departSpeed="0.00" departDelay="0.00" arrival="64.00" arrivalLane="1254771874#0_0" arrivalPos="240.04" arrivalSpeed="16.27" duration="49.00" routeLength="318.50" waitingTime="11.00" waitingCount="1" stopTime="0.00" timeLoss="28.95" rerouteNo="0" devices="tripinfo_flow_route_14_duration_20250327_2130.1" vType="car" speedFactor="1.05" vaporized=""/>
    <tripinfo id="flow_route_16_duration_20250327_2130.1" depart="20.00" departLane="137406408#0_0" departPos="70.56" departSpeed="0.00" departDelay="0.00" arrival="69.00" arrivalLane="133126040#0_0" arrivalPos="3.51" arrivalSpeed="6.71" duration="49.00" routeLength="54.13" waitingTime="32.00" waitingCount="1" stopTime="0.00" timeLoss="45.26" rerouteNo="0" devices="tripinfo_flow_route_16_duration_20250327_2130.1" vType="car" speedFactor="0.93" vaporized=""/>
    <tripinfo id="flow_route_14_duration_20250327_2130.2" depart="31.00" departLane="1252820503#0_0" departPos="24.87" departSpeed="0.00" departDelay="1.00" arrival="69.00" arrivalLane="1254771874#0_1" arrivalPos="246.56" arrivalSpeed="16.35" duration="38.00" routeLength="431.57" waitingTime="0.00" waitingCount="0" stopTime="0.00" timeLoss="11.26" rerouteNo="0" devices="tripinfo_flow_route_14_duration_20250327_2130.2" vType="car" speedFactor="1.02" vaporized=""/>
    <tripinfo id="flow_route_3_duration_20250327_2130.1" depart="21.00" departLane="1318793173#0_0" departPos="17.19" departSpeed="0.00" departDelay="1.00" arrival="70.00" arrivalLane="291974733#0_1" arrivalPos="22.18" arrivalSpeed="9.32" duration="49.00" routeLength="141.95" waitingTime="15.00" waitingCount="1" stopTime="0.00" timeLoss="40.11" rerouteNo="0" devices="tripinfo_flow_route_3_duration_20250327_2130.1" vType="car" speedFactor="0.99" vaporized=""/>
    <tripinfo id="flow_route_16_duration_20250327_2130.2" depart="40.00" departLane="137406408#0_0" departPos="53.54" departSpeed="0.00" departDelay="0.00" arrival="78.00" arrivalLane="133126040#0_1" arrivalPos="103.83" arrivalSpeed="14.17" duration="38.00" routeLength="171.48" waitingTime="8.00" waitingCount="1" stopTime="0.00" timeLoss="25.78" rerouteNo="0" devices="tripinfo_flow_route_16_duration_20250327_2130.2" vType="car" speedFactor="0.87" vaporized=""/>
    <tripinfo id="flow_route_2_duration_20250327_2130.7" depart="40.00" departLane="1318793173#0_0" departPos="33.26" departSpeed="0.00" departDelay="1.82" arrival="79.00" arrivalLane="189835257_0" arrivalPos="31.40" arrivalSpeed="12.92" duration="39.00" routeLength="178.07" waitingTime="7.00" waitingCount="1" stopTime="0.00" timeLoss="26.08" rerouteNo="0" devices="tripinfo_flow_route_2_duration_20250327_2130.7" vType="car" speedFactor="0.89" vaporized=""/>
    <tripinfo id="flow_route_2_duration_20250327_2130.6" depart="35.00" departLane="1318793173#0_0" departPos="9.62" departSpeed="0.00" departDelay="2.28" arrival="81.00" arrivalLane="189835257_0" arrivalPos="30.10" arrivalSpeed="13.97" duration="46.00" routeLength="200.42" waitingTime="6.00" waitingCount="1" stopTime="0.00" timeLoss="33.01" rerouteNo="0" devices="tripinfo_flow_route_2_duration_20250327_2130.6" vType="car" speedFactor="1.01" vaporized=""/>
    <tripinfo id="flow_route_2_duration_20250327_2130.8" depart="45.00" departLane="1318793173#0_0" departPos="16.41" departSpeed="0.00" departDelay="1.37" arrival="82.00" arrivalLane="189835257_0" arrivalPos="8.87" arrivalSpeed="12.88" duration="37.00" routeLength="172.40" waitingTime="4.00" waitingCount="1" stopTime="0.00" timeLoss="24.41" rerouteNo="0" devices="tripinfo_flow_route_2_duration_20250327_2130.8" vType="car" speedFactor="0.92" vaporized=""/>
    <tripinfo id="flow_route_2_duration_20250327_2130.9" depart="50.00" departLane="1318793173#0_0" departPos="19.34" departSpeed="0.00" departDelay="0.91" arrival="83.00" arrivalLane="189835257_0" arrivalPos="3.53" arrivalSpeed="12.32" duration="33.00" routeLength="164.12" waitingTime="1.00" waitingCount="1" stopTime="0.00" timeLoss="22.48" rerouteNo="0" devices="tripinfo_flow_route_2_duration_20250327_2130.9" vType="car" speedFactor="1.18" vaporized=""/>
    <tripinfo id="flow_route_3_duration_20250327_2130.2" depart="40.00" departLane="1318793173#0_0" departPos="53.23" departSpeed="0.00" departDelay="0.00" arrival="88.00" arrivalLane="291974733#0_2" arrivalPos="87.61" arrivalSpeed="12.92" duration="48.00" routeLength="171.34" waitingTime="9.00" waitingCount="2" stopTime="0.00" timeLoss="35.50" rerouteNo="0" devices="tripinfo_flow_route_3_duration_20250327_2130.2" vType="car" speedFactor="0.83" vaporized=""/>
    <tripinfo id="flow_route_2_duration_20250327_2130.10" depart="57.00" departLane="1318793173#0_0" departPos="9.30" departSpeed="0.00" departDelay="2.46" arrival="88.00" arrivalLane="189835257_0" arrivalPos="52.25" arrivalSpeed="14.73" duration="31.00" routeLength="222.90" waitingTime="0.00" waitingCount="0" stopTime="0.00" timeLoss="17.11" rerouteNo="0" devices="tripinfo_flow_route_2_duration_20250327_2130.10" vType="car" speedFactor="1.15" vaporized=""/>
    <tripinfo id="flow_route_9_duration_20250327_2130.2" depart="24.00" departLane="1318793173#0_0" departPos="35.80" departSpeed="0.00" departDelay="0.00" arrival="93.00" arrivalLane="1254771874#0_0" arrivalPos="175.12" arrivalSpeed="16.52" duration="69.00" routeLength="297.78" waitingTime="23.00" waitingCount="2" stopTime="0.00" timeLoss="48.39" rerouteNo="0" devices="tripinfo_flow_route_9_duration_20250327_2130.2" vType="car" speedFactor="0.94" vaporized=""/>
    <tripinfo id="flow_route_9_duration_20250327_2130.3" depart="36.00" departLane="1318793173#0_0" departPos="77.33" departSpeed="0.00" departDelay="0.00" arrival="94.00" arrivalLane="1254771874#0_1" arrivalPos="170.79" arrivalSpeed="16.59" duration="58.00" routeLength="251.93" waitingTime="17.00" waitingCount="3" stopTime="0.00" timeLoss="41.19" rerouteNo="0" devices="tripinfo_flow_route_9_duration_20250327_2130.3" vType="car" speedFactor="0.97" vaporized=""/>
    <tripinfo id="flow_route_9_duration_20250327_2130.4" depart="48.00" departLane="1318793173#0_0" departPos="100.30" departSpeed="0.00" departDelay="0.00" arrival="97.00" arrivalLane="1254771874#0_1" arrivalPos="139.77" arrivalSpeed="16.42" duration="49.00" routeLength="197.93" waitingTime="23.00" waitingCount="3" stopTime="0.00" timeLoss="35.54" rerouteNo="0" devices="tripinfo_flow_route_9_duration_20250327_2130.4" vType="car" speedFactor="0.93" vaporized=""/>
    <tripinfo id="flow_route_13_duration_20250327_2130.3" depart="45.00" departLane="1252820503#0_0" departPos="4.12" departSpeed="0.00" departDelay="0.00" arrival="102.00" arrivalLane="291974733#0_0" arrivalPos="17.18" arrivalSpeed="6.58" duration="57.00" routeLength="170.22" waitingTime="26.00" waitingCount="1" stopTime="0.00" timeLoss="45.22" rerouteNo="0" devices="tripinfo_flow_route_13_duration_20250327_2130.3" vType="car" speedFactor="0.95" vaporized=""/>
    <tripinfo id="flow_route_14_duration_20250327_2130.3" depart="45.00" departLane="1252820503#0_0" departPos="41.28" departSpeed="0.00" departDelay="0.00" arrival="116.00" arrivalLane="1254771874#0_0" arrivalPos="164.02" arrivalSpeed="16.19" duration="71.00" routeLength="332.61" waitingTime="27.00" waitingCount="1" stopTime="0.00" timeLoss="50.09" rerouteNo="0" devices="tripinfo_flow_route_14_duration_20250327_2130.3" vType="car" speedFactor="1.13" vaporized=""/>
</tripinfos>
