<?xml version="1.0" encoding="UTF-8"?>

<!-- generated on 2025-05-06 21:08:37 by Eclipse SUMO sumo Version 1.20.0
<configuration xmlns:xsi="http://www.w3.org/2001/XMLSchema-instance" xsi:noNamespaceSchemaLocation="http://sumo.dlr.de/xsd/sumoConfiguration.xsd">

    <input>
        <net-file value="osm.net.xml"/>
        <route-files value="xml/route_static_J7_5.rou.xml"/>
    </input>

    <output>
        <tripinfo-output value="xml/tripinfo_static_J7_5.xml"/>
    </output>

    <traci_server>
        <remote-port value="56015"/>
    </traci_server>

</configuration>
-->

<tripinfos xmlns:xsi="http://www.w3.org/2001/XMLSchema-instance" xsi:noNamespaceSchemaLocation="http://sumo.dlr.de/xsd/tripinfo_file.xsd">
    <tripinfo id="flow_route_127_duration_20250327_1920.1" depart="2.00" departLane="-138000461_0" departPos="187.58" departSpeed="0.00" departDelay="0.18" arrival="20.00" arrivalLane="189240000#0-AddedOnRampEdge_0" arrivalPos="59.81" arrivalSpeed="13.70" duration="18.00" routeLength="131.33" waitingTime="0.00" waitingCount="0" stopTime="0.00" timeLoss="9.71" rerouteNo="0" devices="tripinfo_flow_route_127_duration_20250327_1920.1" vType="car" speedFactor="1.03" vaporized=""/>
    <tripinfo id="flow_route_131_duration_20250327_1920.0" depart="0.00" departLane="714011134#0_0" departPos="6.35" departSpeed="0.00" departDelay="0.00" arrival="27.00" arrivalLane="134194079#0_1" arrivalPos="73.02" arrivalSpeed="14.32" duration="27.00" routeLength="232.63" waitingTime="0.00" waitingCount="0" stopTime="0.00" timeLoss="11.01" rerouteNo="0" devices="tripinfo_flow_route_131_duration_20250327_1920.0" vType="car" speedFactor="0.89" vaporized=""/>
    <tripinfo id="flow_route_127_duration_20250327_1920.3" depart="6.00" departLane="-138000461_0" departPos="126.00" departSpeed="0.00" departDelay="0.55" arrival="32.00" arrivalLane="189240000#0-AddedOnRampEdge_0" arrivalPos="8.40" arrivalSpeed="8.96" duration="26.00" routeLength="141.51" waitingTime="0.00" waitingCount="0" stopTime="0.00" timeLoss="16.64" rerouteNo="0" devices="tripinfo_flow_route_127_duration_20250327_1920.3" vType="car" speedFactor="0.97" vaporized=""/>
    <tripinfo id="flow_route_132_duration_20250327_1920.0" depart="0.00" departLane="714011134#0_0" departPos="92.28" departSpeed="0.00" departDelay="0.00" arrival="34.00" arrivalLane="189240000#0-AddedOnRampEdge_1" arrivalPos="51.48" arrivalSpeed="15.25" duration="34.00" routeLength="375.34" waitingTime="0.00" waitingCount="0" stopTime="0.00" timeLoss="9.79" rerouteNo="0" devices="tripinfo_flow_route_132_duration_20250327_1920.0" vType="car" speedFactor="0.94" vaporized=""/>
    <tripinfo id="flow_route_127_duration_20250327_1920.8" depart="16.00" departLane="-138000461_0" departPos="191.13" departSpeed="0.00" departDelay="1.46" arrival="35.00" arrivalLane="189240000#0-AddedOnRampEdge_0" arrivalPos="67.24" arrivalSpeed="13.86" duration="19.00" routeLength="135.22" waitingTime="0.00" waitingCount="0" stopTime="0.00" timeLoss="9.94" rerouteNo="0" devices="tripinfo_flow_route_127_duration_20250327_1920.8" vType="car" speedFactor="1.10" vaporized=""/>
    <tripinfo id="flow_route_121_duration_20250327_1920.2" depart="5.00" departLane="799091563#0_0" departPos="308.22" departSpeed="0.00" departDelay="0.72" arrival="36.00" arrivalLane="134194079#0_0" arrivalPos="77.91" arrivalSpeed="12.72" duration="31.00" routeLength="158.85" waitingTime="1.00" waitingCount="1" stopTime="0.00" timeLoss="19.83" rerouteNo="0" devices="tripinfo_flow_route_121_duration_20250327_1920.2" vType="car" speedFactor="1.02" vaporized=""/>
    <tripinfo id="flow_route_121_duration_20250327_1920.5" depart="11.00" departLane="799091563#0_0" departPos="370.92" departSpeed="0.00" departDelay="0.29" arrival="36.00" arrivalLane="134194079#0_0" arrivalPos="114.98" arrivalSpeed="13.40" duration="25.00" routeLength="133.22" waitingTime="2.00" waitingCount="1" stopTime="0.00" timeLoss="15.55" rerouteNo="0" devices="tripinfo_flow_route_121_duration_20250327_1920.5" vType="car" speedFactor="1.10" vaporized=""/>
    <tripinfo id="flow_route_127_duration_20250327_1920.4" depart="9.00" departLane="-138000461_0" departPos="119.86" departSpeed="0.00" departDelay="1.73" arrival="37.00" arrivalLane="189240000#0-AddedOnRampEdge_0" arrivalPos="17.31" arrivalSpeed="10.54" duration="28.00" routeLength="156.57" waitingTime="0.00" waitingCount="0" stopTime="0.00" timeLoss="17.45" rerouteNo="0" devices="tripinfo_flow_route_127_duration_20250327_1920.4" vType="car" speedFactor="0.93" vaporized=""/>
    <tripinfo id="flow_route_116_duration_20250327_1920.0" depart="0.00" departLane="177211987#1_0" departPos="0.88" departSpeed="0.00" departDelay="0.00" arrival="38.00" arrivalLane="688883939#0_1" arrivalPos="93.94" arrivalSpeed="16.42" duration="38.00" routeLength="448.08" waitingTime="0.00" waitingCount="0" stopTime="0.00" timeLoss="10.63" rerouteNo="0" devices="tripinfo_flow_route_116_duration_20250327_1920.0" vType="car" speedFactor="1.06" vaporized=""/>
    <tripinfo id="flow_route_127_duration_20250327_1920.7" depart="14.00" departLane="-138000461_0" departPos="147.82" departSpeed="0.00" departDelay="1.27" arrival="40.00" arrivalLane="189240000#0-AddedOnRampEdge_0" arrivalPos="87.32" arrivalSpeed="15.01" duration="26.00" routeLength="198.61" waitingTime="0.00" waitingCount="0" stopTime="0.00" timeLoss="13.55" rerouteNo="0" devices="tripinfo_flow_route_127_duration_20250327_1920.7" vType="car" speedFactor="1.04" vaporized=""/>
    <tripinfo id="flow_route_127_duration_20250327_1920.0" depart="0.00" departLane="-138000461_0" departPos="55.90" departSpeed="0.00" departDelay="0.00" arrival="43.00" arrivalLane="189240000#0-AddedOnRampEdge_0" arrivalPos="70.17" arrivalSpeed="13.64" duration="43.00" routeLength="273.38" waitingTime="0.00" waitingCount="0" stopTime="0.00" timeLoss="26.08" rerouteNo="0" devices="tripinfo_flow_route_127_duration_20250327_1920.0" vType="car" speedFactor="1.05" vaporized=""/>
    <tripinfo id="flow_route_127_duration_20250327_1920.2" depart="4.00" departLane="-138000461_0" departPos="27.34" departSpeed="0.00" departDelay="0.36" arrival="43.00" arrivalLane="189240000#0-AddedOnRampEdge_0" arrivalPos="15.02" arrivalSpeed="9.44" duration="39.00" routeLength="246.79" waitingTime="0.00" waitingCount="0" stopTime="0.00" timeLoss="21.68" rerouteNo="0" devices="tripinfo_flow_route_127_duration_20250327_1920.2" vType="car" speedFactor="0.88" vaporized=""/>
    <tripinfo id="flow_route_121_duration_20250327_1920.1" depart="3.00" departLane="799091563#0_0" departPos="290.30" departSpeed="0.00" departDelay="0.86" arrival="44.00" arrivalLane="134194079#0_0" arrivalPos="160.58" arrivalSpeed="16.03" duration="41.00" routeLength="259.45" waitingTime="0.00" waitingCount="0" stopTime="0.00" timeLoss="23.20" rerouteNo="0" devices="tripinfo_flow_route_121_duration_20250327_1920.1" vType="car" speedFactor="0.99" vaporized=""/>
    <tripinfo id="flow_route_132_duration_20250327_1920.2" depart="4.00" departLane="714011134#0_0" departPos="72.20" departSpeed="0.00" departDelay="2.00" arrival="45.00" arrivalLane="189240000#0-AddedOnRampEdge_2" arrivalPos="88.65" arrivalSpeed="16.40" duration="41.00" routeLength="432.60" waitingTime="0.00" waitingCount="0" stopTime="0.00" timeLoss="14.94" rerouteNo="0" devices="tripinfo_flow_route_132_duration_20250327_1920.2" vType="car" speedFactor="1.05" vaporized=""/>
    <tripinfo id="flow_route_132_duration_20250327_1920.7" depart="8.00" departLane="714011134#0_0" departPos="97.81" departSpeed="0.00" departDelay="1.00" arrival="45.00" arrivalLane="189240000#0-AddedOnRampEdge_1" arrivalPos="90.63" arrivalSpeed="15.12" duration="37.00" routeLength="408.95" waitingTime="0.00" waitingCount="0" stopTime="0.00" timeLoss="9.79" rerouteNo="0" devices="tripinfo_flow_route_132_duration_20250327_1920.7" vType="car" speedFactor="0.92" vaporized=""/>
    <tripinfo id="flow_route_127_duration_20250327_1920.5" depart="11.00" departLane="-138000461_0" departPos="77.17" departSpeed="0.00" departDelay="1.91" arrival="45.00" arrivalLane="189240000#0-AddedOnRampEdge_0" arrivalPos="68.15" arrivalSpeed="13.62" duration="34.00" routeLength="250.09" waitingTime="0.00" waitingCount="0" stopTime="0.00" timeLoss="17.93" rerouteNo="0" devices="tripinfo_flow_route_127_duration_20250327_1920.5" vType="car" speedFactor="0.97" vaporized=""/>
    <tripinfo id="flow_route_132_duration_20250327_1920.3" depart="4.00" departLane="714011134#0_0" departPos="34.92" departSpeed="0.00" departDelay="1.00" arrival="46.00" arrivalLane="189240000#0-AddedOnRampEdge_1" arrivalPos="22.35" arrivalSpeed="14.30" duration="42.00" routeLength="403.57" waitingTime="0.00" waitingCount="0" stopTime="0.00" timeLoss="15.27" rerouteNo="0" devices="tripinfo_flow_route_132_duration_20250327_1920.3" vType="car" speedFactor="0.93" vaporized=""/>
    <tripinfo id="flow_route_132_duration_20250327_1920.5" depart="8.00" departLane="714011134#0_0" departPos="29.39" departSpeed="0.00" departDelay="3.00" arrival="46.00" arrivalLane="189240000#0-AddedOnRampEdge_2" arrivalPos="21.07" arrivalSpeed="16.18" duration="38.00" routeLength="407.82" waitingTime="0.00" waitingCount="0" stopTime="0.00" timeLoss="13.10" rerouteNo="0" devices="tripinfo_flow_route_132_duration_20250327_1920.5" vType="car" speedFactor="1.01" vaporized=""/>
    <tripinfo id="flow_route_132_duration_20250327_1920.6" depart="8.00" departLane="714011134#0_0" departPos="57.62" departSpeed="0.00" departDelay="2.00" arrival="47.00" arrivalLane="189240000#0-AddedOnRampEdge_1" arrivalPos="63.08" arrivalSpeed="14.37" duration="39.00" routeLength="421.59" waitingTime="0.00" waitingCount="0" stopTime="0.00" timeLoss="10.12" rerouteNo="0" devices="tripinfo_flow_route_132_duration_20250327_1920.6" vType="car" speedFactor="0.89" vaporized=""/>
    <tripinfo id="flow_route_121_duration_20250327_1920.8" depart="20.00" departLane="799091563#0_0" departPos="345.22" departSpeed="0.00" departDelay="2.86" arrival="47.00" arrivalLane="134194079#0_0" arrivalPos="174.85" arrivalSpeed="16.30" duration="27.00" routeLength="218.79" waitingTime="0.00" waitingCount="0" stopTime="0.00" timeLoss="12.39" rerouteNo="0" devices="tripinfo_flow_route_121_duration_20250327_1920.8" vType="car" speedFactor="1.08" vaporized=""/>
    <tripinfo id="flow_route_132_duration_20250327_1920.1" depart="4.00" departLane="714011134#0_0" departPos="3.14" departSpeed="0.00" departDelay="3.00" arrival="50.00" arrivalLane="189240000#0-AddedOnRampEdge_1" arrivalPos="64.54" arrivalSpeed="16.59" duration="46.00" routeLength="477.54" waitingTime="0.00" waitingCount="0" stopTime="0.00" timeLoss="16.92" rerouteNo="0" devices="tripinfo_flow_route_132_duration_20250327_1920.1" vType="car" speedFactor="1.09" vaporized=""/>
    <tripinfo id="flow_route_127_duration_20250327_1920.9" depart="19.00" departLane="-138000461_0" departPos="73.08" departSpeed="0.00" departDelay="2.64" arrival="50.00" arrivalLane="189240000#0-AddedOnRampEdge_0" arrivalPos="32.53" arrivalSpeed="11.95" duration="31.00" routeLength="218.55" waitingTime="0.00" waitingCount="0" stopTime="0.00" timeLoss="16.66" rerouteNo="0" devices="tripinfo_flow_route_127_duration_20250327_1920.9" vType="car" speedFactor="1.14" vaporized=""/>
    <tripinfo id="flow_route_126_duration_20250327_1920.0" depart="0.00" departLane="-138000461_0" departPos="119.67" departSpeed="0.00" departDelay="0.00" arrival="52.00" arrivalLane="138000492#0_1" arrivalPos="18.35" arrivalSpeed="13.70" duration="52.00" routeLength="582.25" waitingTime="0.00" waitingCount="0" stopTime="0.00" timeLoss="9.26" rerouteNo="0" devices="tripinfo_flow_route_126_duration_20250327_1920.0" vType="car" speedFactor="0.83" vaporized=""/>
    <tripinfo id="flow_route_127_duration_20250327_1920.10" depart="22.00" departLane="-138000461_0" departPos="94.37" departSpeed="0.00" departDelay="3.82" arrival="52.00" arrivalLane="189240000#0-AddedOnRampEdge_0" arrivalPos="83.76" arrivalSpeed="14.87" duration="30.00" routeLength="248.51" waitingTime="0.00" waitingCount="0" stopTime="0.00" timeLoss="13.53" rerouteNo="0" devices="tripinfo_flow_route_127_duration_20250327_1920.10" vType="car" speedFactor="0.99" vaporized=""/>
    <tripinfo id="flow_route_121_duration_20250327_1920.7" depart="18.00" departLane="799091563#0_0" departPos="311.79" departSpeed="0.00" departDelay="3.01" arrival="53.00" arrivalLane="134194079#0_0" arrivalPos="195.25" arrivalSpeed="13.89" duration="35.00" routeLength="272.62" waitingTime="0.00" waitingCount="0" stopTime="0.00" timeLoss="14.21" rerouteNo="0" devices="tripinfo_flow_route_121_duration_20250327_1920.7" vType="car" speedFactor="0.85" vaporized=""/>
    <tripinfo id="flow_route_132_duration_20250327_1920.4" depart="8.00" departLane="714011134#0_0" departPos="2.93" departSpeed="0.00" departDelay="4.00" arrival="54.00" arrivalLane="189240000#0-AddedOnRampEdge_1" arrivalPos="90.31" arrivalSpeed="15.59" duration="46.00" routeLength="503.52" waitingTime="0.00" waitingCount="0" stopTime="0.00" timeLoss="13.65" rerouteNo="0" devices="tripinfo_flow_route_132_duration_20250327_1920.4" vType="car" speedFactor="0.94" vaporized=""/>
    <tripinfo id="flow_route_132_duration_20250327_1920.8" depart="15.00" departLane="714011134#0_0" departPos="14.88" departSpeed="0.00" departDelay="7.00" arrival="54.00" arrivalLane="189240000#0-AddedOnRampEdge_1" arrivalPos="60.58" arrivalSpeed="15.92" duration="39.00" routeLength="461.84" waitingTime="0.00" waitingCount="0" stopTime="0.00" timeLoss="10.62" rerouteNo="0" devices="tripinfo_flow_route_132_duration_20250327_1920.8" vType="car" speedFactor="1.18" vaporized=""/>
    <tripinfo id="flow_route_127_duration_20250327_1920.6" depart="11.00" departLane="-138000461_0" departPos="5.04" departSpeed="0.00" departDelay="0.09" arrival="54.00" arrivalLane="189240000#0-AddedOnRampEdge_0" arrivalPos="48.42" arrivalSpeed="12.89" duration="43.00" routeLength="302.49" waitingTime="0.00" waitingCount="0" stopTime="0.00" timeLoss="21.98" rerouteNo="0" devices="tripinfo_flow_route_127_duration_20250327_1920.6" vType="car" speedFactor="0.90" vaporized=""/>
    <tripinfo id="flow_route_117_duration_20250327_1920.2" depart="5.00" departLane="177211987#1_0" departPos="83.67" departSpeed="0.00" departDelay="0.00" arrival="58.00" arrivalLane="138000492#0_1" arrivalPos="173.11" arrivalSpeed="15.21" duration="53.00" routeLength="589.70" waitingTime="0.00" waitingCount="0" stopTime="0.00" timeLoss="14.56" rerouteNo="0" devices="tripinfo_flow_route_117_duration_20250327_1920.2" vType="car" speedFactor="0.94" vaporized=""/>
    <tripinfo id="flow_route_133_duration_20250327_1920.0" depart="0.00" departLane="714011134#0_0" departPos="33.93" departSpeed="0.00" departDelay="0.00" arrival="59.00" arrivalLane="138000492#0_0" arrivalPos="313.58" arrivalSpeed="14.27" duration="59.00" routeLength="604.48" waitingTime="0.00" waitingCount="0" stopTime="0.00" timeLoss="15.58" rerouteNo="0" devices="tripinfo_flow_route_133_duration_20250327_1920.0" vType="car" speedFactor="0.86" vaporized=""/>
    <tripinfo id="flow_route_121_duration_20250327_1920.9" depart="22.00" departLane="799091563#0_0" departPos="274.59" departSpeed="0.00" departDelay="2.72" arrival="59.00" arrivalLane="134194079#0_0" arrivalPos="194.31" arrivalSpeed="15.16" duration="37.00" routeLength="308.88" waitingTime="0.00" waitingCount="0" stopTime="0.00" timeLoss="15.24" rerouteNo="0" devices="tripinfo_flow_route_121_duration_20250327_1920.9" vType="car" speedFactor="0.91" vaporized=""/>
    <tripinfo id="flow_route_121_duration_20250327_1920.6" depart="17.00" departLane="799091563#0_0" departPos="223.69" departSpeed="0.00" departDelay="4.15" arrival="60.00" arrivalLane="134194079#0_0" arrivalPos="184.46" arrivalSpeed="15.42" duration="43.00" routeLength="349.93" waitingTime="0.00" waitingCount="0" stopTime="0.00" timeLoss="20.57" rerouteNo="0" devices="tripinfo_flow_route_121_duration_20250327_1920.6" vType="car" speedFactor="1.04" vaporized=""/>
    <tripinfo id="flow_route_121_duration_20250327_1920.3" depart="7.00" departLane="799091563#0_0" departPos="220.26" departSpeed="0.00" departDelay="0.57" arrival="61.00" arrivalLane="134194079#0_0" arrivalPos="275.86" arrivalSpeed="14.22" duration="54.00" routeLength="444.76" waitingTime="0.00" waitingCount="0" stopTime="0.00" timeLoss="21.67" rerouteNo="0" devices="tripinfo_flow_route_121_duration_20250327_1920.3" vType="car" speedFactor="0.87" vaporized=""/>
    <tripinfo id="flow_route_117_duration_20250327_1920.0" depart="0.00" departLane="177211987#1_0" departPos="98.51" departSpeed="0.00" departDelay="0.00" arrival="62.00" arrivalLane="138000492#0_0" arrivalPos="299.85" arrivalSpeed="15.19" duration="62.00" routeLength="701.60" waitingTime="0.00" waitingCount="0" stopTime="0.00" timeLoss="16.48" rerouteNo="0" devices="tripinfo_flow_route_117_duration_20250327_1920.0" vType="car" speedFactor="0.94" vaporized=""/>
    <tripinfo id="flow_route_127_duration_20250327_1920.22" depart="44.00" departLane="-138000461_0" departPos="200.90" departSpeed="0.00" departDelay="4.00" arrival="62.00" arrivalLane="189240000#0-AddedOnRampEdge_0" arrivalPos="64.11" arrivalSpeed="13.48" duration="18.00" routeLength="122.32" waitingTime="0.00" waitingCount="0" stopTime="0.00" timeLoss="9.86" rerouteNo="0" devices="tripinfo_flow_route_127_duration_20250327_1920.22" vType="car" speedFactor="1.03" vaporized=""/>
    <tripinfo id="flow_route_133_duration_20250327_1920.1" depart="18.00" departLane="714011134#0_0" departPos="10.84" departSpeed="0.00" departDelay="10.50" arrival="63.00" arrivalLane="138000492#0_1" arrivalPos="63.90" arrivalSpeed="13.17" duration="45.00" routeLength="377.89" waitingTime="0.00" waitingCount="0" stopTime="0.00" timeLoss="21.48" rerouteNo="0" devices="tripinfo_flow_route_133_duration_20250327_1920.1" vType="car" speedFactor="1.15" vaporized=""/>
    <tripinfo id="flow_route_127_duration_20250327_1920.24" depart="49.00" departLane="-138000461_0" departPos="194.89" departSpeed="0.00" departDelay="5.37" arrival="65.00" arrivalLane="189240000#0-AddedOnRampEdge_0" arrivalPos="31.07" arrivalSpeed="10.95" duration="16.00" routeLength="95.29" waitingTime="0.00" waitingCount="0" stopTime="0.00" timeLoss="9.68" rerouteNo="0" devices="tripinfo_flow_route_127_duration_20250327_1920.24" vType="car" speedFactor="1.11" vaporized=""/>
    <tripinfo id="flow_route_132_duration_20250327_1920.14" depart="33.00" departLane="714011134#0_0" departPos="104.82" departSpeed="0.00" departDelay="19.00" arrival="66.00" arrivalLane="189240000#0-AddedOnRampEdge_1" arrivalPos="27.98" arrivalSpeed="14.44" duration="33.00" routeLength="339.30" waitingTime="0.00" waitingCount="0" stopTime="0.00" timeLoss="9.54" rerouteNo="0" devices="tripinfo_flow_route_132_duration_20250327_1920.14" vType="car" speedFactor="0.88" vaporized=""/>
    <tripinfo id="flow_route_132_duration_20250327_1920.15" depart="33.00" departLane="714011134#0_0" departPos="94.18" departSpeed="0.00" departDelay="18.00" arrival="66.00" arrivalLane="189240000#0-AddedOnRampEdge_2" arrivalPos="11.73" arrivalSpeed="16.32" duration="33.00" routeLength="333.70" waitingTime="0.00" waitingCount="0" stopTime="0.00" timeLoss="12.11" rerouteNo="0" devices="tripinfo_flow_route_132_duration_20250327_1920.15" vType="car" speedFactor="1.00" vaporized=""/>
    <tripinfo id="flow_route_122_duration_20250327_1920.0" depart="1.00" departLane="799091563#0_0" departPos="194.78" departSpeed="0.00" departDelay="1.00" arrival="68.00" arrivalLane="688883939#0_2" arrivalPos="62.20" arrivalSpeed="13.88" duration="67.00" routeLength="306.06" waitingTime="26.00" waitingCount="1" stopTime="0.00" timeLoss="47.98" rerouteNo="0" devices="tripinfo_flow_route_122_duration_20250327_1920.0" vType="car" speedFactor="1.03" vaporized=""/>
    <tripinfo id="flow_route_132_duration_20250327_1920.13" depart="31.00" departLane="714011134#0_0" departPos="83.78" departSpeed="0.00" departDelay="18.00" arrival="69.00" arrivalLane="189240000#0-AddedOnRampEdge_1" arrivalPos="46.51" arrivalSpeed="16.25" duration="38.00" routeLength="378.87" waitingTime="0.00" waitingCount="0" stopTime="0.00" timeLoss="15.15" rerouteNo="0" devices="tripinfo_flow_route_132_duration_20250327_1920.13" vType="car" speedFactor="1.09" vaporized=""/>
    <tripinfo id="flow_route_132_duration_20250327_1920.9" depart="22.00" departLane="714011134#0_0" departPos="21.87" departSpeed="0.00" departDelay="13.00" arrival="70.00" arrivalLane="189240000#0-AddedOnRampEdge_1" arrivalPos="8.12" arrivalSpeed="16.39" duration="48.00" routeLength="402.39" waitingTime="0.00" waitingCount="0" stopTime="0.00" timeLoss="23.62" rerouteNo="0" devices="tripinfo_flow_route_132_duration_20250327_1920.9" vType="car" speedFactor="1.17" vaporized=""/>
    <tripinfo id="flow_route_122_duration_20250327_1920.4" depart="38.00" departLane="799091563#0_0" departPos="324.78" departSpeed="0.00" departDelay="8.00" arrival="70.00" arrivalLane="688883939#0_2" arrivalPos="38.54" arrivalSpeed="13.27" duration="32.00" routeLength="152.40" waitingTime="2.00" waitingCount="1" stopTime="0.00" timeLoss="21.53" rerouteNo="0" devices="tripinfo_flow_route_122_duration_20250327_1920.4" vType="car" speedFactor="0.91" vaporized=""/>
    <tripinfo id="flow_route_122_duration_20250327_1920.1" depart="8.00" departLane="799091563#0_0" departPos="67.96" departSpeed="0.00" departDelay="0.50" arrival="72.00" arrivalLane="688883939#0_2" arrivalPos="100.68" arrivalSpeed="16.34" duration="64.00" routeLength="471.35" waitingTime="13.00" waitingCount="1" stopTime="0.00" timeLoss="35.05" rerouteNo="0" devices="tripinfo_flow_route_122_duration_20250327_1920.1" vType="car" speedFactor="1.13" vaporized=""/>
    <tripinfo id="flow_route_122_duration_20250327_1920.3" depart="25.00" departLane="799091563#0_0" departPos="32.12" departSpeed="0.00" departDelay="2.50" arrival="72.00" arrivalLane="688883939#0_2" arrivalPos="16.62" arrivalSpeed="12.87" duration="47.00" routeLength="423.14" waitingTime="0.00" waitingCount="0" stopTime="0.00" timeLoss="20.76" rerouteNo="0" devices="tripinfo_flow_route_122_duration_20250327_1920.3" vType="car" speedFactor="0.98" vaporized=""/>
    <tripinfo id="flow_route_127_duration_20250327_1920.20" depart="44.00" departLane="-138000461_0" departPos="171.60" departSpeed="0.00" departDelay="7.64" arrival="72.00" arrivalLane="189240000#0-AddedOnRampEdge_0" arrivalPos="85.68" arrivalSpeed="15.52" duration="28.00" routeLength="173.19" waitingTime="0.00" waitingCount="0" stopTime="0.00" timeLoss="16.36" rerouteNo="0" devices="tripinfo_flow_route_127_duration_20250327_1920.20" vType="car" speedFactor="1.07" vaporized=""/>
    <tripinfo id="flow_route_132_duration_20250327_1920.11" depart="26.00" departLane="714011134#0_0" departPos="48.03" departSpeed="0.00" departDelay="15.00" arrival="73.00" arrivalLane="189240000#0-AddedOnRampEdge_1" arrivalPos="77.94" arrivalSpeed="16.18" duration="47.00" routeLength="446.05" waitingTime="0.00" waitingCount="0" stopTime="0.00" timeLoss="19.69" rerouteNo="0" devices="tripinfo_flow_route_132_duration_20250327_1920.11" vType="car" speedFactor="1.03" vaporized=""/>
    <tripinfo id="flow_route_127_duration_20250327_1920.19" depart="44.00" departLane="-138000461_0" departPos="160.89" departSpeed="0.00" departDelay="9.46" arrival="73.00" arrivalLane="189240000#0-AddedOnRampEdge_0" arrivalPos="79.61" arrivalSpeed="14.77" duration="29.00" routeLength="177.83" waitingTime="0.00" waitingCount="0" stopTime="0.00" timeLoss="17.39" rerouteNo="0" devices="tripinfo_flow_route_127_duration_20250327_1920.19" vType="car" speedFactor="1.10" vaporized=""/>
    <tripinfo id="flow_route_122_duration_20250327_1920.2" depart="19.00" departLane="799091563#0_0" departPos="63.60" departSpeed="0.00" departDelay="4.00" arrival="75.00" arrivalLane="688883939#0_2" arrivalPos="82.34" arrivalSpeed="15.13" duration="56.00" routeLength="457.38" waitingTime="1.00" waitingCount="1" stopTime="0.00" timeLoss="27.96" rerouteNo="0" devices="tripinfo_flow_route_122_duration_20250327_1920.2" vType="car" speedFactor="1.17" vaporized=""/>
    <tripinfo id="flow_route_126_duration_20250327_1920.1" depart="16.00" departLane="-138000461_0" departPos="32.45" departSpeed="0.00" departDelay="1.00" arrival="75.00" arrivalLane="138000492#0_1" arrivalPos="118.34" arrivalSpeed="16.52" duration="59.00" routeLength="769.46" waitingTime="0.00" waitingCount="0" stopTime="0.00" timeLoss="12.41" rerouteNo="0" devices="tripinfo_flow_route_126_duration_20250327_1920.1" vType="car" speedFactor="1.02" vaporized=""/>
    <tripinfo id="flow_route_127_duration_20250327_1920.14" depart="32.00" departLane="-138000461_0" departPos="81.35" departSpeed="0.00" departDelay="6.55" arrival="75.00" arrivalLane="189240000#0-AddedOnRampEdge_0" arrivalPos="69.96" arrivalSpeed="13.32" duration="43.00" routeLength="247.72" waitingTime="0.00" waitingCount="0" stopTime="0.00" timeLoss="26.61" rerouteNo="0" devices="tripinfo_flow_route_127_duration_20250327_1920.14" vType="car" speedFactor="0.98" vaporized=""/>
    <tripinfo id="flow_route_127_duration_20250327_1920.15" depart="32.00" departLane="-138000461_0" departPos="72.14" departSpeed="0.00" departDelay="4.73" arrival="76.00" arrivalLane="189240000#0-AddedOnRampEdge_0" arrivalPos="51.52" arrivalSpeed="11.69" duration="44.00" routeLength="238.49" waitingTime="0.00" waitingCount="0" stopTime="0.00" timeLoss="26.69" rerouteNo="0" devices="tripinfo_flow_route_127_duration_20250327_1920.15" vType="car" speedFactor="0.83" vaporized=""/>
    <tripinfo id="flow_route_121_duration_20250327_1920.15" depart="41.00" departLane="799091563#0_0" departPos="342.01" departSpeed="0.00" departDelay="8.87" arrival="78.00" arrivalLane="134194079#0_0" arrivalPos="94.13" arrivalSpeed="12.75" duration="37.00" routeLength="141.29" waitingTime="4.00" waitingCount="1" stopTime="0.00" timeLoss="27.36" rerouteNo="0" devices="tripinfo_flow_route_121_duration_20250327_1920.15" vType="car" speedFactor="1.03" vaporized=""/>
    <tripinfo id="flow_route_127_duration_20250327_1920.13" depart="30.00" departLane="-138000461_0" departPos="6.66" departSpeed="0.00" departDelay="6.37" arrival="79.00" arrivalLane="189240000#0-AddedOnRampEdge_0" arrivalPos="23.65" arrivalSpeed="10.97" duration="49.00" routeLength="276.10" waitingTime="0.00" waitingCount="0" stopTime="0.00" timeLoss="31.84" rerouteNo="0" devices="tripinfo_flow_route_127_duration_20250327_1920.13" vType="car" speedFactor="1.03" vaporized=""/>
    <tripinfo id="flow_route_127_duration_20250327_1920.12" depart="28.00" departLane="-138000461_0" departPos="46.90" departSpeed="0.00" departDelay="6.18" arrival="80.00" arrivalLane="189240000#0-AddedOnRampEdge_0" arrivalPos="79.65" arrivalSpeed="13.70" duration="52.00" routeLength="291.86" waitingTime="0.00" waitingCount="0" stopTime="0.00" timeLoss="32.81" rerouteNo="0" devices="tripinfo_flow_route_127_duration_20250327_1920.12" vType="car" speedFactor="0.94" vaporized=""/>
    <tripinfo id="flow_route_126_duration_20250327_1920.2" depart="34.00" departLane="-138000461_0" departPos="99.00" departSpeed="0.00" departDelay="4.00" arrival="81.00" arrivalLane="138000492#0_1" arrivalPos="5.60" arrivalSpeed="16.30" duration="47.00" routeLength="590.16" waitingTime="0.00" waitingCount="0" stopTime="0.00" timeLoss="11.13" rerouteNo="0" devices="tripinfo_flow_route_126_duration_20250327_1920.2" vType="car" speedFactor="1.12" vaporized=""/>
    <tripinfo id="flow_route_127_duration_20250327_1920.16" depart="40.00" departLane="-138000461_0" departPos="31.59" departSpeed="0.00" departDelay="10.91" arrival="81.00" arrivalLane="189240000#0-AddedOnRampEdge_0" arrivalPos="19.99" arrivalSpeed="11.74" duration="41.00" routeLength="247.51" waitingTime="0.00" waitingCount="0" stopTime="0.00" timeLoss="24.84" rerouteNo="0" devices="tripinfo_flow_route_127_duration_20250327_1920.16" vType="car" speedFactor="1.10" vaporized=""/>
    <tripinfo id="flow_route_127_duration_20250327_1920.11" depart="23.00" departLane="-138000461_0" departPos="20.65" departSpeed="0.00" departDelay="3.00" arrival="82.00" arrivalLane="189240000#0-AddedOnRampEdge_0" arrivalPos="86.73" arrivalSpeed="14.56" duration="59.00" routeLength="325.19" waitingTime="0.00" waitingCount="0" stopTime="0.00" timeLoss="38.83" rerouteNo="0" devices="tripinfo_flow_route_127_duration_20250327_1920.11" vType="car" speedFactor="1.04" vaporized=""/>
    <tripinfo id="flow_route_121_duration_20250327_1920.4" depart="10.00" departLane="799091563#0_0" departPos="80.64" departSpeed="0.00" departDelay="1.43" arrival="84.00" arrivalLane="134194079#0_0" arrivalPos="100.02" arrivalSpeed="13.71" duration="74.00" routeLength="408.54" waitingTime="4.00" waitingCount="1" stopTime="0.00" timeLoss="47.53" rerouteNo="0" devices="tripinfo_flow_route_121_duration_20250327_1920.4" vType="car" speedFactor="1.01" vaporized=""/>
    <tripinfo id="flow_route_121_duration_20250327_1920.17" depart="42.00" departLane="799091563#0_0" departPos="368.64" departSpeed="0.00" departDelay="5.59" arrival="85.00" arrivalLane="134194079#0_0" arrivalPos="287.48" arrivalSpeed="16.19" duration="43.00" routeLength="308.00" waitingTime="6.00" waitingCount="1" stopTime="0.00" timeLoss="22.80" rerouteNo="0" devices="tripinfo_flow_route_121_duration_20250327_1920.17" vType="car" speedFactor="0.99" vaporized=""/>
    <tripinfo id="flow_route_127_duration_20250327_1920.23" depart="46.00" departLane="-138000461_0" departPos="54.75" departSpeed="0.00" departDelay="4.19" arrival="85.00" arrivalLane="189240000#0-AddedOnRampEdge_0" arrivalPos="50.09" arrivalSpeed="12.43" duration="39.00" routeLength="254.44" waitingTime="0.00" waitingCount="0" stopTime="0.00" timeLoss="22.72" rerouteNo="0" devices="tripinfo_flow_route_127_duration_20250327_1920.23" vType="car" speedFactor="1.01" vaporized=""/>