<?xml version="1.0" encoding="UTF-8"?>

<!-- generated on 2025-05-06 21:08:13 by Eclipse SUMO sumo Version 1.20.0
<configuration xmlns:xsi="http://www.w3.org/2001/XMLSchema-instance" xsi:noNamespaceSchemaLocation="http://sumo.dlr.de/xsd/sumoConfiguration.xsd">

    <input>
        <net-file value="osm.net.xml"/>
        <route-files value="xml/route_rl_cluster3828547534_cluster_1507433914_2954854770_2954854771_2954854772_#9more_3.rou.xml"/>
    </input>

    <output>
        <tripinfo-output value="xml/tripinfo_rl_cluster3828547534_cluster_1507433914_2954854770_2954854771_2954854772_#9more_3.xml"/>
    </output>

    <traci_server>
        <remote-port value="37079"/>
    </traci_server>

</configuration>
-->

<tripinfos xmlns:xsi="http://www.w3.org/2001/XMLSchema-instance" xsi:noNamespaceSchemaLocation="http://sumo.dlr.de/xsd/tripinfo_file.xsd">
    <tripinfo id="flow_route_6_duration_20250327_2000.0" depart="0.00" departLane="1252820505#0_0" departPos="39.30" departSpeed="0.00" departDelay="0.00" arrival="18.00" arrivalLane="379698350#0_0" arrivalPos="9.38" arrivalSpeed="14.27" duration="18.00" routeLength="129.45" waitingTime="0.00" waitingCount="0" stopTime="0.00" timeLoss="9.79" rerouteNo="0" devices="tripinfo_flow_route_6_duration_20250327_2000.0" vType="car" speedFactor="1.01" vaporized=""/>
    <tripinfo id="flow_route_11_duration_20250327_2000.0" depart="0.00" departLane="1252820505#0_0" departPos="76.11" departSpeed="0.00" departDelay="0.00" arrival="21.00" arrivalLane="137406408#0_2" arrivalPos="68.60" arrivalSpeed="14.85" duration="21.00" routeLength="154.08" waitingTime="0.00" waitingCount="0" stopTime="0.00" timeLoss="11.20" rerouteNo="0" devices="tripinfo_flow_route_11_duration_20250327_2000.0" vType="car" speedFactor="1.05" vaporized=""/>
    <tripinfo id="flow_route_24_duration_20250327_2000.0" depart="4.00" departLane="137415945#0_0" departPos="6.93" departSpeed="0.00" departDelay="4.00" arrival="24.00" arrivalLane="137406408#0_0" arrivalPos="0.56" arrivalSpeed="15.42" duration="20.00" routeLength="162.63" waitingTime="0.00" waitingCount="0" stopTime="0.00" timeLoss="10.08" rerouteNo="0" devices="tripinfo_flow_route_24_duration_20250327_2000.0" vType="car" speedFactor="1.09" vaporized=""/>
    <tripinfo id="flow_route_22_duration_20250327_2000.0" depart="0.00" departLane="137415945#0_0" departPos="8.70" departSpeed="0.00" departDelay="0.00" arrival="25.00" arrivalLane="1342054204_0" arrivalPos="47.56" arrivalSpeed="15.23" duration="25.00" routeLength="232.19" waitingTime="0.00" waitingCount="0" stopTime="0.00" timeLoss="9.42" rerouteNo="0" devices="tripinfo_flow_route_22_duration_20250327_2000.0" vType="car" speedFactor="0.94" vaporized=""/>
    <tripinfo id="flow_route_10_duration_20250327_2000.0" depart="0.00" departLane="1252820505#0_0" departPos="5.24" departSpeed="0.00" departDelay="0.00" arrival="28.00" arrivalLane="1235147073.116_0" arrivalPos="0.67" arrivalSpeed="13.39" duration="28.00" routeLength="263.17" waitingTime="0.00" waitingCount="0" stopTime="0.00" timeLoss="8.28" rerouteNo="0" devices="tripinfo_flow_route_10_duration_20250327_2000.0" vType="car" speedFactor="0.83" vaporized=""/>
    <tripinfo id="flow_route_22_duration_20250327_2000.1" depart="9.00" departLane="137415945#0_0" departPos="3.36" departSpeed="0.00" departDelay="7.13" arrival="35.00" arrivalLane="1342054204_0" arrivalPos="55.26" arrivalSpeed="16.42" duration="26.00" routeLength="245.23" waitingTime="0.00" waitingCount="0" stopTime="0.00" timeLoss="11.04" rerouteNo="0" devices="tripinfo_flow_route_22_duration_20250327_2000.1" vType="car" speedFactor="1.03" vaporized=""/>
    <tripinfo id="flow_route_10_duration_20250327_2000.1" depart="14.00" departLane="1252820505#0_0" departPos="80.67" departSpeed="0.00" departDelay="2.00" arrival="37.00" arrivalLane="1235147073.116_0" arrivalPos="14.32" arrivalSpeed="14.13" duration="23.00" routeLength="201.38" waitingTime="0.00" waitingCount="0" stopTime="0.00" timeLoss="8.80" rerouteNo="0" devices="tripinfo_flow_route_10_duration_20250327_2000.1" vType="car" speedFactor="0.87" vaporized=""/>
    <tripinfo id="flow_route_22_duration_20250327_2000.2" depart="13.00" departLane="137415945#0_0" departPos="2.33" departSpeed="0.00" departDelay="9.25" arrival="41.00" arrivalLane="1342054204_0" arrivalPos="77.43" arrivalSpeed="16.10" duration="28.00" routeLength="268.42" waitingTime="0.00" waitingCount="0" stopTime="0.00" timeLoss="11.33" rerouteNo="0" devices="tripinfo_flow_route_22_duration_20250327_2000.2" vType="car" speedFactor="1.05" vaporized=""/>
    <tripinfo id="flow_route_6_duration_20250327_2000.1" depart="12.00" departLane="1252820505#0_0" departPos="14.64" departSpeed="0.00" departDelay="0.00" arrival="43.00" arrivalLane="379698350#0_0" arrivalPos="142.64" arrivalSpeed="13.33" duration="31.00" routeLength="287.37" waitingTime="0.00" waitingCount="0" stopTime="0.00" timeLoss="9.71" rerouteNo="0" devices="tripinfo_flow_route_6_duration_20250327_2000.1" vType="car" speedFactor="0.83" vaporized=""/>
    <tripinfo id="flow_route_8_duration_20250327_2000.0" depart="0.00" departLane="133000078#0_0" departPos="54.62" departSpeed="0.00" departDelay="0.00" arrival="44.00" arrivalLane="1235147073.116_0" arrivalPos="9.03" arrivalSpeed="15.49" duration="44.00" routeLength="314.60" waitingTime="2.00" waitingCount="1" stopTime="0.00" timeLoss="24.29" rerouteNo="0" devices="tripinfo_flow_route_8_duration_20250327_2000.0" vType="car" speedFactor="1.03" vaporized=""/>
    <tripinfo id="flow_route_8_duration_20250327_2000.1" depart="5.00" departLane="133000078#0_0" departPos="32.85" departSpeed="0.00" departDelay="0.39" arrival="46.00" arrivalLane="1235147073.116_0" arrivalPos="0.50" arrivalSpeed="16.50" duration="41.00" routeLength="327.82" waitingTime="0.00" waitingCount="0" stopTime="0.00" timeLoss="19.60" rerouteNo="0" devices="tripinfo_flow_route_8_duration_20250327_2000.1" vType="car" speedFactor="0.99" vaporized=""/>
    <tripinfo id="flow_route_10_duration_20250327_2000.2" depart="25.00" departLane="1252820505#0_0" departPos="60.80" departSpeed="0.00" departDelay="1.00" arrival="49.00" arrivalLane="1235147073.116_0" arrivalPos="6.51" arrivalSpeed="16.44" duration="24.00" routeLength="213.45" waitingTime="0.00" waitingCount="0" stopTime="0.00" timeLoss="10.26" rerouteNo="0" devices="tripinfo_flow_route_10_duration_20250327_2000.2" vType="car" speedFactor="1.00" vaporized=""/>
    <tripinfo id="flow_route_11_duration_20250327_2000.1" depart="32.00" departLane="1252820505#0_0" departPos="71.37" departSpeed="0.00" departDelay="2.00" arrival="52.00" arrivalLane="137406408#0_2" arrivalPos="36.06" arrivalSpeed="12.21" duration="20.00" routeLength="126.27" waitingTime="0.00" waitingCount="0" stopTime="0.00" timeLoss="11.78" rerouteNo="0" devices="tripinfo_flow_route_11_duration_20250327_2000.1" vType="car" speedFactor="1.00" vaporized=""/>
    <tripinfo id="flow_route_6_duration_20250327_2000.2" depart="25.00" departLane="1252820505#0_0" departPos="29.80" departSpeed="0.00" departDelay="1.00" arrival="56.00" arrivalLane="379698350#0_0" arrivalPos="190.75" arrivalSpeed="16.52" duration="31.00" routeLength="320.32" waitingTime="0.00" waitingCount="0" stopTime="0.00" timeLoss="11.21" rerouteNo="0" devices="tripinfo_flow_route_6_duration_20250327_2000.2" vType="car" speedFactor="1.04" vaporized=""/>
    <tripinfo id="flow_route_8_duration_20250327_2000.7" depart="33.00" departLane="133000078#0_0" departPos="202.55" departSpeed="0.00" departDelay="0.70" arrival="59.00" arrivalLane="1235147073.116_0" arrivalPos="8.41" arrivalSpeed="15.25" duration="26.00" routeLength="166.04" waitingTime="1.00" waitingCount="1" stopTime="0.00" timeLoss="15.29" rerouteNo="0" devices="tripinfo_flow_route_8_duration_20250327_2000.7" vType="car" speedFactor="1.08" vaporized=""/>
    <tripinfo id="flow_route_6_duration_20250327_2000.3" depart="37.00" departLane="1252820505#0_0" departPos="34.20" departSpeed="0.00" departDelay="1.00" arrival="60.00" arrivalLane="379698350#0_0" arrivalPos="69.89" arrivalSpeed="14.39" duration="23.00" routeLength="195.06" waitingTime="0.00" waitingCount="0" stopTime="0.00" timeLoss="9.20" rerouteNo="0" devices="tripinfo_flow_route_6_duration_20250327_2000.3" vType="car" speedFactor="0.88" vaporized=""/>
    <tripinfo id="flow_route_8_duration_20250327_2000.5" depart="24.00" departLane="133000078#0_0" departPos="118.45" departSpeed="0.00" departDelay="0.93" arrival="61.00" arrivalLane="1235147073.116_0" arrivalPos="7.54" arrivalSpeed="14.97" duration="37.00" routeLength="249.28" waitingTime="0.00" waitingCount="0" stopTime="0.00" timeLoss="21.09" rerouteNo="0" devices="tripinfo_flow_route_8_duration_20250327_2000.5" vType="car" speedFactor="1.09" vaporized=""/>
    <tripinfo id="flow_route_8_duration_20250327_2000.4" depart="19.00" departLane="133000078#0_0" departPos="87.39" departSpeed="0.00" departDelay="0.54" arrival="63.00" arrivalLane="1235147073.116_0" arrivalPos="5.39" arrivalSpeed="16.01" duration="44.00" routeLength="278.18" waitingTime="0.00" waitingCount="0" stopTime="0.00" timeLoss="25.53" rerouteNo="0" devices="tripinfo_flow_route_8_duration_20250327_2000.4" vType="car" speedFactor="1.02" vaporized=""/>
    <tripinfo id="flow_route_8_duration_20250327_2000.2" depart="10.00" departLane="133000078#0_0" departPos="18.38" departSpeed="0.00" departDelay="0.77" arrival="64.00" arrivalLane="1235147073.116_0" arrivalPos="2.57" arrivalSpeed="15.37" duration="54.00" routeLength="344.37" waitingTime="0.00" waitingCount="0" stopTime="0.00" timeLoss="32.08" rerouteNo="0" devices="tripinfo_flow_route_8_duration_20250327_2000.2" vType="car" speedFactor="1.02" vaporized=""/>
    <tripinfo id="flow_route_8_duration_20250327_2000.3" depart="14.00" departLane="133000078#0_0" departPos="13.83" departSpeed="0.00" departDelay="0.16" arrival="66.00" arrivalLane="1235147073.116_0" arrivalPos="0.43" arrivalSpeed="16.27" duration="52.00" routeLength="346.78" waitingTime="0.00" waitingCount="0" stopTime="0.00" timeLoss="29.62" rerouteNo="0" devices="tripinfo_flow_route_8_duration_20250327_2000.3" vType="car" speedFactor="1.13" vaporized=""/>
    <tripinfo id="flow_route_10_duration_20250327_2000.3" depart="39.00" departLane="1252820505#0_0" departPos="13.33" departSpeed="0.00" departDelay="3.00" arrival="67.00" arrivalLane="1235147073.116_0" arrivalPos="0.01" arrivalSpeed="14.88" duration="28.00" routeLength="254.42" waitingTime="0.00" waitingCount="0" stopTime="0.00" timeLoss="10.83" rerouteNo="0" devices="tripinfo_flow_route_10_duration_20250327_2000.3" vType="car" speedFactor="0.91" vaporized=""/>
    <tripinfo id="flow_route_6_duration_20250327_2000.4" depart="49.00" departLane="1252820505#0_0" departPos="37.40" departSpeed="0.00" departDelay="1.00" arrival="69.00" arrivalLane="379698350#0_0" arrivalPos="17.44" arrivalSpeed="14.08" duration="20.00" routeLength="139.41" waitingTime="0.00" waitingCount="0" stopTime="0.00" timeLoss="11.23" rerouteNo="0" devices="tripinfo_flow_route_6_duration_20250327_2000.4" vType="car" speedFactor="0.98" vaporized=""/>
    <tripinfo id="flow_route_8_duration_20250327_2000.9" depart="42.00" departLane="133000078#0_0" departPos="163.02" departSpeed="0.00" departDelay="0.47" arrival="78.00" arrivalLane="1235147073.116_0" arrivalPos="12.27" arrivalSpeed="15.53" duration="36.00" routeLength="209.43" waitingTime="1.00" waitingCount="1" stopTime="0.00" timeLoss="21.42" rerouteNo="0" devices="tripinfo_flow_route_8_duration_20250327_2000.9" vType="car" speedFactor="0.96" vaporized=""/>
    <tripinfo id="flow_route_8_duration_20250327_2000.6" depart="30.00" departLane="133000078#0_0" departPos="71.14" departSpeed="0.00" departDelay="2.31" arrival="79.00" arrivalLane="1235147073.116_0" arrivalPos="10.90" arrivalSpeed="14.92" duration="49.00" routeLength="299.94" waitingTime="0.00" waitingCount="0" stopTime="0.00" timeLoss="30.43" rerouteNo="0" devices="tripinfo_flow_route_8_duration_20250327_2000.6" vType="car" speedFactor="1.17" vaporized=""/>
    <tripinfo id="flow_route_10_duration_20250327_2000.4" depart="50.00" departLane="1252820505#0_0" departPos="16.57" departSpeed="0.00" departDelay="2.00" arrival="81.00" arrivalLane="1235147073.116_0" arrivalPos="8.72" arrivalSpeed="15.72" duration="31.00" routeLength="259.89" waitingTime="0.00" waitingCount="0" stopTime="0.00" timeLoss="14.83" rerouteNo="0" devices="tripinfo_flow_route_10_duration_20250327_2000.4" vType="car" speedFactor="1.00" vaporized=""/>
    <tripinfo id="flow_route_8_duration_20250327_2000.8" depart="37.00" departLane="133000078#0_0" departPos="100.65" departSpeed="0.00" departDelay="0.08" arrival="87.00" arrivalLane="1235147073.116_0" arrivalPos="6.31" arrivalSpeed="15.51" duration="50.00" routeLength="265.84" waitingTime="1.00" waitingCount="1" stopTime="0.00" timeLoss="33.15" rerouteNo="0" devices="tripinfo_flow_route_8_duration_20250327_2000.8" vType="car" speedFactor="1.04" vaporized=""/>
    <tripinfo id="flow_route_4_duration_20250327_2000.1" depart="32.00" departLane="291974733#0_0" departPos="60.07" departSpeed="0.00" departDelay="2.00" arrival="89.00" arrivalLane="379698350#0_1" arrivalPos="8.78" arrivalSpeed="12.35" duration="57.00" routeLength="139.61" waitingTime="29.00" waitingCount="1" stopTime="0.00" timeLoss="48.60" rerouteNo="0" devices="tripinfo_flow_route_4_duration_20250327_2000.1" vType="car" speedFactor="1.10" vaporized=""/>
    <tripinfo id="flow_route_8_duration_20250327_2000.10" depart="49.00" departLane="133000078#0_0" departPos="121.51" departSpeed="0.00" departDelay="2.85" arrival="89.00" arrivalLane="1235147073.116_0" arrivalPos="3.38" arrivalSpeed="15.98" duration="40.00" routeLength="242.05" waitingTime="1.00" waitingCount="1" stopTime="0.00" timeLoss="24.12" rerouteNo="0" devices="tripinfo_flow_route_8_duration_20250327_2000.10" vType="car" speedFactor="1.02" vaporized=""/>
    <tripinfo id="flow_route_5_duration_20250327_2000.0" depart="0.00" departLane="291974733#0_0" departPos="43.68" departSpeed="0.00" departDelay="0.00" arrival="91.00" arrivalLane="1342054204_0" arrivalPos="62.15" arrivalSpeed="13.94" duration="91.00" routeLength="156.72" waitingTime="61.00" waitingCount="1" stopTime="0.00" timeLoss="79.47" rerouteNo="0" devices="tripinfo_flow_route_5_duration_20250327_2000.0" vType="car" speedFactor="0.94" vaporized=""/>
    <tripinfo id="flow_route_8_duration_20250327_2000.12" depart="56.00" departLane="133000078#0_0" departPos="75.48" departSpeed="0.00" departDelay="0.62" arrival="91.00" arrivalLane="1235147073.116_0" arrivalPos="4.74" arrivalSpeed="14.63" duration="35.00" routeLength="289.45" waitingTime="0.00" waitingCount="0" stopTime="0.00" timeLoss="14.33" rerouteNo="0" devices="tripinfo_flow_route_8_duration_20250327_2000.12" vType="car" speedFactor="0.91" vaporized=""/>
    <tripinfo id="flow_route_5_duration_20250327_2000.1" depart="12.00" departLane="291974733#0_0" departPos="54.35" departSpeed="0.00" departDelay="0.00" arrival="92.00" arrivalLane="1342054204_0" arrivalPos="52.01" arrivalSpeed="12.75" duration="80.00" routeLength="135.91" waitingTime="53.00" waitingCount="1" stopTime="0.00" timeLoss="69.66" rerouteNo="0" devices="tripinfo_flow_route_5_duration_20250327_2000.1" vType="car" speedFactor="0.89" vaporized=""/>
    <tripinfo id="flow_route_8_duration_20250327_2000.11" depart="53.00" departLane="133000078#0_0" departPos="38.82" departSpeed="0.00" departDelay="2.24" arrival="93.00" arrivalLane="1235147073.116_0" arrivalPos="6.04" arrivalSpeed="16.18" duration="40.00" routeLength="327.40" waitingTime="0.00" waitingCount="0" stopTime="0.00" timeLoss="18.90" rerouteNo="0" devices="tripinfo_flow_route_8_duration_20250327_2000.11" vType="car" speedFactor="1.02" vaporized=""/>
    <tripinfo id="flow_route_23_duration_20250327_2000.2" depart="28.00" departLane="137415945#0_0" departPos="1.58" departSpeed="0.00" departDelay="20.50" arrival="94.00" arrivalLane="379698350#0_2" arrivalPos="25.86" arrivalSpeed="11.00" duration="66.00" routeLength="216.63" waitingTime="28.00" waitingCount="1" stopTime="0.00" timeLoss="51.22" rerouteNo="0" devices="tripinfo_flow_route_23_duration_20250327_2000.2" vType="car" speedFactor="0.94" vaporized=""/>
    <tripinfo id="flow_route_5_duration_20250327_2000.2" depart="24.00" departLane="291974733#0_0" departPos="42.71" departSpeed="0.00" departDelay="0.00" arrival="94.00" arrivalLane="1342054204_0" arrivalPos="54.54" arrivalSpeed="13.08" duration="70.00" routeLength="150.08" waitingTime="42.00" waitingCount="1" stopTime="0.00" timeLoss="60.16" rerouteNo="0" devices="tripinfo_flow_route_5_duration_20250327_2000.2" vType="car" speedFactor="1.04" vaporized=""/>
    <tripinfo id="flow_route_23_duration_20250327_2000.1" depart="17.00" departLane="137415945#0_0" departPos="0.60" departSpeed="0.00" departDelay="13.25" arrival="96.00" arrivalLane="379698350#0_2" arrivalPos="81.79" arrivalSpeed="14.20" duration="79.00" routeLength="273.54" waitingTime="37.00" waitingCount="1" stopTime="0.00" timeLoss="62.16" rerouteNo="0" devices="tripinfo_flow_route_23_duration_20250327_2000.1" vType="car" speedFactor="1.12" vaporized=""/>
    <tripinfo id="flow_route_5_duration_20250327_2000.3" depart="36.00" departLane="291974733#0_0" departPos="45.58" departSpeed="0.00" departDelay="0.00" arrival="96.00" arrivalLane="1342054204_0" arrivalPos="41.02" arrivalSpeed="11.78" duration="60.00" routeLength="133.70" waitingTime="33.00" waitingCount="1" stopTime="0.00" timeLoss="50.49" rerouteNo="0" devices="tripinfo_flow_route_5_duration_20250327_2000.3" vType="car" speedFactor="0.94" vaporized=""/>
    <tripinfo id="flow_route_23_duration_20250327_2000.0" depart="0.00" departLane="137415945#0_0" departPos="0.59" departSpeed="0.00" departDelay="0.00" arrival="98.00" arrivalLane="379698350#0_2" arrivalPos="153.67" arrivalSpeed="14.01" duration="98.00" routeLength="345.44" waitingTime="53.00" waitingCount="1" stopTime="0.00" timeLoss="72.97" rerouteNo="0" devices="tripinfo_flow_route_23_duration_20250327_2000.0" vType="car" speedFactor="0.86" vaporized=""/>
    <tripinfo id="flow_route_5_duration_20250327_2000.4" depart="49.00" departLane="291974733#0_0" departPos="7.97" departSpeed="0.00" departDelay="1.00" arrival="98.00" arrivalLane="1342054204_0" arrivalPos="35.18" arrivalSpeed="12.67" duration="49.00" routeLength="165.46" waitingTime="15.00" waitingCount="1" stopTime="0.00" timeLoss="38.03" rerouteNo="0" devices="tripinfo_flow_route_5_duration_20250327_2000.4" vType="car" speedFactor="1.15" vaporized=""/>
    <tripinfo id="flow_route_4_duration_20250327_2000.0" depart="0.00" departLane="291974733#0_0" departPos="63.06" departSpeed="0.00" departDelay="0.00" arrival="100.00" arrivalLane="379698350#0_0" arrivalPos="183.76" arrivalSpeed="16.60" duration="100.00" routeLength="311.60" waitingTime="62.00" waitingCount="1" stopTime="0.00" timeLoss="81.08" rerouteNo="0" devices="tripinfo_flow_route_4_duration_20250327_2000.0" vType="car" speedFactor="1.06" vaporized=""/>
    <tripinfo id="flow_route_23_duration_20250327_2000.3" depart="43.00" departLane="137415945#0_0" departPos="1.46" departSpeed="0.00" departDelay="31.75" arrival="100.00" arrivalLane="379698350#0_2" arrivalPos="63.48" arrivalSpeed="12.53" duration="57.00" routeLength="254.37" waitingTime="15.00" waitingCount="1" stopTime="0.00" timeLoss="40.09" rerouteNo="0" devices="tripinfo_flow_route_23_duration_20250327_2000.3" vType="car" speedFactor="0.95" vaporized=""/>
    <tripinfo id="flow_route_23_duration_20250327_2000.4" depart="52.00" departLane="137415945#0_0" departPos="2.93" departSpeed="0.00" departDelay="37.00" arrival="102.00" arrivalLane="379698350#0_2" arrivalPos="64.73" arrivalSpeed="13.44" duration="50.00" routeLength="254.15" waitingTime="6.00" waitingCount="1" stopTime="0.00" timeLoss="33.92" rerouteNo="0" devices="tripinfo_flow_route_23_duration_20250327_2000.4" vType="car" speedFactor="1.01" vaporized=""/>
    <tripinfo id="flow_route_23_duration_20250327_2000.5" depart="70.00" departLane="137415945#0_0" departPos="6.10" departSpeed="0.00" departDelay="51.25" arrival="104.00" arrivalLane="379698350#0_2" arrivalPos="43.80" arrivalSpeed="11.47" duration="34.00" routeLength="230.05" waitingTime="1.00" waitingCount="1" stopTime="0.00" timeLoss="19.54" rerouteNo="0" devices="tripinfo_flow_route_23_duration_20250327_2000.5" vType="car" speedFactor="1.18" vaporized=""/>
    <tripinfo id="flow_route_23_duration_20250327_2000.6" depart="83.00" departLane="137415945#0_0" departPos="0.14" departSpeed="0.00" departDelay="60.50" arrival="109.00" arrivalLane="379698350#0_2" arrivalPos="4.92" arrivalSpeed="11.25" duration="26.00" routeLength="197.13" waitingTime="0.00" waitingCount="0" stopTime="0.00" timeLoss="12.79" rerouteNo="0" devices="tripinfo_flow_route_23_duration_20250327_2000.6" vType="car" speedFactor="0.96" vaporized=""/>
    <tripinfo id="flow_route_12_duration_20250327_2000.1" depart="5.00" departLane="133000078#0_0" departPos="197.52" departSpeed="0.00" departDelay="0.00" arrival="126.00" arrivalLane="1342054204_3" arrivalPos="26.32" arrivalSpeed="14.17" duration="121.00" routeLength="126.61" waitingTime="98.00" waitingCount="1" stopTime="0.00" timeLoss="112.32" rerouteNo="0" devices="tripinfo_flow_route_12_duration_20250327_2000.1" vType="car" speedFactor="0.93" vaporized=""/>
    <tripinfo id="flow_route_7_duration_20250327_2000.0" depart="0.00" departLane="133000078#0_0" departPos="116.92" departSpeed="0.00" departDelay="0.00" arrival="129.00" arrivalLane="137406408#0_1" arrivalPos="45.36" arrivalSpeed="15.05" duration="129.00" routeLength="233.24" waitingTime="91.00" waitingCount="1" stopTime="0.00" timeLoss="114.24" rerouteNo="0" devices="tripinfo_flow_route_7_duration_20250327_2000.0" vType="car" speedFactor="1.08" vaporized=""/>
    <tripinfo id="flow_route_12_duration_20250327_2000.2" depart="10.00" departLane="133000078#0_0" departPos="137.95" departSpeed="0.00" departDelay="0.00" arrival="131.00" arrivalLane="1342054204_3" arrivalPos="49.86" arrivalSpeed="14.64" duration="121.00" routeLength="209.71" waitingTime="85.00" waitingCount="1" stopTime="0.00" timeLoss="107.66" rerouteNo="0" devices="tripinfo_flow_route_12_duration_20250327_2000.2" vType="car" speedFactor="1.01" vaporized=""/>
    <tripinfo id="flow_route_12_duration_20250327_2000.4" depart="20.00" departLane="133000078#0_0" departPos="170.46" departSpeed="0.00" departDelay="0.00" arrival="133.00" arrivalLane="1342054204_3" arrivalPos="53.66" arrivalSpeed="14.58" duration="113.00" routeLength="181.00" waitingTime="83.00" waitingCount="1" stopTime="0.00" timeLoss="101.47" rerouteNo="0" devices="tripinfo_flow_route_12_duration_20250327_2000.4" vType="car" speedFactor="1.10" vaporized=""/>
    <tripinfo id="flow_route_12_duration_20250327_2000.0" depart="0.00" departLane="133000078#0_0" departPos="66.48" departSpeed="0.00" departDelay="0.00" arrival="137.00" arrivalLane="1342054204_3" arrivalPos="21.59" arrivalSpeed="13.39" duration="137.00" routeLength="252.91" waitingTime="81.00" waitingCount="1" stopTime="0.00" timeLoss="119.16" rerouteNo="0" devices="tripinfo_flow_route_12_duration_20250327_2000.0" vType="car" speedFactor="0.89" vaporized=""/>
    <tripinfo id="flow_route_12_duration_20250327_2000.6" depart="32.00" departLane="133000078#0_0" departPos="195.08" departSpeed="0.00" departDelay="2.00" arrival="137.00" arrivalLane="1342054204_3" arrivalPos="58.91" arrivalSpeed="15.28" duration="105.00" routeLength="161.63" waitingTime="79.00" waitingCount="1" stopTime="0.00" timeLoss="94.80" rerouteNo="0" devices="tripinfo_flow_route_12_duration_20250327_2000.6" vType="car" speedFactor="1.00" vaporized=""/>
    <tripinfo id="flow_route_12_duration_20250327_2000.11" depart="55.00" departLane="133000078#0_0" departPos="171.01" departSpeed="0.00" departDelay="0.00" arrival="140.00" arrivalLane="1342054204_3" arrivalPos="23.05" arrivalSpeed="14.37" duration="85.00" routeLength="149.84" waitingTime="58.00" waitingCount="2" stopTime="0.00" timeLoss="75.50" rerouteNo="0" devices="tripinfo_flow_route_12_duration_20250327_2000.11" vType="car" speedFactor="1.06" vaporized=""/>
    <tripinfo id="flow_route_12_duration_20250327_2000.3" depart="15.00" departLane="133000078#0_0" departPos="117.10" departSpeed="0.00" departDelay="0.00" arrival="141.00" arrivalLane="1342054204_3" arrivalPos="15.61" arrivalSpeed="14.01" duration="126.00" routeLength="196.31" waitingTime="83.00" waitingCount="3" stopTime="0.00" timeLoss="113.89" rerouteNo="0" devices="tripinfo_flow_route_12_duration_20250327_2000.3" vType="car" speedFactor="1.18" vaporized=""/>
    <tripinfo id="flow_route_12_duration_20250327_2000.5" depart="25.00" departLane="133000078#0_0" departPos="20.96" departSpeed="0.00" departDelay="0.00" arrival="149.00" arrivalLane="1342054204_3" arrivalPos="84.74" arrivalSpeed="14.89" duration="124.00" routeLength="361.58" waitingTime="68.00" waitingCount="1" stopTime="0.00" timeLoss="99.05" rerouteNo="0" devices="tripinfo_flow_route_12_duration_20250327_2000.5" vType="car" speedFactor="0.90" vaporized=""/>
    <tripinfo id="flow_route_12_duration_20250327_2000.7" depart="36.00" departLane="133000078#0_0" departPos="2.41" departSpeed="0.00" departDelay="1.00" arrival="149.00" arrivalLane="1342054204_3" arrivalPos="14.61" arrivalSpeed="13.17" duration="113.00" routeLength="310.00" waitingTime="57.00" waitingCount="1" stopTime="0.00" timeLoss="93.77" rerouteNo="0" devices="tripinfo_flow_route_12_duration_20250327_2000.7" vType="car" speedFactor="0.99" vaporized=""/>
    <tripinfo id="flow_route_12_duration_20250327_2000.8" depart="40.00" departLane="133000078#0_0" departPos="91.80" departSpeed="0.00" departDelay="0.00" arrival="149.00" arrivalLane="1342054204_3" arrivalPos="38.95" arrivalSpeed="14.19" duration="109.00" routeLength="244.95" waitingTime="59.00" waitingCount="1" stopTime="0.00" timeLoss="93.07" rerouteNo="0" devices="tripinfo_flow_route_12_duration_20250327_2000.8" vType="car" speedFactor="0.94" vaporized=""/>
    <tripinfo id="flow_route_12_duration_20250327_2000.9" depart="45.00" departLane="133000078#0_0" departPos="39.34" departSpeed="0.00" departDelay="0.00" arrival="152.00" arrivalLane="1342054204_3" arrivalPos="17.04" arrivalSpeed="13.09" duration="107.00" routeLength="275.50" waitingTime="54.00" waitingCount="1" stopTime="0.00" timeLoss="90.32" rerouteNo="0" devices="tripinfo_flow_route_12_duration_20250327_2000.9" vType="car" speedFactor="1.01" vaporized=""/>
    <tripinfo id="flow_route_12_duration_20250327_2000.10" depart="51.00" departLane="133000078#0_0" departPos="2.41" departSpeed="0.00" departDelay="1.00" arrival="157.00" arrivalLane="1342054204_3" arrivalPos="64.47" arrivalSpeed="16.03" duration="106.00" routeLength="359.86" waitingTime="49.00" waitingCount="1" stopTime="0.00" timeLoss="84.01" rerouteNo="0" devices="tripinfo_flow_route_12_duration_20250327_2000.10" vType="car" speedFactor="1.02" vaporized=""/>
    <tripinfo id="flow_route_22_duration_20250327_2000.3" depart="20.00" departLane="137415945#0_0" departPos="4.96" departSpeed="0.00" departDelay="14.38" arrival="159.00" arrivalLane="1342054204_0" arrivalPos="2.60" arrivalSpeed="9.96" duration="139.00" routeLength="190.97" waitingTime="106.00" waitingCount="1" stopTime="0.00" timeLoss="125.86" rerouteNo="0" devices="tripinfo_flow_route_22_duration_20250327_2000.3" vType="car" speedFactor="0.88" vaporized=""/>
    <tripinfo id="flow_route_22_duration_20250327_2000.4" depart="23.00" departLane="137415945#0_0" departPos="1.33" departSpeed="0.00" departDelay="15.50" arrival="161.00" arrivalLane="1342054204_1" arrivalPos="11.29" arrivalSpeed="10.11" duration="138.00" routeLength="203.28" waitingTime="102.00" waitingCount="1" stopTime="0.00" timeLoss="124.97" rerouteNo="0" devices="tripinfo_flow_route_22_duration_20250327_2000.4" vType="car" speedFactor="0.94" vaporized=""/>
    <tripinfo id="flow_route_24_duration_20250327_2000.1" depart="31.00" departLane="137415945#0_0" departPos="3.53" departSpeed="0.00" departDelay="23.50" arrival="163.00" arrivalLane="137406408#0_0" arrivalPos="37.97" arrivalSpeed="11.79" duration="132.00" routeLength="203.44" waitingTime="96.00" waitingCount="1" stopTime="0.00" timeLoss="119.28" rerouteNo="0" devices="tripinfo_flow_route_24_duration_20250327_2000.1" vType="car" speedFactor="1.16" vaporized=""/>
    <tripinfo id="flow_route_22_duration_20250327_2000.5" depart="37.00" departLane="137415945#0_0" departPos="1.46" departSpeed="0.00" departDelay="27.63" arrival="164.00" arrivalLane="1342054204_1" arrivalPos="21.06" arrivalSpeed="11.34" duration="127.00" routeLength="212.93" waitingTime="89.00" waitingCount="1" stopTime="0.00" timeLoss="113.75" rerouteNo="0" devices="tripinfo_flow_route_22_duration_20250327_2000.5" vType="car" speedFactor="0.97" vaporized=""/>
    <tripinfo id="flow_route_22_duration_20250327_2000.7" depart="45.00" departLane="137415945#0_0" departPos="10.83" departSpeed="0.00" departDelay="31.88" arrival="166.00" arrivalLane="1342054204_1" arrivalPos="24.32" arrivalSpeed="12.29" duration="121.00" routeLength="206.82" waitingTime="84.00" waitingCount="1" stopTime="0.00" timeLoss="107.48" rerouteNo="0" devices="tripinfo_flow_route_22_duration_20250327_2000.7" vType="car" speedFactor="0.93" vaporized=""/>
    <tripinfo id="flow_route_22_duration_20250327_2000.9" depart="59.00" departLane="137415945#0_0" departPos="0.40" departSpeed="0.00" departDelay="42.13" arrival="167.00" arrivalLane="1342054204_1" arrivalPos="15.76" arrivalSpeed="12.06" duration="108.00" routeLength="208.69" waitingTime="71.00" waitingCount="1" stopTime="0.00" timeLoss="95.30" rerouteNo="0" devices="tripinfo_flow_route_22_duration_20250327_2000.9" vType="car" speedFactor="0.99" vaporized=""/>