<?xml version="1.0" encoding="UTF-8"?>

<!-- generated on 2025-05-06 21:08:35 by Eclipse SUMO sumo Version 1.20.0
<configuration xmlns:xsi="http://www.w3.org/2001/XMLSchema-instance" xsi:noNamespaceSchemaLocation="http://sumo.dlr.de/xsd/sumoConfiguration.xsd">

    <input>
        <net-file value="osm.net.xml"/>
        <route-files value="xml/route_static_GS_cluster_4854142864_4854142865_5.rou.xml"/>
    </input>

    <output>
        <tripinfo-output value="xml/tripinfo_static_GS_cluster_4854142864_4854142865_5.xml"/>
    </output>

    <traci_server>
        <remote-port value="47741"/>
    </traci_server>

</configuration>
-->

<tripinfos xmlns:xsi="http://www.w3.org/2001/XMLSchema-instance" xsi:noNamespaceSchemaLocation="http://sumo.dlr.de/xsd/tripinfo_file.xsd">
    <tripinfo id="flow_route_39_duration_20250327_2100.0" depart="0.00" departLane="133126030#0_0" departPos="101.03" departSpeed="0.00" departDelay="0.00" arrival="29.00" arrivalLane="1328664748#0_0" arrivalPos="158.52" arrivalSpeed="15.14" duration="29.00" routeLength="263.70" waitingTime="0.00" waitingCount="0" stopTime="0.00" timeLoss="11.27" rerouteNo="0" devices="tripinfo_flow_route_39_duration_20250327_2100.0" vType="car" speedFactor="0.94" vaporized=""/>
    <tripinfo id="flow_route_38_duration_20250327_2100.0" depart="0.00" departLane="133126030#0_0" departPos="45.86" departSpeed="0.00" departDelay="0.00" arrival="34.00" arrivalLane="134193294#0_0" arrivalPos="152.84" arrivalSpeed="16.03" duration="34.00" routeLength="301.86" waitingTime="0.00" waitingCount="0" stopTime="0.00" timeLoss="15.00" rerouteNo="0" devices="tripinfo_flow_route_38_duration_20250327_2100.0" vType="car" speedFactor="1.06" vaporized=""/>
    <tripinfo id="flow_route_43_duration_20250327_2100.2" depart="24.00" departLane="1328664744#0_0" departPos="205.90" departSpeed="0.00" departDelay="0.00" arrival="50.00" arrivalLane="134193294#0_3" arrivalPos="4.78" arrivalSpeed="6.37" duration="26.00" routeLength="38.94" waitingTime="12.00" waitingCount="1" stopTime="0.00" timeLoss="22.65" rerouteNo="0" devices="tripinfo_flow_route_43_duration_20250327_2100.2" vType="car" speedFactor="0.95" vaporized=""/>
    <tripinfo id="flow_route_43_duration_20250327_2100.1" depart="12.00" departLane="1328664744#0_0" departPos="73.50" departSpeed="0.00" departDelay="0.00" arrival="52.00" arrivalLane="134193294#0_3" arrivalPos="5.12" arrivalSpeed="7.00" duration="40.00" routeLength="171.69" waitingTime="8.00" waitingCount="1" stopTime="0.00" timeLoss="26.94" rerouteNo="0" devices="tripinfo_flow_route_43_duration_20250327_2100.1" vType="car" speedFactor="0.88" vaporized=""/>
    <tripinfo id="flow_route_43_duration_20250327_2100.0" depart="0.00" departLane="1328664744#0_0" departPos="1.34" departSpeed="0.00" departDelay="0.00" arrival="56.00" arrivalLane="134193294#0_3" arrivalPos="84.30" arrivalSpeed="13.22" duration="56.00" routeLength="323.03" waitingTime="14.00" waitingCount="1" stopTime="0.00" timeLoss="35.13" rerouteNo="0" devices="tripinfo_flow_route_43_duration_20250327_2100.0" vType="car" speedFactor="1.08" vaporized=""/>
    <tripinfo id="flow_route_43_duration_20250327_2100.3" depart="36.00" departLane="1328664744#0_0" departPos="157.68" departSpeed="0.00" departDelay="0.00" arrival="67.00" arrivalLane="134193294#0_3" arrivalPos="158.66" arrivalSpeed="16.32" duration="31.00" routeLength="241.05" waitingTime="0.00" waitingCount="0" stopTime="0.00" timeLoss="14.68" rerouteNo="0" devices="tripinfo_flow_route_43_duration_20250327_2100.3" vType="car" speedFactor="1.03" vaporized=""/>
    <tripinfo id="flow_route_43_duration_20250327_2100.4" depart="48.00" departLane="1328664744#0_0" departPos="95.59" departSpeed="0.00" departDelay="0.00" arrival="81.00" arrivalLane="134193294#0_3" arrivalPos="155.15" arrivalSpeed="16.56" duration="33.00" routeLength="299.63" waitingTime="0.00" waitingCount="0" stopTime="0.00" timeLoss="14.26" rerouteNo="0" devices="tripinfo_flow_route_43_duration_20250327_2100.4" vType="car" speedFactor="1.17" vaporized=""/>
    <tripinfo id="flow_route_45_duration_20250327_2100.1" depart="7.00" departLane="791826085_0" departPos="268.83" departSpeed="0.00" departDelay="2.00" arrival="92.00" arrivalLane="485211947#0_0" arrivalPos="8.56" arrivalSpeed="6.14" duration="85.00" routeLength="75.49" waitingTime="63.00" waitingCount="1" stopTime="0.00" timeLoss="79.34" rerouteNo="0" devices="tripinfo_flow_route_45_duration_20250327_2100.1" vType="car" speedFactor="1.09" vaporized=""/>
    <tripinfo id="flow_route_45_duration_20250327_2100.0" depart="0.00" departLane="791826085_0" departPos="152.03" departSpeed="0.00" departDelay="0.00" arrival="95.00" arrivalLane="485211947#0_0" arrivalPos="8.08" arrivalSpeed="6.62" duration="95.00" routeLength="191.81" waitingTime="62.00" waitingCount="1" stopTime="0.00" timeLoss="79.63" rerouteNo="0" devices="tripinfo_flow_route_45_duration_20250327_2100.0" vType="car" speedFactor="0.83" vaporized=""/>
    <tripinfo id="flow_route_44_duration_20250327_2100.2" depart="7.00" departLane="791826085_0" departPos="306.25" departSpeed="0.00" departDelay="2.00" arrival="102.00" arrivalLane="134193294#0_0" arrivalPos="117.27" arrivalSpeed="14.26" duration="95.00" routeLength="165.39" waitingTime="68.00" waitingCount="1" stopTime="0.00" timeLoss="82.55" rerouteNo="0" devices="tripinfo_flow_route_44_duration_20250327_2100.2" vType="car" speedFactor="0.86" vaporized=""/>
    <tripinfo id="flow_route_46_duration_20250327_2100.2" depart="7.00" departLane="791826085_0" departPos="289.48" departSpeed="0.00" departDelay="0.33" arrival="102.00" arrivalLane="1328664748#0_1" arrivalPos="140.94" arrivalSpeed="16.20" duration="95.00" routeLength="200.25" waitingTime="63.00" waitingCount="1" stopTime="0.00" timeLoss="81.74" rerouteNo="0" devices="tripinfo_flow_route_46_duration_20250327_2100.2" vType="car" speedFactor="1.03" vaporized=""/>
    <tripinfo id="flow_route_44_duration_20250327_2100.1" depart="3.00" departLane="791826085_0" departPos="19.65" departSpeed="0.00" departDelay="0.50" arrival="103.00" arrivalLane="134193294#0_1" arrivalPos="45.37" arrivalSpeed="12.19" duration="100.00" routeLength="380.09" waitingTime="48.00" waitingCount="1" stopTime="0.00" timeLoss="73.48" rerouteNo="0" devices="tripinfo_flow_route_44_duration_20250327_2100.1" vType="car" speedFactor="0.89" vaporized=""/>
    <tripinfo id="flow_route_44_duration_20250327_2100.4" depart="13.00" departLane="791826085_0" departPos="40.89" departSpeed="0.00" departDelay="3.00" arrival="103.00" arrivalLane="134193294#0_0" arrivalPos="5.56" arrivalSpeed="9.31" duration="90.00" routeLength="319.04" waitingTime="41.00" waitingCount="1" stopTime="0.00" timeLoss="70.78" rerouteNo="0" devices="tripinfo_flow_route_44_duration_20250327_2100.4" vType="car" speedFactor="1.12" vaporized=""/>
    <tripinfo id="flow_route_44_duration_20250327_2100.0" depart="0.00" departLane="791826085_0" departPos="219.49" departSpeed="0.00" departDelay="0.00" arrival="104.00" arrivalLane="134193294#0_1" arrivalPos="101.20" arrivalSpeed="15.19" duration="104.00" routeLength="236.08" waitingTime="66.00" waitingCount="1" stopTime="0.00" timeLoss="89.36" rerouteNo="0" devices="tripinfo_flow_route_44_duration_20250327_2100.0" vType="car" speedFactor="1.03" vaporized=""/>
    <tripinfo id="flow_route_45_duration_20250327_2100.2" depart="13.00" departLane="791826085_0" departPos="134.15" departSpeed="0.00" departDelay="3.00" arrival="105.00" arrivalLane="485211947#0_0" arrivalPos="55.91" arrivalSpeed="10.72" duration="92.00" routeLength="257.52" waitingTime="51.00" waitingCount="1" stopTime="0.00" timeLoss="75.47" rerouteNo="0" devices="tripinfo_flow_route_45_duration_20250327_2100.2" vType="car" speedFactor="0.99" vaporized=""/>
    <tripinfo id="flow_route_44_duration_20250327_2100.3" depart="9.00" departLane="791826085_0" departPos="77.20" departSpeed="0.00" departDelay="1.50" arrival="106.00" arrivalLane="134193294#0_1" arrivalPos="68.03" arrivalSpeed="12.70" duration="97.00" routeLength="345.20" waitingTime="48.00" waitingCount="1" stopTime="0.00" timeLoss="76.18" rerouteNo="0" devices="tripinfo_flow_route_44_duration_20250327_2100.3" vType="car" speedFactor="1.05" vaporized=""/>
    <tripinfo id="flow_route_46_duration_20250327_2100.4" depart="14.00" departLane="791826085_0" departPos="186.42" departSpeed="0.00" departDelay="0.67" arrival="106.00" arrivalLane="1328664748#0_1" arrivalPos="49.64" arrivalSpeed="11.69" duration="92.00" routeLength="212.02" waitingTime="53.00" waitingCount="2" stopTime="0.00" timeLoss="77.17" rerouteNo="0" devices="tripinfo_flow_route_46_duration_20250327_2100.4" vType="car" speedFactor="0.94" vaporized=""/>
    <tripinfo id="flow_route_44_duration_20250327_2100.5" depart="14.00" departLane="791826085_0" departPos="54.77" departSpeed="0.00" departDelay="1.50" arrival="107.00" arrivalLane="134193294#0_1" arrivalPos="22.19" arrivalSpeed="12.38" duration="93.00" routeLength="321.79" waitingTime="40.00" waitingCount="1" stopTime="0.00" timeLoss="71.77" rerouteNo="0" devices="tripinfo_flow_route_44_duration_20250327_2100.5" vType="car" speedFactor="0.94" vaporized=""/>
    <tripinfo id="flow_route_44_duration_20250327_2100.10" depart="33.00" departLane="791826085_0" departPos="136.05" departSpeed="0.00" departDelay="8.00" arrival="108.00" arrivalLane="134193294#0_1" arrivalPos="11.49" arrivalSpeed="11.14" duration="75.00" routeLength="229.81" waitingTime="36.00" waitingCount="1" stopTime="0.00" timeLoss="59.59" rerouteNo="0" devices="tripinfo_flow_route_44_duration_20250327_2100.10" vType="car" speedFactor="0.93" vaporized=""/>
    <tripinfo id="flow_route_44_duration_20250327_2100.12" depart="37.00" departLane="791826085_0" departPos="187.09" departSpeed="0.00" departDelay="7.00" arrival="108.00" arrivalLane="134193294#0_0" arrivalPos="36.43" arrivalSpeed="12.55" duration="71.00" routeLength="203.71" waitingTime="33.00" waitingCount="1" stopTime="0.00" timeLoss="58.27" rerouteNo="0" devices="tripinfo_flow_route_44_duration_20250327_2100.12" vType="car" speedFactor="1.17" vaporized=""/>
    <tripinfo id="flow_route_46_duration_20250327_2100.3" depart="13.00" departLane="791826085_0" departPos="314.57" departSpeed="0.00" departDelay="3.00" arrival="109.00" arrivalLane="1328664748#0_1" arrivalPos="170.09" arrivalSpeed="15.42" duration="96.00" routeLength="204.32" waitingTime="68.00" waitingCount="1" stopTime="0.00" timeLoss="81.06" rerouteNo="0" devices="tripinfo_flow_route_46_duration_20250327_2100.3" vType="car" speedFactor="0.93" vaporized=""/>
    <tripinfo id="flow_route_45_duration_20250327_2100.3" depart="15.00" departLane="791826085_0" departPos="217.90" departSpeed="0.00" departDelay="0.00" arrival="109.00" arrivalLane="485211947#0_0" arrivalPos="150.40" arrivalSpeed="16.18" duration="94.00" routeLength="268.26" waitingTime="54.00" waitingCount="1" stopTime="0.00" timeLoss="76.33" rerouteNo="0" devices="tripinfo_flow_route_45_duration_20250327_2100.3" vType="car" speedFactor="1.02" vaporized=""/>
    <tripinfo id="flow_route_45_duration_20250327_2100.5" depart="33.00" departLane="791826085_0" departPos="119.09" departSpeed="0.00" departDelay="8.00" arrival="109.00" arrivalLane="485211947#0_0" arrivalPos="33.16" arrivalSpeed="10.67" duration="76.00" routeLength="249.83" waitingTime="34.00" waitingCount="1" stopTime="0.00" timeLoss="59.99" rerouteNo="0" devices="tripinfo_flow_route_45_duration_20250327_2100.5" vType="car" speedFactor="1.18" vaporized=""/>
    <tripinfo id="flow_route_44_duration_20250327_2100.8" depart="27.00" departLane="791826085_0" departPos="184.96" departSpeed="0.00" departDelay="7.00" arrival="110.00" arrivalLane="134193294#0_2" arrivalPos="52.80" arrivalSpeed="13.41" duration="83.00" routeLength="222.20" waitingTime="45.00" waitingCount="1" stopTime="0.00" timeLoss="67.56" rerouteNo="0" devices="tripinfo_flow_route_44_duration_20250327_2100.8" vType="car" speedFactor="0.89" vaporized=""/>
    <tripinfo id="flow_route_46_duration_20250327_2100.0" depart="1.00" departLane="791826085_0" departPos="184.68" departSpeed="0.00" departDelay="1.00" arrival="111.00" arrivalLane="1328664748#0_1" arrivalPos="165.37" arrivalSpeed="16.37" duration="110.00" routeLength="329.48" waitingTime="63.00" waitingCount="2" stopTime="0.00" timeLoss="88.39" rerouteNo="0" devices="tripinfo_flow_route_46_duration_20250327_2100.0" vType="car" speedFactor="1.05" vaporized=""/>
    <tripinfo id="flow_route_46_duration_20250327_2100.7" depart="30.00" departLane="791826085_0" departPos="200.61" departSpeed="0.00" departDelay="6.67" arrival="112.00" arrivalLane="1328664748#0_1" arrivalPos="62.04" arrivalSpeed="13.70" duration="82.00" routeLength="210.22" waitingTime="44.00" waitingCount="1" stopTime="0.00" timeLoss="68.58" rerouteNo="0" devices="tripinfo_flow_route_46_duration_20250327_2100.7" vType="car" speedFactor="1.13" vaporized=""/>
    <tripinfo id="flow_route_44_duration_20250327_2100.11" depart="37.00" departLane="791826085_0" departPos="284.98" departSpeed="0.00" departDelay="9.50" arrival="112.00" arrivalLane="134193294#0_1" arrivalPos="123.83" arrivalSpeed="16.47" duration="75.00" routeLength="193.22" waitingTime="47.00" waitingCount="1" stopTime="0.00" timeLoss="62.76" rerouteNo="0" devices="tripinfo_flow_route_44_duration_20250327_2100.11" vType="car" speedFactor="1.01" vaporized=""/>
    <tripinfo id="flow_route_44_duration_20250327_2100.6" depart="15.00" departLane="791826085_0" departPos="29.03" departSpeed="0.00" departDelay="0.00" arrival="113.00" arrivalLane="134193294#0_2" arrivalPos="41.41" arrivalSpeed="13.91" duration="98.00" routeLength="366.74" waitingTime="45.00" waitingCount="1" stopTime="0.00" timeLoss="75.41" rerouteNo="0" devices="tripinfo_flow_route_44_duration_20250327_2100.6" vType="car" speedFactor="1.16" vaporized=""/>
    <tripinfo id="flow_route_46_duration_20250327_2100.1" depart="4.00" departLane="791826085_0" departPos="105.00" departSpeed="0.00" departDelay="0.67" arrival="114.00" arrivalLane="1328664748#0_1" arrivalPos="194.81" arrivalSpeed="15.21" duration="110.00" routeLength="438.60" waitingTime="56.00" waitingCount="1" stopTime="0.00" timeLoss="80.76" rerouteNo="0" devices="tripinfo_flow_route_46_duration_20250327_2100.1" vType="car" speedFactor="0.94" vaporized=""/>
    <tripinfo id="flow_route_46_duration_20250327_2100.5" depart="17.00" departLane="791826085_0" departPos="194.45" departSpeed="0.00" departDelay="0.34" arrival="115.00" arrivalLane="1328664748#0_1" arrivalPos="159.20" arrivalSpeed="16.41" duration="98.00" routeLength="313.55" waitingTime="50.00" waitingCount="1" stopTime="0.00" timeLoss="77.69" rerouteNo="0" devices="tripinfo_flow_route_46_duration_20250327_2100.5" vType="car" speedFactor="1.01" vaporized=""/>
    <tripinfo id="flow_route_44_duration_20250327_2100.16" depart="54.00" departLane="791826085_0" departPos="157.42" departSpeed="0.00" departDelay="14.00" arrival="115.00" arrivalLane="134193294#0_1" arrivalPos="17.42" arrivalSpeed="12.83" duration="61.00" routeLength="214.37" waitingTime="24.00" waitingCount="1" stopTime="0.00" timeLoss="47.80" rerouteNo="0" devices="tripinfo_flow_route_44_duration_20250327_2100.16" vType="car" speedFactor="1.04" vaporized=""/>
    <tripinfo id="flow_route_44_duration_20250327_2100.7" depart="27.00" departLane="791826085_0" departPos="28.05" departSpeed="0.00" departDelay="9.50" arrival="117.00" arrivalLane="134193294#0_1" arrivalPos="118.64" arrivalSpeed="16.13" duration="90.00" routeLength="444.96" waitingTime="36.00" waitingCount="1" stopTime="0.00" timeLoss="62.24" rerouteNo="0" devices="tripinfo_flow_route_44_duration_20250327_2100.7" vType="car" speedFactor="0.97" vaporized=""/>
    <tripinfo id="flow_route_45_duration_20250327_2100.4" depart="27.00" departLane="791826085_0" departPos="67.56" departSpeed="0.00" departDelay="7.00" arrival="118.00" arrivalLane="485211947#0_0" arrivalPos="91.27" arrivalSpeed="11.99" duration="91.00" routeLength="359.46" waitingTime="34.00" waitingCount="1" stopTime="0.00" timeLoss="63.62" rerouteNo="0" devices="tripinfo_flow_route_45_duration_20250327_2100.4" vType="car" speedFactor="0.83" vaporized=""/>
    <tripinfo id="flow_route_44_duration_20250327_2100.9" depart="27.00" departLane="791826085_0" departPos="15.28" departSpeed="0.00" departDelay="4.50" arrival="118.00" arrivalLane="134193294#0_1" arrivalPos="110.07" arrivalSpeed="15.11" duration="91.00" routeLength="449.16" waitingTime="36.00" waitingCount="1" stopTime="0.00" timeLoss="61.42" rerouteNo="0" devices="tripinfo_flow_route_44_duration_20250327_2100.9" vType="car" speedFactor="0.92" vaporized=""/>
    <tripinfo id="flow_route_46_duration_20250327_2100.9" depart="42.00" departLane="791826085_0" departPos="232.28" departSpeed="0.00" departDelay="12.00" arrival="118.00" arrivalLane="1328664748#0_1" arrivalPos="94.16" arrivalSpeed="15.14" duration="76.00" routeLength="210.68" waitingTime="41.00" waitingCount="1" stopTime="0.00" timeLoss="62.48" rerouteNo="0" devices="tripinfo_flow_route_46_duration_20250327_2100.9" vType="car" speedFactor="1.02" vaporized=""/>
    <tripinfo id="flow_route_46_duration_20250327_2100.10" depart="50.00" departLane="791826085_0" departPos="193.29" departSpeed="0.00" departDelay="16.67" arrival="118.00" arrivalLane="1328664748#0_1" arrivalPos="5.31" arrivalSpeed="9.87" duration="68.00" routeLength="160.80" waitingTime="35.00" waitingCount="1" stopTime="0.00" timeLoss="57.54" rerouteNo="0" devices="tripinfo_flow_route_46_duration_20250327_2100.10" vType="car" speedFactor="1.18" vaporized=""/>
    <tripinfo id="flow_route_44_duration_20250327_2100.17" depart="60.00" departLane="791826085_0" departPos="134.32" departSpeed="0.00" departDelay="17.50" arrival="118.00" arrivalLane="134193294#0_1" arrivalPos="24.21" arrivalSpeed="14.80" duration="58.00" routeLength="244.26" waitingTime="19.00" waitingCount="1" stopTime="0.00" timeLoss="42.49" rerouteNo="0" devices="tripinfo_flow_route_44_duration_20250327_2100.17" vType="car" speedFactor="1.00" vaporized=""/>
    <tripinfo id="flow_route_46_duration_20250327_2100.8" depart="36.00" departLane="791826085_0" departPos="160.68" departSpeed="0.00" departDelay="9.34" arrival="119.00" arrivalLane="1328664748#0_1" arrivalPos="75.43" arrivalSpeed="15.29" duration="83.00" routeLength="263.54" waitingTime="41.00" waitingCount="1" stopTime="0.00" timeLoss="66.01" rerouteNo="0" devices="tripinfo_flow_route_46_duration_20250327_2100.8" vType="car" speedFactor="1.15" vaporized=""/>
    <tripinfo id="flow_route_44_duration_20250327_2100.13" depart="42.00" departLane="791826085_0" departPos="40.54" departSpeed="0.00" departDelay="9.50" arrival="119.00" arrivalLane="134193294#0_1" arrivalPos="100.35" arrivalSpeed="16.08" duration="77.00" routeLength="414.19" waitingTime="25.00" waitingCount="1" stopTime="0.00" timeLoss="51.21" rerouteNo="0" devices="tripinfo_flow_route_44_duration_20250327_2100.13" vType="car" speedFactor="0.97" vaporized=""/>
    <tripinfo id="flow_route_44_duration_20250327_2100.14" depart="51.00" departLane="791826085_0" departPos="33.55" departSpeed="0.00" departDelay="16.00" arrival="119.00" arrivalLane="134193294#0_1" arrivalPos="17.96" arrivalSpeed="14.52" duration="68.00" routeLength="338.78" waitingTime="14.00" waitingCount="1" stopTime="0.00" timeLoss="47.23" rerouteNo="0" devices="tripinfo_flow_route_44_duration_20250327_2100.14" vType="car" speedFactor="1.10" vaporized=""/>
    <tripinfo id="flow_route_44_duration_20250327_2100.20" depart="70.00" departLane="791826085_0" departPos="235.84" departSpeed="0.00" departDelay="20.00" arrival="122.00" arrivalLane="134193294#0_0" arrivalPos="47.57" arrivalSpeed="12.98" duration="52.00" routeLength="166.10" waitingTime="19.00" waitingCount="1" stopTime="0.00" timeLoss="41.31" rerouteNo="0" devices="tripinfo_flow_route_44_duration_20250327_2100.20" vType="car" speedFactor="1.10" vaporized=""/>
    <tripinfo id="flow_route_44_duration_20250327_2100.15" depart="53.00" departLane="791826085_0" departPos="4.77" departSpeed="0.00" departDelay="15.50" arrival="123.00" arrivalLane="134193294#0_1" arrivalPos="50.83" arrivalSpeed="16.11" duration="70.00" routeLength="400.43" waitingTime="13.00" waitingCount="2" stopTime="0.00" timeLoss="45.39" rerouteNo="0" devices="tripinfo_flow_route_44_duration_20250327_2100.15" vType="car" speedFactor="1.09" vaporized=""/>
    <tripinfo id="flow_route_44_duration_20250327_2100.18" depart="62.00" departLane="791826085_0" departPos="128.32" departSpeed="0.00" departDelay="17.00" arrival="123.00" arrivalLane="134193294#0_0" arrivalPos="7.31" arrivalSpeed="8.56" duration="61.00" routeLength="233.35" waitingTime="16.00" waitingCount="1" stopTime="0.00" timeLoss="44.95" rerouteNo="0" devices="tripinfo_flow_route_44_duration_20250327_2100.18" vType="car" speedFactor="0.88" vaporized=""/>
    <tripinfo id="flow_route_45_duration_20250327_2100.6" depart="39.00" departLane="791826085_0" departPos="111.82" departSpeed="0.00" departDelay="9.00" arrival="125.00" arrivalLane="485211947#0_0" arrivalPos="125.75" arrivalSpeed="14.44" duration="86.00" routeLength="349.69" waitingTime="28.00" waitingCount="1" stopTime="0.00" timeLoss="63.61" rerouteNo="0" devices="tripinfo_flow_route_45_duration_20250327_2100.6" vType="car" speedFactor="0.99" vaporized=""/>
    <tripinfo id="flow_route_45_duration_20250327_2100.7" depart="52.00" departLane="791826085_0" departPos="209.09" departSpeed="0.00" departDelay="17.00" arrival="125.00" arrivalLane="485211947#0_0" arrivalPos="162.23" arrivalSpeed="14.78" duration="73.00" routeLength="288.90" waitingTime="28.00" waitingCount="1" stopTime="0.00" timeLoss="52.62" rerouteNo="0" devices="tripinfo_flow_route_45_duration_20250327_2100.7" vType="car" speedFactor="0.90" vaporized=""/>
    <tripinfo id="flow_route_44_duration_20250327_2100.19" depart="67.00" departLane="791826085_0" departPos="67.67" departSpeed="0.00" departDelay="19.50" arrival="125.00" arrivalLane="134193294#0_1" arrivalPos="59.11" arrivalSpeed="16.32" duration="58.00" routeLength="345.80" waitingTime="8.00" waitingCount="1" stopTime="0.00" timeLoss="37.02" rerouteNo="0" devices="tripinfo_flow_route_44_duration_20250327_2100.19" vType="car" speedFactor="1.02" vaporized=""/>
    <tripinfo id="flow_route_46_duration_20250327_2100.6" depart="27.00" departLane="791826085_0" departPos="58.92" departSpeed="0.00" departDelay="7.00" arrival="126.00" arrivalLane="1328664748#0_1" arrivalPos="129.06" arrivalSpeed="14.44" duration="99.00" routeLength="418.93" waitingTime="40.00" waitingCount="1" stopTime="0.00" timeLoss="68.79" rerouteNo="0" devices="tripinfo_flow_route_46_duration_20250327_2100.6" vType="car" speedFactor="0.87" vaporized=""/>
    <tripinfo id="flow_route_45_duration_20250327_2100.9" depart="63.00" departLane="791826085_0" departPos="158.97" departSpeed="0.00" departDelay="18.00" arrival="126.00" arrivalLane="485211947#0_0" arrivalPos="72.39" arrivalSpeed="10.78" duration="63.00" routeLength="249.18" waitingTime="17.00" waitingCount="1" stopTime="0.00" timeLoss="44.26" rerouteNo="0" devices="tripinfo_flow_route_45_duration_20250327_2100.9" vType="car" speedFactor="0.85" vaporized=""/>
    <tripinfo id="flow_route_46_duration_20250327_2100.11" depart="53.00" departLane="791826085_0" departPos="179.12" departSpeed="0.00" departDelay="16.34" arrival="127.00" arrivalLane="1328664748#0_1" arrivalPos="101.41" arrivalSpeed="15.61" duration="74.00" routeLength="271.07" waitingTime="33.00" waitingCount="1" stopTime="0.00" timeLoss="55.95" rerouteNo="0" devices="tripinfo_flow_route_46_duration_20250327_2100.11" vType="car" speedFactor="0.96" vaporized=""/>
    <tripinfo id="flow_route_46_duration_20250327_2100.12" depart="59.00" departLane="791826085_0" departPos="158.63" departSpeed="0.00" departDelay="19.00" arrival="132.00" arrivalLane="1328664748#0_1" arrivalPos="147.25" arrivalSpeed="16.25" duration="73.00" routeLength="337.40" waitingTime="26.00" waitingCount="2" stopTime="0.00" timeLoss="51.41" rerouteNo="0" devices="tripinfo_flow_route_46_duration_20250327_2100.12" vType="car" speedFactor="1.09" vaporized=""/>
    <tripinfo id="flow_route_45_duration_20250327_2100.10" depart="70.00" departLane="791826085_0" departPos="145.00" departSpeed="0.00" departDelay="20.00" arrival="219.00" arrivalLane="485211947#0_0" arrivalPos="70.31" arrivalSpeed="11.23" duration="149.00" routeLength="261.07" waitingTime="95.00" waitingCount="2" stopTime="0.00" timeLoss="132.36" rerouteNo="0" devices="tripinfo_flow_route_45_duration_20250327_2100.10" vType="car" speedFactor="1.00" vaporized=""/>
    <tripinfo id="flow_route_44_duration_20250327_2100.22" depart="77.00" departLane="791826085_0" departPos="63.71" departSpeed="0.00" departDelay="22.00" arrival="220.00" arrivalLane="134193294#0_1" arrivalPos="28.73" arrivalSpeed="9.78" duration="143.00" routeLength="319.40" waitingTime="83.00" waitingCount="2" stopTime="0.00" timeLoss="123.58" rerouteNo="0" devices="tripinfo_flow_route_44_duration_20250327_2100.22" vType="car" speedFactor="1.02" vaporized=""/>
    <tripinfo id="flow_route_45_duration_20250327_2100.8" depart="57.00" departLane="791826085_0" departPos="0.28" departSpeed="0.00" departDelay="17.00" arrival="223.00" arrivalLane="485211947#0_0" arrivalPos="86.41" arrivalSpeed="12.32" duration="166.00" routeLength="421.89" waitingTime="89.00" waitingCount="2" stopTime="0.00" timeLoss="139.54" rerouteNo="0" devices="tripinfo_flow_route_45_duration_20250327_2100.8" vType="car" speedFactor="1.04" vaporized=""/>
    <tripinfo id="flow_route_46_duration_20250327_2100.13" depart="60.00" departLane="791826085_0" departPos="37.29" departSpeed="0.00" departDelay="16.67" arrival="224.00" arrivalLane="1328664748#0_1" arrivalPos="82.68" arrivalSpeed="12.90" duration="164.00" routeLength="394.18" waitingTime="95.00" waitingCount="3" stopTime="0.00" timeLoss="136.54" rerouteNo="0" devices="tripinfo_flow_route_46_duration_20250327_2100.13" vType="car" speedFactor="0.90" vaporized=""/>
    <tripinfo id="flow_route_45_duration_20250327_2100.11" depart="79.00" departLane="791826085_0" departPos="81.70" departSpeed="0.00" departDelay="24.00" arrival="226.00" arrivalLane="485211947#0_0" arrivalPos="64.08" arrivalSpeed="10.96" duration="147.00" routeLength="318.14" waitingTime="82.00" waitingCount="1" stopTime="0.00" timeLoss="125.98" rerouteNo="0" devices="tripinfo_flow_route_45_duration_20250327_2100.11" vType="car" speedFactor="0.97" vaporized=""/>
    <tripinfo id="flow_route_46_duration_20250327_2100.17" depart="80.00" departLane="791826085_0" departPos="151.92" departSpeed="0.00" departDelay="23.34" arrival="226.00" arrivalLane="1328664748#0_1" arrivalPos="75.39" arrivalSpeed="12.59" duration="146.00" routeLength="272.26" waitingTime="92.00" waitingCount="2" stopTime="0.00" timeLoss="128.32" rerouteNo="0" devices="tripinfo_flow_route_46_duration_20250327_2100.17" vType="car" speedFactor="1.08" vaporized=""/>
    <tripinfo id="flow_route_42_duration_20250327_2100.0" depart="0.00" departLane="1328664744#0_0" departPos="165.30" departSpeed="0.00" departDelay="0.00" arrival="228.00" arrivalLane="133126030#0_0" arrivalPos="8.43" arrivalSpeed="5.50" duration="228.00" routeLength="669.86" waitingTime="136.00" waitingCount="3" stopTime="0.00" timeLoss="185.06" rerouteNo="0" devices="tripinfo_flow_route_42_duration_20250327_2100.0" vType="car" speedFactor="1.01" vaporized=""/>
    <tripinfo id="flow_route_44_duration_20250327_2100.21" depart="73.00" departLane="791826085_0" departPos="42.23" departSpeed="0.00" departDelay="20.50" arrival="228.00" arrivalLane="134193294#0_1" arrivalPos="162.07" arrivalSpeed="14.69" duration="155.00" routeLength="474.21" waitingTime="88.00" waitingCount="2" stopTime="0.00" timeLoss="123.32" rerouteNo="0" devices="tripinfo_flow_route_44_duration_20250327_2100.21" vType="car" speedFactor="0.90" vaporized=""/>
    <tripinfo id="flow_route_46_duration_20250327_2100.14" depart="67.00" departLane="791826085_0" departPos="108.55" departSpeed="0.00" departDelay="20.34" arrival="229.00" arrivalLane="1328664748#0_1" arrivalPos="188.11" arrivalSpeed="14.18" duration="162.00" routeLength="428.36" waitingTime="96.00" waitingCount="3" stopTime="0.00" timeLoss="130.70" rerouteNo="0" devices="tripinfo_flow_route_46_duration_20250327_2100.14" vType="car" speedFactor="0.85" vaporized=""/>
    <tripinfo id="flow_route_44_duration_20250327_2100.23" depart="87.00" departLane="791826085_0" departPos="131.53" departSpeed="0.00" departDelay="29.50" arrival="232.00" arrivalLane="134193294#0_0" arrivalPos="157.58" arrivalSpeed="16.36" duration="145.00" routeLength="380.42" waitingTime="83.00" waitingCount="1" stopTime="0.00" timeLoss="121.80" rerouteNo="0" devices="tripinfo_flow_route_44_duration_20250327_2100.23" vType="car" speedFactor="1.12" vaporized=""/>
    <tripinfo id="flow_route_46_duration_20250327_2100.15" depart="72.00" departLane="791826085_0" departPos="51.40" departSpeed="0.00" departDelay="22.01" arrival="233.00" arrivalLane="1328664748#0_1" arrivalPos="151.48" arrivalSpeed="16.31" duration="161.00" routeLength="448.87" waitingTime="88.00" waitingCount="2" stopTime="0.00" timeLoss="132.27" rerouteNo="0" devices="tripinfo_flow_route_46_duration_20250327_2100.15" vType="car" speedFactor="1.00" vaporized=""/>
    <tripinfo id="flow_route_46_duration_20250327_2100.16" depart="75.00" departLane="791826085_0" departPos="31.86" departSpeed="0.00" departDelay="21.67" arrival="237.00" arrivalLane="1328664748#0_1" arrivalPos="197.40" arrivalSpeed="16.15" duration="162.00" routeLength="514.32" waitingTime="86.00" waitingCount="2" stopTime="0.00" timeLoss="130.17" rerouteNo="0" devices="tripinfo_flow_route_46_duration_20250327_2100.16" vType="car" speedFactor="1.14" vaporized=""/>
</tripinfos>
