<?xml version="1.0" encoding="UTF-8"?>

<!-- generated on 2025-05-06 21:08:12 by Eclipse SUMO sumo Version 1.20.0
<configuration xmlns:xsi="http://www.w3.org/2001/XMLSchema-instance" xsi:noNamespaceSchemaLocation="http://sumo.dlr.de/xsd/sumoConfiguration.xsd">

    <input>
        <net-file value="osm.net.xml"/>
        <route-files value="xml/route_rl_cluster_11644940323_11644940324_3828703845_3.rou.xml"/>
    </input>

    <output>
        <tripinfo-output value="xml/tripinfo_rl_cluster_11644940323_11644940324_3828703845_3.xml"/>
    </output>

    <traci_server>
        <remote-port value="58719"/>
    </traci_server>

</configuration>
-->

<tripinfos xmlns:xsi="http://www.w3.org/2001/XMLSchema-instance" xsi:noNamespaceSchemaLocation="http://sumo.dlr.de/xsd/tripinfo_file.xsd">
    <tripinfo id="flow_route_3_duration_20250327_2240.0" depart="0.00" departLane="1318793173#0_0" departPos="80.53" departSpeed="0.00" departDelay="0.00" arrival="19.00" arrivalLane="291974733#0_1" arrivalPos="66.76" arrivalSpeed="13.99" duration="19.00" routeLength="123.20" waitingTime="0.00" waitingCount="0" stopTime="0.00" timeLoss="10.27" rerouteNo="0" devices="tripinfo_flow_route_3_duration_20250327_2240.0" vType="car" speedFactor="0.94" vaporized=""/>
    <tripinfo id="flow_route_2_duration_20250327_2240.0" depart="0.00" departLane="1318793173#0_0" departPos="58.93" departSpeed="0.00" departDelay="0.00" arrival="20.00" arrivalLane="189835257_0" arrivalPos="46.92" arrivalSpeed="15.82" duration="20.00" routeLength="167.93" waitingTime="0.00" waitingCount="0" stopTime="0.00" timeLoss="9.27" rerouteNo="0" devices="tripinfo_flow_route_2_duration_20250327_2240.0" vType="car" speedFactor="1.06" vaporized=""/>
    <tripinfo id="flow_route_16_duration_20250327_2240.0" depart="0.00" departLane="137406408#0_0" departPos="52.27" departSpeed="0.00" departDelay="0.00" arrival="20.00" arrivalLane="133126040#0_0" arrivalPos="80.39" arrivalSpeed="14.24" duration="20.00" routeLength="149.31" waitingTime="0.00" waitingCount="0" stopTime="0.00" timeLoss="11.00" rerouteNo="0" devices="tripinfo_flow_route_16_duration_20250327_2240.0" vType="car" speedFactor="1.05" vaporized=""/>
    <tripinfo id="flow_route_17_duration_20250327_2240.0" depart="0.00" departLane="137406408#0_0" departPos="24.41" departSpeed="0.00" departDelay="0.00" arrival="22.00" arrivalLane="1254771874#0_0" arrivalPos="63.27" arrivalSpeed="16.22" duration="22.00" routeLength="182.06" waitingTime="0.00" waitingCount="0" stopTime="0.00" timeLoss="9.94" rerouteNo="0" devices="tripinfo_flow_route_17_duration_20250327_2240.0" vType="car" speedFactor="0.89" vaporized=""/>
    <tripinfo id="flow_route_9_duration_20250327_2240.0" depart="0.00" departLane="1318793173#0_0" departPos="0.65" departSpeed="0.00" departDelay="0.00" arrival="24.00" arrivalLane="1254771874#0_1" arrivalPos="11.63" arrivalSpeed="10.98" duration="24.00" routeLength="169.44" waitingTime="0.00" waitingCount="0" stopTime="0.00" timeLoss="12.45" rerouteNo="0" devices="tripinfo_flow_route_9_duration_20250327_2240.0" vType="car" speedFactor="1.01" vaporized=""/>
    <tripinfo id="flow_route_2_duration_20250327_2240.2" depart="12.00" departLane="1318793173#0_0" departPos="101.48" departSpeed="0.00" departDelay="0.00" arrival="29.00" arrivalLane="189835257_0" arrivalPos="33.36" arrivalSpeed="12.44" duration="17.00" routeLength="111.82" waitingTime="0.00" waitingCount="0" stopTime="0.00" timeLoss="9.55" rerouteNo="0" devices="tripinfo_flow_route_2_duration_20250327_2240.2" vType="car" speedFactor="1.03" vaporized=""/>
    <tripinfo id="flow_route_2_duration_20250327_2240.1" depart="6.00" departLane="1318793173#0_0" departPos="34.79" departSpeed="0.00" departDelay="0.00" arrival="32.00" arrivalLane="189835257_0" arrivalPos="46.11" arrivalSpeed="13.98" duration="26.00" routeLength="191.25" waitingTime="0.00" waitingCount="0" stopTime="0.00" timeLoss="12.87" rerouteNo="0" devices="tripinfo_flow_route_2_duration_20250327_2240.1" vType="car" speedFactor="0.94" vaporized=""/>
    <tripinfo id="flow_route_9_duration_20250327_2240.1" depart="10.00" departLane="1318793173#0_0" departPos="55.44" departSpeed="0.00" departDelay="0.00" arrival="40.00" arrivalLane="1254771874#0_1" arrivalPos="174.74" arrivalSpeed="16.22" duration="30.00" routeLength="277.78" waitingTime="0.00" waitingCount="0" stopTime="0.00" timeLoss="11.41" rerouteNo="0" devices="tripinfo_flow_route_9_duration_20250327_2240.1" vType="car" speedFactor="0.86" vaporized=""/>
    <tripinfo id="flow_route_2_duration_20250327_2240.3" depart="19.00" departLane="1318793173#0_0" departPos="42.86" departSpeed="0.00" departDelay="1.00" arrival="41.00" arrivalLane="189835257_0" arrivalPos="43.41" arrivalSpeed="15.54" duration="22.00" routeLength="180.49" waitingTime="0.00" waitingCount="0" stopTime="0.00" timeLoss="10.35" rerouteNo="0" devices="tripinfo_flow_route_2_duration_20250327_2240.3" vType="car" speedFactor="1.05" vaporized=""/>
    <tripinfo id="flow_route_9_duration_20250327_2240.2" depart="20.00" departLane="1318793173#0_0" departPos="82.62" departSpeed="0.00" departDelay="0.00" arrival="47.00" arrivalLane="1254771874#0_1" arrivalPos="139.14" arrivalSpeed="16.51" duration="27.00" routeLength="214.99" waitingTime="0.00" waitingCount="0" stopTime="0.00" timeLoss="12.12" rerouteNo="0" devices="tripinfo_flow_route_9_duration_20250327_2240.2" vType="car" speedFactor="1.12" vaporized=""/>
    <tripinfo id="flow_route_2_duration_20250327_2240.4" depart="24.00" departLane="1318793173#0_0" departPos="13.55" departSpeed="0.00" departDelay="0.00" arrival="47.00" arrivalLane="189835257_0" arrivalPos="6.81" arrivalSpeed="14.23" duration="23.00" routeLength="173.20" waitingTime="0.00" waitingCount="0" stopTime="0.00" timeLoss="10.74" rerouteNo="0" devices="tripinfo_flow_route_2_duration_20250327_2240.4" vType="car" speedFactor="0.94" vaporized=""/>
    <tripinfo id="flow_route_2_duration_20250327_2240.6" depart="38.00" departLane="1318793173#0_0" departPos="64.43" departSpeed="0.00" departDelay="2.00" arrival="56.00" arrivalLane="189835257_0" arrivalPos="4.69" arrivalSpeed="13.60" duration="18.00" routeLength="120.19" waitingTime="0.00" waitingCount="0" stopTime="0.00" timeLoss="9.51" rerouteNo="0" devices="tripinfo_flow_route_2_duration_20250327_2240.6" vType="car" speedFactor="0.97" vaporized=""/>
    <tripinfo id="flow_route_2_duration_20250327_2240.5" depart="30.00" departLane="1318793173#0_0" departPos="18.15" departSpeed="0.00" departDelay="0.00" arrival="59.00" arrivalLane="189835257_0" arrivalPos="21.66" arrivalSpeed="14.51" duration="29.00" routeLength="183.45" waitingTime="0.00" waitingCount="0" stopTime="0.00" timeLoss="16.36" rerouteNo="0" devices="tripinfo_flow_route_2_duration_20250327_2240.5" vType="car" speedFactor="0.94" vaporized=""/>
    <tripinfo id="flow_route_9_duration_20250327_2240.3" depart="30.00" departLane="1318793173#0_0" departPos="61.77" departSpeed="0.00" departDelay="0.00" arrival="63.00" arrivalLane="1254771874#0_1" arrivalPos="246.56" arrivalSpeed="16.44" duration="33.00" routeLength="343.25" waitingTime="0.00" waitingCount="0" stopTime="0.00" timeLoss="11.32" rerouteNo="0" devices="tripinfo_flow_route_9_duration_20250327_2240.3" vType="car" speedFactor="1.16" vaporized=""/>
    <tripinfo id="flow_route_2_duration_20250327_2240.7" depart="42.00" departLane="1318793173#0_0" departPos="30.13" departSpeed="0.00" departDelay="0.00" arrival="64.00" arrivalLane="189835257_0" arrivalPos="8.00" arrivalSpeed="13.38" duration="22.00" routeLength="157.80" waitingTime="0.00" waitingCount="0" stopTime="0.00" timeLoss="11.12" rerouteNo="0" devices="tripinfo_flow_route_2_duration_20250327_2240.7" vType="car" speedFactor="0.95" vaporized=""/>
    <tripinfo id="flow_route_9_duration_20250327_2240.4" depart="41.00" departLane="1318793173#0_0" departPos="103.20" departSpeed="0.00" departDelay="1.00" arrival="66.00" arrivalLane="1254771874#0_1" arrivalPos="176.79" arrivalSpeed="16.33" duration="25.00" routeLength="232.06" waitingTime="0.00" waitingCount="0" stopTime="0.00" timeLoss="9.30" rerouteNo="0" devices="tripinfo_flow_route_9_duration_20250327_2240.4" vType="car" speedFactor="0.89" vaporized=""/>
    <tripinfo id="flow_route_2_duration_20250327_2240.9" depart="54.00" departLane="1318793173#0_0" departPos="61.29" departSpeed="0.00" departDelay="0.00" arrival="73.00" arrivalLane="189835257_0" arrivalPos="4.53" arrivalSpeed="13.15" duration="19.00" routeLength="123.18" waitingTime="0.00" waitingCount="0" stopTime="0.00" timeLoss="10.62" rerouteNo="0" devices="tripinfo_flow_route_2_duration_20250327_2240.9" vType="car" speedFactor="1.15" vaporized=""/>
    <tripinfo id="flow_route_9_duration_20250327_2240.5" depart="50.00" departLane="1318793173#0_0" departPos="33.92" departSpeed="0.00" departDelay="0.00" arrival="75.00" arrivalLane="1254771874#0_1" arrivalPos="45.75" arrivalSpeed="13.05" duration="25.00" routeLength="170.30" waitingTime="0.00" waitingCount="0" stopTime="0.00" timeLoss="12.96" rerouteNo="0" devices="tripinfo_flow_route_9_duration_20250327_2240.5" vType="car" speedFactor="0.93" vaporized=""/>
    <tripinfo id="flow_route_2_duration_20250327_2240.8" depart="49.00" departLane="1318793173#0_0" departPos="7.24" departSpeed="0.00" departDelay="1.00" arrival="76.00" arrivalLane="189835257_0" arrivalPos="28.79" arrivalSpeed="14.78" duration="27.00" routeLength="201.50" waitingTime="0.00" waitingCount="0" stopTime="0.00" timeLoss="14.13" rerouteNo="0" devices="tripinfo_flow_route_2_duration_20250327_2240.8" vType="car" speedFactor="1.13" vaporized=""/>
    <tripinfo id="flow_route_13_duration_20250327_2240.0" depart="0.00" departLane="1252820503#0_0" departPos="99.64" departSpeed="0.00" departDelay="0.00" arrival="85.00" arrivalLane="291974733#0_0" arrivalPos="46.05" arrivalSpeed="8.89" duration="85.00" routeLength="103.57" waitingTime="60.00" waitingCount="1" stopTime="0.00" timeLoss="78.11" rerouteNo="0" devices="tripinfo_flow_route_13_duration_20250327_2240.0" vType="car" speedFactor="1.08" vaporized=""/>
    <tripinfo id="flow_route_15_duration_20250327_2240.0" depart="1.00" departLane="1252820503#0_0" departPos="8.92" departSpeed="0.00" departDelay="1.00" arrival="85.00" arrivalLane="133126040#0_1" arrivalPos="4.72" arrivalSpeed="7.57" duration="84.00" routeLength="174.98" waitingTime="52.00" waitingCount="1" stopTime="0.00" timeLoss="72.76" rerouteNo="0" devices="tripinfo_flow_route_15_duration_20250327_2240.0" vType="car" speedFactor="0.83" vaporized=""/>
    <tripinfo id="flow_route_14_duration_20250327_2240.1" depart="10.00" departLane="1252820503#0_0" departPos="45.46" departSpeed="0.00" departDelay="0.00" arrival="89.00" arrivalLane="1254771874#0_0" arrivalPos="11.81" arrivalSpeed="10.75" duration="79.00" routeLength="176.23" waitingTime="48.00" waitingCount="1" stopTime="0.00" timeLoss="68.33" rerouteNo="0" devices="tripinfo_flow_route_14_duration_20250327_2240.1" vType="car" speedFactor="1.09" vaporized=""/>
    <tripinfo id="flow_route_13_duration_20250327_2240.1" depart="20.00" departLane="1252820503#0_0" departPos="23.56" departSpeed="0.00" departDelay="0.00" arrival="90.00" arrivalLane="291974733#0_0" arrivalPos="22.18" arrivalSpeed="7.72" duration="70.00" routeLength="155.78" waitingTime="36.00" waitingCount="1" stopTime="0.00" timeLoss="59.15" rerouteNo="0" devices="tripinfo_flow_route_13_duration_20250327_2240.1" vType="car" speedFactor="0.99" vaporized=""/>
    <tripinfo id="flow_route_15_duration_20250327_2240.1" depart="30.00" departLane="1252820503#0_0" departPos="120.17" departSpeed="0.00" departDelay="0.00" arrival="90.00" arrivalLane="133126040#0_1" arrivalPos="24.13" arrivalSpeed="9.60" duration="60.00" routeLength="83.14" waitingTime="38.00" waitingCount="1" stopTime="0.00" timeLoss="54.82" rerouteNo="0" devices="tripinfo_flow_route_15_duration_20250327_2240.1" vType="car" speedFactor="1.01" vaporized=""/>
    <tripinfo id="flow_route_14_duration_20250327_2240.2" depart="22.00" departLane="1252820503#0_0" departPos="49.05" departSpeed="0.00" departDelay="2.00" arrival="91.00" arrivalLane="1254771874#0_0" arrivalPos="8.29" arrivalSpeed="10.89" duration="69.00" routeLength="169.12" waitingTime="37.00" waitingCount="1" stopTime="0.00" timeLoss="58.60" rerouteNo="0" devices="tripinfo_flow_route_14_duration_20250327_2240.2" vType="car" speedFactor="0.93" vaporized=""/>
    <tripinfo id="flow_route_14_duration_20250327_2240.0" depart="0.00" departLane="1252820503#0_0" departPos="69.02" departSpeed="0.00" departDelay="0.00" arrival="97.00" arrivalLane="1254771874#0_0" arrivalPos="150.80" arrivalSpeed="16.32" duration="97.00" routeLength="291.67" waitingTime="57.00" waitingCount="1" stopTime="0.00" timeLoss="79.25" rerouteNo="0" devices="tripinfo_flow_route_14_duration_20250327_2240.0" vType="car" speedFactor="1.03" vaporized=""/>
    <tripinfo id="flow_route_14_duration_20250327_2240.3" depart="30.00" departLane="1252820503#0_0" departPos="35.74" departSpeed="0.00" departDelay="0.00" arrival="98.00" arrivalLane="1254771874#0_1" arrivalPos="67.50" arrivalSpeed="15.44" duration="68.00" routeLength="241.64" waitingTime="29.00" waitingCount="1" stopTime="0.00" timeLoss="52.81" rerouteNo="0" devices="tripinfo_flow_route_14_duration_20250327_2240.3" vType="car" speedFactor="1.02" vaporized=""/>
    <tripinfo id="flow_route_13_duration_20250327_2240.2" depart="41.00" departLane="1252820503#0_0" departPos="27.15" departSpeed="0.00" departDelay="1.00" arrival="100.00" arrivalLane="291974733#0_0" arrivalPos="87.61" arrivalSpeed="12.34" duration="59.00" routeLength="217.63" waitingTime="18.00" waitingCount="1" stopTime="0.00" timeLoss="43.21" rerouteNo="0" devices="tripinfo_flow_route_13_duration_20250327_2240.2" vType="car" speedFactor="0.83" vaporized=""/>
    <tripinfo id="flow_route_14_duration_20250327_2240.4" depart="42.00" departLane="1252820503#0_0" departPos="4.12" departSpeed="0.00" departDelay="2.00" arrival="110.00" arrivalLane="1254771874#0_1" arrivalPos="245.38" arrivalSpeed="16.25" duration="68.00" routeLength="451.14" waitingTime="15.00" waitingCount="1" stopTime="0.00" timeLoss="40.64" rerouteNo="0" devices="tripinfo_flow_route_14_duration_20250327_2240.4" vType="car" speedFactor="0.87" vaporized=""/>
    <tripinfo id="flow_route_14_duration_20250327_2240.5" depart="50.00" departLane="1252820503#0_0" departPos="50.19" departSpeed="0.00" departDelay="0.00" arrival="113.00" arrivalLane="1254771874#0_0" arrivalPos="253.64" arrivalSpeed="16.12" duration="63.00" routeLength="413.33" waitingTime="15.00" waitingCount="1" stopTime="0.00" timeLoss="37.61" rerouteNo="0" devices="tripinfo_flow_route_14_duration_20250327_2240.5" vType="car" speedFactor="1.18" vaporized=""/>
    <tripinfo id="flow_route_16_duration_20250327_2240.1" depart="20.00" departLane="137406408#0_0" departPos="2.75" departSpeed="0.00" departDelay="0.00" arrival="123.00" arrivalLane="133126040#0_0" arrivalPos="32.64" arrivalSpeed="9.30" duration="103.00" routeLength="151.08" waitingTime="72.00" waitingCount="1" stopTime="0.00" timeLoss="92.32" rerouteNo="0" devices="tripinfo_flow_route_16_duration_20250327_2240.1" vType="car" speedFactor="0.88" vaporized=""/>
    <tripinfo id="flow_route_16_duration_20250327_2240.2" depart="40.00" departLane="137406408#0_0" departPos="15.54" departSpeed="0.00" departDelay="0.00" arrival="123.00" arrivalLane="133126040#0_1" arrivalPos="33.29" arrivalSpeed="9.92" duration="83.00" routeLength="138.94" waitingTime="53.00" waitingCount="1" stopTime="0.00" timeLoss="73.39" rerouteNo="0" devices="tripinfo_flow_route_16_duration_20250327_2240.2" vType="car" speedFactor="0.92" vaporized=""/>
</tripinfos>
