<?xml version="1.0" encoding="UTF-8"?>

<!-- generated on 2025-05-06 21:08:11 by Eclipse SUMO sumo Version 1.20.0
<configuration xmlns:xsi="http://www.w3.org/2001/XMLSchema-instance" xsi:noNamespaceSchemaLocation="http://sumo.dlr.de/xsd/sumoConfiguration.xsd">

    <input>
        <net-file value="osm.net.xml"/>
        <route-files value="xml/route_rl_cluster_11648561419_11648561420_2271142975_4854142869_3.rou.xml"/>
    </input>

    <output>
        <tripinfo-output value="xml/tripinfo_rl_cluster_11648561419_11648561420_2271142975_4854142869_3.xml"/>
    </output>

    <traci_server>
        <remote-port value="42941"/>
    </traci_server>

</configuration>
-->

<tripinfos xmlns:xsi="http://www.w3.org/2001/XMLSchema-instance" xsi:noNamespaceSchemaLocation="http://sumo.dlr.de/xsd/tripinfo_file.xsd">
    <tripinfo id="flow_route_119_duration_20250327_2210.0" depart="0.00" departLane="134194079#0_0" departPos="151.34" departSpeed="0.00" departDelay="0.00" arrival="23.00" arrivalLane="1253188486#8_0" arrivalPos="1.48" arrivalSpeed="9.51" duration="23.00" routeLength="161.10" waitingTime="0.00" waitingCount="0" stopTime="0.00" timeLoss="12.30" rerouteNo="0" devices="tripinfo_flow_route_119_duration_20250327_2210.0" vType="car" speedFactor="1.09" vaporized=""/>
    <tripinfo id="flow_route_97_duration_20250327_2210.0" depart="0.00" departLane="1328664748#0_0" departPos="149.74" departSpeed="0.00" departDelay="0.00" arrival="27.00" arrivalLane="135474719#0_0" arrivalPos="137.46" arrivalSpeed="15.89" duration="27.00" routeLength="222.45" waitingTime="0.00" waitingCount="0" stopTime="0.00" timeLoss="12.53" rerouteNo="0" devices="tripinfo_flow_route_97_duration_20250327_2210.0" vType="car" speedFactor="1.06" vaporized=""/>
    <tripinfo id="flow_route_98_duration_20250327_2210.0" depart="0.00" departLane="1328664748#0_0" departPos="103.72" departSpeed="0.00" departDelay="0.00" arrival="27.00" arrivalLane="177211987#1_0" arrivalPos="104.29" arrivalSpeed="15.20" duration="27.00" routeLength="249.04" waitingTime="0.00" waitingCount="0" stopTime="0.00" timeLoss="10.90" rerouteNo="0" devices="tripinfo_flow_route_98_duration_20250327_2210.0" vType="car" speedFactor="0.94" vaporized=""/>
    <tripinfo id="flow_route_118_duration_20250327_2210.2" depart="10.00" departLane="134194079#0_0" departPos="97.74" departSpeed="0.00" departDelay="0.00" arrival="37.00" arrivalLane="1328664744#0_1" arrivalPos="6.62" arrivalSpeed="15.50" duration="27.00" routeLength="230.02" waitingTime="0.00" waitingCount="0" stopTime="0.00" timeLoss="11.38" rerouteNo="0" devices="tripinfo_flow_route_118_duration_20250327_2210.2" vType="car" speedFactor="0.94" vaporized=""/>
    <tripinfo id="flow_route_118_duration_20250327_2210.3" depart="15.00" departLane="134194079#0_0" departPos="197.11" departSpeed="0.00" departDelay="0.00" arrival="37.00" arrivalLane="1328664744#0_0" arrivalPos="53.55" arrivalSpeed="15.99" duration="22.00" routeLength="177.59" waitingTime="0.00" waitingCount="0" stopTime="0.00" timeLoss="10.22" rerouteNo="0" devices="tripinfo_flow_route_118_duration_20250327_2210.3" vType="car" speedFactor="0.97" vaporized=""/>
    <tripinfo id="flow_route_118_duration_20250327_2210.1" depart="5.00" departLane="134194079#0_0" departPos="117.00" departSpeed="0.00" departDelay="0.00" arrival="40.00" arrivalLane="1328664744#0_1" arrivalPos="182.87" arrivalSpeed="16.52" duration="35.00" routeLength="387.02" waitingTime="0.00" waitingCount="0" stopTime="0.00" timeLoss="11.03" rerouteNo="0" devices="tripinfo_flow_route_118_duration_20250327_2210.1" vType="car" speedFactor="1.05" vaporized=""/>
    <tripinfo id="flow_route_119_duration_20250327_2210.2" depart="12.00" departLane="134194079#0_0" departPos="121.36" departSpeed="0.00" departDelay="0.00" arrival="40.00" arrivalLane="1253188486#8_0" arrivalPos="30.76" arrivalSpeed="9.59" duration="28.00" routeLength="220.36" waitingTime="0.00" waitingCount="0" stopTime="0.00" timeLoss="12.90" rerouteNo="0" devices="tripinfo_flow_route_119_duration_20250327_2210.2" vType="car" speedFactor="0.94" vaporized=""/>
    <tripinfo id="flow_route_118_duration_20250327_2210.0" depart="0.00" departLane="134194079#0_0" departPos="13.63" departSpeed="0.00" departDelay="0.00" arrival="43.00" arrivalLane="1328664744#0_1" arrivalPos="165.30" arrivalSpeed="14.25" duration="43.00" routeLength="472.83" waitingTime="0.00" waitingCount="0" stopTime="0.00" timeLoss="9.51" rerouteNo="0" devices="tripinfo_flow_route_118_duration_20250327_2210.0" vType="car" speedFactor="0.86" vaporized=""/>
    <tripinfo id="flow_route_99_duration_20250327_2210.0" depart="1.00" departLane="1328664748#0_0" departPos="68.32" departSpeed="0.00" departDelay="1.00" arrival="47.00" arrivalLane="1253188486#8_2" arrivalPos="11.16" arrivalSpeed="7.82" duration="46.00" routeLength="200.71" waitingTime="12.00" waitingCount="1" stopTime="0.00" timeLoss="32.95" rerouteNo="0" devices="tripinfo_flow_route_99_duration_20250327_2210.0" vType="car" speedFactor="1.01" vaporized=""/>
    <tripinfo id="flow_route_99_duration_20250327_2210.1" depart="20.00" departLane="1328664748#0_0" departPos="40.80" departSpeed="0.00" departDelay="0.00" arrival="58.00" arrivalLane="1253188486#8_2" arrivalPos="120.85" arrivalSpeed="15.20" duration="38.00" routeLength="337.92" waitingTime="0.00" waitingCount="0" stopTime="0.00" timeLoss="14.74" rerouteNo="0" devices="tripinfo_flow_route_99_duration_20250327_2210.1" vType="car" speedFactor="0.87" vaporized=""/>
    <tripinfo id="flow_route_99_duration_20250327_2210.2" depart="40.00" departLane="1328664748#0_0" departPos="62.57" departSpeed="0.00" departDelay="0.00" arrival="70.00" arrivalLane="1253188486#8_2" arrivalPos="24.91" arrivalSpeed="9.92" duration="30.00" routeLength="220.21" waitingTime="0.00" waitingCount="0" stopTime="0.00" timeLoss="15.62" rerouteNo="0" devices="tripinfo_flow_route_99_duration_20250327_2210.2" vType="car" speedFactor="1.04" vaporized=""/>
    <tripinfo id="flow_route_110_duration_20250327_2210.0" depart="0.00" departLane="1254519225#0.109_0" departPos="3.76" departSpeed="0.00" departDelay="0.00" arrival="82.00" arrivalLane="177211987#1_2" arrivalPos="6.38" arrivalSpeed="7.90" duration="82.00" routeLength="190.24" waitingTime="49.00" waitingCount="1" stopTime="0.00" timeLoss="66.88" rerouteNo="0" devices="tripinfo_flow_route_110_duration_20250327_2210.0" vType="car" speedFactor="0.83" vaporized=""/>
    <tripinfo id="flow_route_108_duration_20250327_2210.0" depart="0.00" departLane="1254519225#0.109_0" departPos="35.33" departSpeed="0.00" departDelay="0.00" arrival="89.00" arrivalLane="135474719#0_0" arrivalPos="75.82" arrivalSpeed="13.62" duration="89.00" routeLength="240.24" waitingTime="51.00" waitingCount="1" stopTime="0.00" timeLoss="73.90" rerouteNo="0" devices="tripinfo_flow_route_108_duration_20250327_2210.0" vType="car" speedFactor="1.08" vaporized=""/>
    <tripinfo id="flow_route_109_duration_20250327_2210.2" depart="30.00" departLane="1254519225#0.109_0" departPos="38.38" departSpeed="0.00" departDelay="0.00" arrival="92.00" arrivalLane="1328664744#0_0" arrivalPos="64.34" arrivalSpeed="12.82" duration="62.00" routeLength="200.20" waitingTime="28.00" waitingCount="1" stopTime="0.00" timeLoss="48.78" rerouteNo="0" devices="tripinfo_flow_route_109_duration_20250327_2210.2" vType="car" speedFactor="0.99" vaporized=""/>
    <tripinfo id="flow_route_109_duration_20250327_2210.0" depart="0.00" departLane="1254519225#0.109_0" departPos="16.50" departSpeed="0.00" departDelay="0.00" arrival="93.00" arrivalLane="1328664744#0_0" arrivalPos="130.88" arrivalSpeed="15.75" duration="93.00" routeLength="288.61" waitingTime="49.00" waitingCount="1" stopTime="0.00" timeLoss="74.25" rerouteNo="0" devices="tripinfo_flow_route_109_duration_20250327_2210.0" vType="car" speedFactor="1.03" vaporized=""/>
    <tripinfo id="flow_route_109_duration_20250327_2210.1" depart="15.00" departLane="1254519225#0.109_0" departPos="5.55" departSpeed="0.00" departDelay="0.00" arrival="95.00" arrivalLane="1328664744#0_0" arrivalPos="126.81" arrivalSpeed="15.66" duration="80.00" routeLength="295.49" waitingTime="37.00" waitingCount="1" stopTime="0.00" timeLoss="60.37" rerouteNo="0" devices="tripinfo_flow_route_109_duration_20250327_2210.1" vType="car" speedFactor="1.01" vaporized=""/>
    <tripinfo id="flow_route_109_duration_20250327_2210.3" depart="45.00" departLane="1254519225#0.109_0" departPos="41.38" departSpeed="0.00" departDelay="0.00" arrival="104.00" arrivalLane="1328664744#0_0" arrivalPos="200.65" arrivalSpeed="14.03" duration="59.00" routeLength="333.49" waitingTime="15.00" waitingCount="1" stopTime="0.00" timeLoss="34.11" rerouteNo="0" devices="tripinfo_flow_route_109_duration_20250327_2210.3" vType="car" speedFactor="0.85" vaporized=""/>
    <tripinfo id="flow_route_113_duration_20250327_2210.2" depart="7.00" departLane="1253188486#4_0" departPos="117.09" departSpeed="0.00" departDelay="0.33" arrival="122.00" arrivalLane="1253188486#8_0" arrivalPos="7.95" arrivalSpeed="8.84" duration="115.00" routeLength="89.49" waitingTime="92.00" waitingCount="1" stopTime="0.00" timeLoss="109.52" rerouteNo="0" devices="tripinfo_flow_route_113_duration_20250327_2210.2" vType="car" speedFactor="0.99" vaporized=""/>
    <tripinfo id="flow_route_114_duration_20250327_2210.0" depart="0.00" departLane="1253188486#4_0" departPos="49.31" departSpeed="0.00" departDelay="0.00" arrival="124.00" arrivalLane="177211987#1_0" arrivalPos="36.23" arrivalSpeed="10.38" duration="124.00" routeLength="153.37" waitingTime="92.00" waitingCount="1" stopTime="0.00" timeLoss="113.01" rerouteNo="0" devices="tripinfo_flow_route_114_duration_20250327_2210.0" vType="car" speedFactor="0.89" vaporized=""/>
    <tripinfo id="flow_route_115_duration_20250327_2210.2" depart="16.00" departLane="1253188486#4_0" departPos="109.60" departSpeed="0.00" departDelay="2.67" arrival="126.00" arrivalLane="1328664744#0_2" arrivalPos="58.58" arrivalSpeed="12.71" duration="110.00" routeLength="134.39" waitingTime="83.00" waitingCount="1" stopTime="0.00" timeLoss="100.47" rerouteNo="0" devices="tripinfo_flow_route_115_duration_20250327_2210.2" vType="car" speedFactor="1.02" vaporized=""/>
    <tripinfo id="flow_route_115_duration_20250327_2210.0" depart="0.00" departLane="1253188486#4_0" departPos="104.70" departSpeed="0.00" departDelay="0.00" arrival="127.00" arrivalLane="1328664744#0_2" arrivalPos="120.97" arrivalSpeed="14.90" duration="127.00" routeLength="201.67" waitingTime="96.00" waitingCount="1" stopTime="0.00" timeLoss="113.37" rerouteNo="0" devices="tripinfo_flow_route_115_duration_20250327_2210.0" vType="car" speedFactor="0.94" vaporized=""/>
    <tripinfo id="flow_route_115_duration_20250327_2210.3" depart="20.00" departLane="1253188486#4_0" departPos="23.25" departSpeed="0.00" departDelay="0.00" arrival="128.00" arrivalLane="1328664744#0_2" arrivalPos="37.36" arrivalSpeed="11.42" duration="108.00" routeLength="199.50" waitingTime="73.00" waitingCount="1" stopTime="0.00" timeLoss="94.59" rerouteNo="0" devices="tripinfo_flow_route_115_duration_20250327_2210.3" vType="car" speedFactor="0.95" vaporized=""/>
    <tripinfo id="flow_route_115_duration_20250327_2210.1" depart="7.00" departLane="1253188486#4_0" departPos="24.37" departSpeed="0.00" departDelay="0.33" arrival="129.00" arrivalLane="1328664744#0_2" arrivalPos="66.95" arrivalSpeed="12.93" duration="122.00" routeLength="227.98" waitingTime="82.00" waitingCount="1" stopTime="0.00" timeLoss="106.46" rerouteNo="0" devices="tripinfo_flow_route_115_duration_20250327_2210.1" vType="car" speedFactor="0.93" vaporized=""/>
    <tripinfo id="flow_route_113_duration_20250327_2210.1" depart="5.00" departLane="1253188486#4_0" departPos="135.95" departSpeed="0.00" departDelay="1.67" arrival="130.00" arrivalLane="1253188486#8_0" arrivalPos="155.42" arrivalSpeed="16.29" duration="125.00" routeLength="218.10" waitingTime="96.00" waitingCount="1" stopTime="0.00" timeLoss="111.26" rerouteNo="0" devices="tripinfo_flow_route_113_duration_20250327_2210.1" vType="car" speedFactor="1.03" vaporized=""/>
    <tripinfo id="flow_route_115_duration_20250327_2210.4" depart="28.00" departLane="1253188486#4_0" departPos="53.89" departSpeed="0.00" departDelay="1.34" arrival="131.00" arrivalLane="1328664744#0_2" arrivalPos="40.08" arrivalSpeed="10.93" duration="103.00" routeLength="171.59" waitingTime="69.00" waitingCount="1" stopTime="0.00" timeLoss="92.22" rerouteNo="0" devices="tripinfo_flow_route_115_duration_20250327_2210.4" vType="car" speedFactor="1.17" vaporized=""/>
    <tripinfo id="flow_route_113_duration_20250327_2210.8" depart="28.00" departLane="1253188486#4_0" departPos="110.56" departSpeed="0.00" departDelay="1.34" arrival="132.00" arrivalLane="1253188486#8_0" arrivalPos="50.83" arrivalSpeed="13.68" duration="104.00" routeLength="138.89" waitingTime="78.00" waitingCount="1" stopTime="0.00" timeLoss="94.90" rerouteNo="0" devices="tripinfo_flow_route_113_duration_20250327_2210.8" vType="car" speedFactor="1.01" vaporized=""/>
    <tripinfo id="flow_route_113_duration_20250327_2210.9" depart="30.00" departLane="1253188486#4_0" departPos="59.69" departSpeed="0.00" departDelay="0.00" arrival="132.00" arrivalLane="1253188486#8_1" arrivalPos="52.10" arrivalSpeed="13.12" duration="102.00" routeLength="191.04" waitingTime="68.00" waitingCount="1" stopTime="0.00" timeLoss="90.31" rerouteNo="0" devices="tripinfo_flow_route_113_duration_20250327_2210.9" vType="car" speedFactor="1.02" vaporized=""/>
    <tripinfo id="flow_route_113_duration_20250327_2210.5" depart="17.00" departLane="1253188486#4_0" departPos="105.93" departSpeed="0.00" departDelay="0.34" arrival="133.00" arrivalLane="1253188486#8_1" arrivalPos="146.28" arrivalSpeed="16.56" duration="116.00" routeLength="238.98" waitingTime="81.00" waitingCount="1" stopTime="0.00" timeLoss="100.79" rerouteNo="0" devices="tripinfo_flow_route_113_duration_20250327_2210.5" vType="car" speedFactor="0.89" vaporized=""/>
    <tripinfo id="flow_route_113_duration_20250327_2210.0" depart="0.00" departLane="1253188486#4_0" departPos="134.10" departSpeed="0.00" departDelay="0.00" arrival="134.00" arrivalLane="1253188486#8_0" arrivalPos="182.35" arrivalSpeed="16.41" duration="134.00" routeLength="246.88" waitingTime="100.00" waitingCount="1" stopTime="0.00" timeLoss="118.37" rerouteNo="0" devices="tripinfo_flow_route_113_duration_20250327_2210.0" vType="car" speedFactor="1.05" vaporized=""/>
    <tripinfo id="flow_route_113_duration_20250327_2210.7" depart="26.00" departLane="1253188486#4_0" departPos="13.17" departSpeed="0.00" departDelay="2.67" arrival="135.00" arrivalLane="1253188486#8_1" arrivalPos="68.41" arrivalSpeed="13.85" duration="109.00" routeLength="253.87" waitingTime="67.00" waitingCount="1" stopTime="0.00" timeLoss="93.56" rerouteNo="0" devices="tripinfo_flow_route_113_duration_20250327_2210.7" vType="car" speedFactor="0.93" vaporized=""/>
    <tripinfo id="flow_route_115_duration_20250327_2210.7" depart="47.00" departLane="1253188486#4_0" departPos="104.28" departSpeed="0.00" departDelay="0.34" arrival="135.00" arrivalLane="1328664744#0_2" arrivalPos="61.52" arrivalSpeed="13.27" duration="88.00" routeLength="142.64" waitingTime="59.00" waitingCount="1" stopTime="0.00" timeLoss="78.14" rerouteNo="0" devices="tripinfo_flow_route_115_duration_20250327_2210.7" vType="car" speedFactor="1.02" vaporized=""/>
    <tripinfo id="flow_route_113_duration_20250327_2210.6" depart="20.00" departLane="1253188486#4_0" departPos="98.27" departSpeed="0.00" departDelay="0.00" arrival="136.00" arrivalLane="1253188486#8_0" arrivalPos="142.31" arrivalSpeed="16.17" duration="116.00" routeLength="242.67" waitingTime="81.00" waitingCount="1" stopTime="0.00" timeLoss="100.90" rerouteNo="0" devices="tripinfo_flow_route_113_duration_20250327_2210.6" vType="car" speedFactor="0.92" vaporized=""/>
    <tripinfo id="flow_route_113_duration_20250327_2210.15" depart="52.00" departLane="1253188486#4_0" departPos="2.24" departSpeed="0.00" departDelay="2.01" arrival="138.00" arrivalLane="1253188486#8_1" arrivalPos="25.24" arrivalSpeed="13.66" duration="86.00" routeLength="221.63" waitingTime="46.00" waitingCount="1" stopTime="0.00" timeLoss="72.26" rerouteNo="0" devices="tripinfo_flow_route_113_duration_20250327_2210.15" vType="car" speedFactor="1.00" vaporized=""/>
    <tripinfo id="flow_route_113_duration_20250327_2210.10" depart="34.00" departLane="1253188486#4_0" departPos="16.04" departSpeed="0.00" departDelay="0.67" arrival="139.00" arrivalLane="1253188486#8_1" arrivalPos="89.59" arrivalSpeed="16.15" duration="105.00" routeLength="272.18" waitingTime="63.00" waitingCount="1" stopTime="0.00" timeLoss="87.87" rerouteNo="0" devices="tripinfo_flow_route_113_duration_20250327_2210.10" vType="car" speedFactor="1.10" vaporized=""/>
    <tripinfo id="flow_route_113_duration_20250327_2210.12" depart="42.00" departLane="1253188486#4_0" departPos="56.92" departSpeed="0.00" departDelay="2.00" arrival="139.00" arrivalLane="1253188486#8_0" arrivalPos="114.41" arrivalSpeed="16.55" duration="97.00" routeLength="256.12" waitingTime="60.00" waitingCount="1" stopTime="0.00" timeLoss="81.53" rerouteNo="0" devices="tripinfo_flow_route_113_duration_20250327_2210.12" vType="car" speedFactor="1.04" vaporized=""/>
    <tripinfo id="flow_route_113_duration_20250327_2210.3" depart="11.00" departLane="1253188486#4_0" departPos="19.82" departSpeed="0.00" departDelay="1.00" arrival="140.00" arrivalLane="1253188486#8_1" arrivalPos="234.69" arrivalSpeed="16.17" duration="129.00" routeLength="413.50" waitingTime="80.00" waitingCount="1" stopTime="0.00" timeLoss="103.32" rerouteNo="0" devices="tripinfo_flow_route_113_duration_20250327_2210.3" vType="car" speedFactor="0.88" vaporized=""/>
    <tripinfo id="flow_route_113_duration_20250327_2210.4" depart="14.00" departLane="1253188486#4_0" departPos="34.17" departSpeed="0.00" departDelay="0.67" arrival="142.00" arrivalLane="1253188486#8_1" arrivalPos="236.64" arrivalSpeed="16.34" duration="128.00" routeLength="401.10" waitingTime="79.00" waitingCount="1" stopTime="0.00" timeLoss="103.35" rerouteNo="0" devices="tripinfo_flow_route_113_duration_20250327_2210.4" vType="car" speedFactor="1.16" vaporized=""/>
    <tripinfo id="flow_route_115_duration_20250327_2210.6" depart="42.00" departLane="1253188486#4_0" departPos="73.52" departSpeed="0.00" departDelay="2.00" arrival="143.00" arrivalLane="1328664744#0_2" arrivalPos="146.82" arrivalSpeed="16.26" duration="101.00" routeLength="258.70" waitingTime="60.00" waitingCount="1" stopTime="0.00" timeLoss="84.37" rerouteNo="0" devices="tripinfo_flow_route_115_duration_20250327_2210.6" vType="car" speedFactor="1.09" vaporized=""/>
    <tripinfo id="flow_route_113_duration_20250327_2210.14" depart="47.00" departLane="1253188486#4_0" departPos="58.12" departSpeed="0.00" departDelay="0.34" arrival="143.00" arrivalLane="1253188486#8_0" arrivalPos="144.53" arrivalSpeed="16.34" duration="96.00" routeLength="285.04" waitingTime="57.00" waitingCount="1" stopTime="0.00" timeLoss="78.71" rerouteNo="0" devices="tripinfo_flow_route_113_duration_20250327_2210.14" vType="car" speedFactor="1.17" vaporized=""/>
    <tripinfo id="flow_route_113_duration_20250327_2210.11" depart="39.00" departLane="1253188486#4_0" departPos="107.13" departSpeed="0.00" departDelay="2.34" arrival="145.00" arrivalLane="1253188486#8_0" arrivalPos="238.34" arrivalSpeed="16.16" duration="106.00" routeLength="329.84" waitingTime="68.00" waitingCount="1" stopTime="0.00" timeLoss="85.58" rerouteNo="0" devices="tripinfo_flow_route_113_duration_20250327_2210.11" vType="car" speedFactor="1.09" vaporized=""/>
    <tripinfo id="flow_route_113_duration_20250327_2210.17" depart="58.00" departLane="1253188486#4_0" departPos="1.79" departSpeed="0.00" departDelay="1.34" arrival="148.00" arrivalLane="1253188486#8_0" arrivalPos="161.59" arrivalSpeed="16.47" duration="90.00" routeLength="358.43" waitingTime="44.00" waitingCount="1" stopTime="0.00" timeLoss="67.76" rerouteNo="0" devices="tripinfo_flow_route_113_duration_20250327_2210.17" vType="car" speedFactor="1.08" vaporized=""/>
    <tripinfo id="flow_route_115_duration_20250327_2210.5" depart="37.00" departLane="1253188486#4_0" departPos="45.38" departSpeed="0.00" departDelay="3.67" arrival="150.00" arrivalLane="1328664744#0_2" arrivalPos="216.71" arrivalSpeed="14.66" duration="113.00" routeLength="356.72" waitingTime="59.00" waitingCount="1" stopTime="0.00" timeLoss="88.60" rerouteNo="0" devices="tripinfo_flow_route_115_duration_20250327_2210.5" vType="car" speedFactor="0.90" vaporized=""/>
    <tripinfo id="flow_route_113_duration_20250327_2210.13" depart="44.00" departLane="1253188486#4_0" departPos="23.52" departSpeed="0.00" departDelay="0.67" arrival="150.00" arrivalLane="1253188486#8_1" arrivalPos="239.99" arrivalSpeed="16.29" duration="106.00" routeLength="415.11" waitingTime="57.00" waitingCount="1" stopTime="0.00" timeLoss="80.47" rerouteNo="0" devices="tripinfo_flow_route_113_duration_20250327_2210.13" vType="car" speedFactor="0.88" vaporized=""/>
    <tripinfo id="flow_route_113_duration_20250327_2210.16" depart="56.00" departLane="1253188486#4_0" departPos="51.90" departSpeed="0.00" departDelay="2.67" arrival="151.00" arrivalLane="1253188486#8_0" arrivalPos="240.67" arrivalSpeed="16.15" duration="95.00" routeLength="387.40" waitingTime="48.00" waitingCount="1" stopTime="0.00" timeLoss="71.09" rerouteNo="0" devices="tripinfo_flow_route_113_duration_20250327_2210.16" vType="car" speedFactor="0.90" vaporized=""/>
    <tripinfo id="flow_route_115_duration_20250327_2210.8" depart="56.00" departLane="1253188486#4_0" departPos="0.13" departSpeed="0.00" departDelay="2.67" arrival="152.00" arrivalLane="1328664744#0_2" arrivalPos="196.83" arrivalSpeed="16.16" duration="96.00" routeLength="382.10" waitingTime="45.00" waitingCount="1" stopTime="0.00" timeLoss="72.15" rerouteNo="0" devices="tripinfo_flow_route_115_duration_20250327_2210.8" vType="car" speedFactor="1.14" vaporized=""/>
    <tripinfo id="flow_route_118_duration_20250327_2210.5" depart="27.00" departLane="134194079#0_0" departPos="13.82" departSpeed="0.00" departDelay="2.00" arrival="162.00" arrivalLane="1328664744#0_1" arrivalPos="39.71" arrivalSpeed="10.50" duration="135.00" routeLength="347.04" waitingTime="88.00" waitingCount="1" stopTime="0.00" timeLoss="113.82" rerouteNo="0" devices="tripinfo_flow_route_118_duration_20250327_2210.5" vType="car" speedFactor="1.15" vaporized=""/>
    <tripinfo id="flow_route_119_duration_20250327_2210.1" depart="6.00" departLane="134194079#0_0" departPos="69.84" departSpeed="0.00" departDelay="0.00" arrival="166.00" arrivalLane="1253188486#8_0" arrivalPos="133.54" arrivalSpeed="14.73" duration="160.00" routeLength="374.66" waitingTime="109.00" waitingCount="1" stopTime="0.00" timeLoss="136.66" rerouteNo="0" devices="tripinfo_flow_route_119_duration_20250327_2210.1" vType="car" speedFactor="1.12" vaporized=""/>
    <tripinfo id="flow_route_119_duration_20250327_2210.5" depart="35.00" departLane="134194079#0_0" departPos="272.87" departSpeed="0.00" departDelay="5.00" arrival="166.00" arrivalLane="1253188486#8_0" arrivalPos="103.83" arrivalSpeed="13.39" duration="131.00" routeLength="141.92" waitingTime="104.00" waitingCount="1" stopTime="0.00" timeLoss="121.70" rerouteNo="0" devices="tripinfo_flow_route_119_duration_20250327_2210.5" vType="car" speedFactor="1.18" vaporized=""/>
    <tripinfo id="flow_route_118_duration_20250327_2210.9" depart="45.00" departLane="134194079#0_0" departPos="127.11" departSpeed="0.00" departDelay="0.00" arrival="167.00" arrivalLane="1328664744#0_1" arrivalPos="76.44" arrivalSpeed="13.38" duration="122.00" routeLength="270.48" waitingTime="77.00" waitingCount="1" stopTime="0.00" timeLoss="102.61" rerouteNo="0" devices="tripinfo_flow_route_118_duration_20250327_2210.9" vType="car" speedFactor="0.85" vaporized=""/>
    <tripinfo id="flow_route_118_duration_20250327_2210.7" depart="36.00" departLane="134194079#0_0" departPos="257.80" departSpeed="0.00" departDelay="1.00" arrival="168.00" arrivalLane="1328664744#0_1" arrivalPos="138.71" arrivalSpeed="16.33" duration="132.00" routeLength="202.06" waitingTime="99.00" waitingCount="1" stopTime="0.00" timeLoss="118.98" rerouteNo="0" devices="tripinfo_flow_route_118_duration_20250327_2210.7" vType="car" speedFactor="1.03" vaporized=""/>
    <tripinfo id="flow_route_118_duration_20250327_2210.11" depart="55.00" departLane="134194079#0_0" departPos="138.74" departSpeed="0.00" departDelay="0.00" arrival="169.00" arrivalLane="1328664744#0_2" arrivalPos="76.72" arrivalSpeed="13.53" duration="114.00" routeLength="259.13" waitingTime="67.00" waitingCount="2" stopTime="0.00" timeLoss="97.57" rerouteNo="0" devices="tripinfo_flow_route_118_duration_20250327_2210.11" vType="car" speedFactor="0.97" vaporized=""/>
    <tripinfo id="flow_route_118_duration_20250327_2210.6" depart="34.00" departLane="134194079#0_0" departPos="7.03" departSpeed="0.00" departDelay="4.00" arrival="170.00" arrivalLane="1328664744#0_2" arrivalPos="150.56" arrivalSpeed="16.17" duration="136.00" routeLength="464.68" waitingTime="83.00" waitingCount="1" stopTime="0.00" timeLoss="106.55" rerouteNo="0" devices="tripinfo_flow_route_118_duration_20250327_2210.6" vType="car" speedFactor="0.97" vaporized=""/>
    <tripinfo id="flow_route_118_duration_20250327_2210.4" depart="20.00" departLane="134194079#0_0" departPos="8.21" departSpeed="0.00" departDelay="0.00" arrival="172.00" arrivalLane="1328664744#0_1" arrivalPos="211.85" arrivalSpeed="16.58" duration="152.00" routeLength="524.78" waitingTime="96.00" waitingCount="1" stopTime="0.00" timeLoss="119.59" rerouteNo="0" devices="tripinfo_flow_route_118_duration_20250327_2210.4" vType="car" speedFactor="1.13" vaporized=""/>
    <tripinfo id="flow_route_118_duration_20250327_2210.8" depart="42.00" departLane="134194079#0_0" departPos="12.57" departSpeed="0.00" departDelay="2.00" arrival="173.00" arrivalLane="1328664744#0_2" arrivalPos="173.27" arrivalSpeed="16.34" duration="131.00" routeLength="481.85" waitingTime="76.00" waitingCount="1" stopTime="0.00" timeLoss="101.84" rerouteNo="0" devices="tripinfo_flow_route_118_duration_20250327_2210.8" vType="car" speedFactor="1.00" vaporized=""/>
    <tripinfo id="flow_route_119_duration_20250327_2210.3" depart="19.00" departLane="134194079#0_0" departPos="90.80" departSpeed="0.00" departDelay="1.00" arrival="176.00" arrivalLane="1253188486#8_0" arrivalPos="229.41" arrivalSpeed="16.58" duration="157.00" routeLength="449.55" waitingTime="103.00" waitingCount="1" stopTime="0.00" timeLoss="125.66" rerouteNo="0" devices="tripinfo_flow_route_119_duration_20250327_2210.3" vType="car" speedFactor="0.83" vaporized=""/>
    <tripinfo id="flow_route_119_duration_20250327_2210.4" depart="25.00" departLane="134194079#0_0" departPos="92.60" departSpeed="0.00" departDelay="1.00" arrival="176.00" arrivalLane="1253188486#8_0" arrivalPos="134.14" arrivalSpeed="15.34" duration="151.00" routeLength="352.50" waitingTime="96.00" waitingCount="1" stopTime="0.00" timeLoss="128.46" rerouteNo="0" devices="tripinfo_flow_route_119_duration_20250327_2210.4" vType="car" speedFactor="1.18" vaporized=""/>
    <tripinfo id="flow_route_118_duration_20250327_2210.10" depart="51.00" departLane="134194079#0_0" departPos="162.04" departSpeed="0.00" departDelay="1.00" arrival="176.00" arrivalLane="1328664744#0_1" arrivalPos="190.03" arrivalSpeed="16.57" duration="125.00" routeLength="349.14" waitingTime="72.00" waitingCount="2" stopTime="0.00" timeLoss="103.20" rerouteNo="0" devices="tripinfo_flow_route_118_duration_20250327_2210.10" vType="car" speedFactor="1.00" vaporized=""/>
    <tripinfo id="flow_route_119_duration_20250327_2210.6" depart="36.00" departLane="134194079#0_0" departPos="169.24" departSpeed="0.00" departDelay="0.00" arrival="177.00" arrivalLane="1253188486#8_0" arrivalPos="174.37" arrivalSpeed="16.15" duration="141.00" routeLength="316.09" waitingTime="96.00" waitingCount="1" stopTime="0.00" timeLoss="119.66" rerouteNo="0" devices="tripinfo_flow_route_119_duration_20250327_2210.6" vType="car" speedFactor="0.96" vaporized=""/>
    <tripinfo id="flow_route_119_duration_20250327_2210.7" depart="44.00" departLane="134194079#0_0" departPos="249.44" departSpeed="0.00" departDelay="2.00" arrival="177.00" arrivalLane="1253188486#8_0" arrivalPos="216.39" arrivalSpeed="16.22" duration="133.00" routeLength="277.90" waitingTime="97.00" waitingCount="1" stopTime="0.00" timeLoss="114.88" rerouteNo="0" devices="tripinfo_flow_route_119_duration_20250327_2210.7" vType="car" speedFactor="0.90" vaporized=""/>
    <tripinfo id="flow_route_119_duration_20250327_2210.8" depart="48.00" departLane="134194079#0_0" departPos="169.15" departSpeed="0.00" departDelay="0.00" arrival="178.00" arrivalLane="1253188486#8_0" arrivalPos="145.41" arrivalSpeed="15.84" duration="130.00" routeLength="287.21" waitingTime="89.00" waitingCount="1" stopTime="0.00" timeLoss="111.73" rerouteNo="0" devices="tripinfo_flow_route_119_duration_20250327_2210.8" vType="car" speedFactor="1.10" vaporized=""/>
    <tripinfo id="flow_route_119_duration_20250327_2210.9" depart="54.00" departLane="134194079#0_0" departPos="49.42" departSpeed="0.00" departDelay="0.00" arrival="179.00" arrivalLane="1253188486#8_0" arrivalPos="118.42" arrivalSpeed="15.98" duration="125.00" routeLength="379.96" waitingTime="75.00" waitingCount="1" stopTime="0.00" timeLoss="100.76" rerouteNo="0" devices="tripinfo_flow_route_119_duration_20250327_2210.9" vType="car" speedFactor="1.02" vaporized=""/>
</tripinfos>
