<?xml version="1.0" encoding="UTF-8"?>

<!-- generated on 2025-05-06 21:08:57 by Eclipse SUMO sumo Version 1.20.0
<configuration xmlns:xsi="http://www.w3.org/2001/XMLSchema-instance" xsi:noNamespaceSchemaLocation="http://sumo.dlr.de/xsd/sumoConfiguration.xsd">

    <input>
        <net-file value="osm.net.xml"/>
        <route-files value="xml/route_static_cluster_11648561419_11648561420_2271142975_4854142869_7.rou.xml"/>
    </input>

    <output>
        <tripinfo-output value="xml/tripinfo_static_cluster_11648561419_11648561420_2271142975_4854142869_7.xml"/>
    </output>

    <traci_server>
        <remote-port value="51427"/>
    </traci_server>

</configuration>
-->

<tripinfos xmlns:xsi="http://www.w3.org/2001/XMLSchema-instance" xsi:noNamespaceSchemaLocation="http://sumo.dlr.de/xsd/tripinfo_file.xsd">
    <tripinfo id="flow_route_119_duration_20250327_2150.0" depart="0.00" departLane="134194079#0_0" departPos="151.34" departSpeed="0.00" departDelay="0.00" arrival="22.00" arrivalLane="1253188486#8_0" arrivalPos="1.48" arrivalSpeed="8.82" duration="22.00" routeLength="161.10" waitingTime="0.00" waitingCount="0" stopTime="0.00" timeLoss="11.84" rerouteNo="0" devices="tripinfo_flow_route_119_duration_20250327_2150.0" vType="car" speedFactor="1.09" vaporized=""/>
    <tripinfo id="flow_route_97_duration_20250327_2150.0" depart="0.00" departLane="1328664748#0_0" departPos="149.74" departSpeed="0.00" departDelay="0.00" arrival="27.00" arrivalLane="135474719#0_0" arrivalPos="137.46" arrivalSpeed="15.89" duration="27.00" routeLength="222.45" waitingTime="0.00" waitingCount="0" stopTime="0.00" timeLoss="12.48" rerouteNo="0" devices="tripinfo_flow_route_97_duration_20250327_2150.0" vType="car" speedFactor="1.06" vaporized=""/>
    <tripinfo id="flow_route_98_duration_20250327_2150.0" depart="0.00" departLane="1328664748#0_0" departPos="103.72" departSpeed="0.00" departDelay="0.00" arrival="27.00" arrivalLane="177211987#1_0" arrivalPos="104.29" arrivalSpeed="15.41" duration="27.00" routeLength="249.04" waitingTime="0.00" waitingCount="0" stopTime="0.00" timeLoss="10.81" rerouteNo="0" devices="tripinfo_flow_route_98_duration_20250327_2150.0" vType="car" speedFactor="0.94" vaporized=""/>
    <tripinfo id="flow_route_99_duration_20250327_2150.0" depart="1.00" departLane="1328664748#0_0" departPos="68.32" departSpeed="0.00" departDelay="1.00" arrival="27.00" arrivalLane="1253188486#8_2" arrivalPos="11.16" arrivalSpeed="9.80" duration="26.00" routeLength="200.71" waitingTime="0.00" waitingCount="0" stopTime="0.00" timeLoss="13.32" rerouteNo="0" devices="tripinfo_flow_route_99_duration_20250327_2150.0" vType="car" speedFactor="1.01" vaporized=""/>
    <tripinfo id="flow_route_118_duration_20250327_2150.1" depart="4.00" departLane="134194079#0_0" departPos="277.04" departSpeed="0.00" departDelay="0.47" arrival="27.00" arrivalLane="1328664744#0_0" arrivalPos="140.54" arrivalSpeed="16.11" duration="23.00" routeLength="184.65" waitingTime="0.00" waitingCount="0" stopTime="0.00" timeLoss="11.54" rerouteNo="0" devices="tripinfo_flow_route_118_duration_20250327_2150.1" vType="car" speedFactor="1.03" vaporized=""/>
    <tripinfo id="flow_route_118_duration_20250327_2150.3" depart="11.00" departLane="134194079#0_0" departPos="282.21" departSpeed="0.00" departDelay="0.41" arrival="35.00" arrivalLane="1328664744#0_0" arrivalPos="169.60" arrivalSpeed="14.49" duration="24.00" routeLength="208.54" waitingTime="0.00" waitingCount="0" stopTime="0.00" timeLoss="9.71" rerouteNo="0" devices="tripinfo_flow_route_118_duration_20250327_2150.3" vType="car" speedFactor="0.88" vaporized=""/>
    <tripinfo id="flow_route_97_duration_20250327_2150.1" depart="12.00" departLane="1328664748#0_0" departPos="28.78" departSpeed="0.00" departDelay="0.00" arrival="39.00" arrivalLane="135474719#0_0" arrivalPos="4.60" arrivalSpeed="7.20" duration="27.00" routeLength="210.54" waitingTime="0.00" waitingCount="0" stopTime="0.00" timeLoss="12.11" rerouteNo="0" devices="tripinfo_flow_route_97_duration_20250327_2150.1" vType="car" speedFactor="0.94" vaporized=""/>
    <tripinfo id="flow_route_119_duration_20250327_2150.1" depart="7.00" departLane="134194079#0_0" departPos="160.58" departSpeed="0.00" departDelay="0.33" arrival="41.00" arrivalLane="1253188486#8_0" arrivalPos="97.30" arrivalSpeed="14.05" duration="34.00" routeLength="247.66" waitingTime="0.00" waitingCount="0" stopTime="0.00" timeLoss="17.88" rerouteNo="0" devices="tripinfo_flow_route_119_duration_20250327_2150.1" vType="car" speedFactor="1.12" vaporized=""/>
    <tripinfo id="flow_route_118_duration_20250327_2150.2" depart="8.00" departLane="134194079#0_0" departPos="9.56" departSpeed="0.00" departDelay="0.94" arrival="41.00" arrivalLane="1328664744#0_1" arrivalPos="52.52" arrivalSpeed="16.16" duration="33.00" routeLength="364.10" waitingTime="0.00" waitingCount="0" stopTime="0.00" timeLoss="10.71" rerouteNo="0" devices="tripinfo_flow_route_118_duration_20250327_2150.2" vType="car" speedFactor="0.99" vaporized=""/>
    <tripinfo id="flow_route_119_duration_20250327_2150.3" depart="20.00" departLane="134194079#0_0" departPos="275.86" departSpeed="0.00" departDelay="0.00" arrival="42.00" arrivalLane="1253188486#8_0" arrivalPos="146.28" arrivalSpeed="15.99" duration="22.00" routeLength="181.37" waitingTime="0.00" waitingCount="0" stopTime="0.00" timeLoss="9.55" rerouteNo="0" devices="tripinfo_flow_route_119_duration_20250327_2150.3" vType="car" speedFactor="0.87" vaporized=""/>
    <tripinfo id="flow_route_118_duration_20250327_2150.0" depart="0.00" departLane="134194079#0_0" departPos="13.63" departSpeed="0.00" departDelay="0.00" arrival="43.00" arrivalLane="1328664744#0_1" arrivalPos="165.30" arrivalSpeed="14.03" duration="43.00" routeLength="472.83" waitingTime="0.00" waitingCount="0" stopTime="0.00" timeLoss="9.80" rerouteNo="0" devices="tripinfo_flow_route_118_duration_20250327_2150.0" vType="car" speedFactor="0.86" vaporized=""/>
    <tripinfo id="flow_route_118_duration_20250327_2150.5" depart="18.00" departLane="134194079#0_0" departPos="197.11" departSpeed="0.00" departDelay="0.36" arrival="48.00" arrivalLane="1328664744#0_0" arrivalPos="180.08" arrivalSpeed="14.37" duration="30.00" routeLength="304.12" waitingTime="0.00" waitingCount="0" stopTime="0.00" timeLoss="8.98" rerouteNo="0" devices="tripinfo_flow_route_118_duration_20250327_2150.5" vType="car" speedFactor="0.89" vaporized=""/>
    <tripinfo id="flow_route_97_duration_20250327_2150.3" depart="36.00" departLane="1328664748#0_0" departPos="194.80" departSpeed="0.00" departDelay="0.00" arrival="59.00" arrivalLane="135474719#0_0" arrivalPos="150.70" arrivalSpeed="16.14" duration="23.00" routeLength="190.63" waitingTime="0.00" waitingCount="0" stopTime="0.00" timeLoss="9.70" rerouteNo="0" devices="tripinfo_flow_route_97_duration_20250327_2150.3" vType="car" speedFactor="1.03" vaporized=""/>
    <tripinfo id="flow_route_99_duration_20250327_2150.1" depart="20.00" departLane="1328664748#0_0" departPos="153.88" departSpeed="0.00" departDelay="0.00" arrival="62.00" arrivalLane="1253188486#8_2" arrivalPos="175.56" arrivalSpeed="16.20" duration="42.00" routeLength="279.55" waitingTime="2.00" waitingCount="1" stopTime="0.00" timeLoss="22.63" rerouteNo="0" devices="tripinfo_flow_route_99_duration_20250327_2150.1" vType="car" speedFactor="0.83" vaporized=""/>
    <tripinfo id="flow_route_97_duration_20250327_2150.2" depart="24.00" departLane="1328664748#0_0" departPos="6.19" departSpeed="0.00" departDelay="0.00" arrival="62.00" arrivalLane="135474719#0_0" arrivalPos="147.32" arrivalSpeed="16.58" duration="38.00" routeLength="375.85" waitingTime="0.00" waitingCount="0" stopTime="0.00" timeLoss="14.53" rerouteNo="0" devices="tripinfo_flow_route_97_duration_20250327_2150.2" vType="car" speedFactor="1.13" vaporized=""/>
    <tripinfo id="flow_route_110_duration_20250327_2150.0" depart="0.00" departLane="1254519225#0.109_0" departPos="3.76" departSpeed="0.00" departDelay="0.00" arrival="63.00" arrivalLane="177211987#1_2" arrivalPos="6.38" arrivalSpeed="7.64" duration="63.00" routeLength="190.24" waitingTime="32.00" waitingCount="1" stopTime="0.00" timeLoss="48.44" rerouteNo="0" devices="tripinfo_flow_route_110_duration_20250327_2150.0" vType="car" speedFactor="0.83" vaporized=""/>
    <tripinfo id="flow_route_110_duration_20250327_2150.1" depart="30.00" departLane="1254519225#0.109_0" departPos="26.40" departSpeed="0.00" departDelay="0.00" arrival="68.00" arrivalLane="177211987#1_2" arrivalPos="31.08" arrivalSpeed="9.74" duration="38.00" routeLength="192.30" waitingTime="4.00" waitingCount="1" stopTime="0.00" timeLoss="25.28" rerouteNo="0" devices="tripinfo_flow_route_110_duration_20250327_2150.1" vType="car" speedFactor="0.97" vaporized=""/>
    <tripinfo id="flow_route_108_duration_20250327_2150.0" depart="0.00" departLane="1254519225#0.109_0" departPos="35.33" departSpeed="0.00" departDelay="0.00" arrival="70.00" arrivalLane="135474719#0_0" arrivalPos="75.82" arrivalSpeed="13.73" duration="70.00" routeLength="240.24" waitingTime="33.00" waitingCount="1" stopTime="0.00" timeLoss="55.52" rerouteNo="0" devices="tripinfo_flow_route_108_duration_20250327_2150.0" vType="car" speedFactor="1.08" vaporized=""/>
    <tripinfo id="flow_route_109_duration_20250327_2150.3" depart="36.00" departLane="1254519225#0.109_0" departPos="39.01" departSpeed="0.00" departDelay="0.00" arrival="70.00" arrivalLane="1328664744#0_0" arrivalPos="5.29" arrivalSpeed="8.95" duration="34.00" routeLength="140.51" waitingTime="5.00" waitingCount="1" stopTime="0.00" timeLoss="24.25" rerouteNo="0" devices="tripinfo_flow_route_109_duration_20250327_2150.3" vType="car" speedFactor="0.96" vaporized=""/>
    <tripinfo id="flow_route_109_duration_20250327_2150.2" depart="24.00" departLane="1254519225#0.109_0" departPos="17.40" departSpeed="0.00" departDelay="0.00" arrival="71.00" arrivalLane="1328664744#0_0" arrivalPos="40.68" arrivalSpeed="11.19" duration="47.00" routeLength="197.51" waitingTime="12.00" waitingCount="1" stopTime="0.00" timeLoss="33.18" rerouteNo="0" devices="tripinfo_flow_route_109_duration_20250327_2150.2" vType="car" speedFactor="0.93" vaporized=""/>
    <tripinfo id="flow_route_108_duration_20250327_2150.1" depart="30.00" departLane="1254519225#0.109_0" departPos="42.34" departSpeed="0.00" departDelay="0.00" arrival="73.00" arrivalLane="135474719#0_2" arrivalPos="44.75" arrivalSpeed="12.73" duration="43.00" routeLength="202.15" waitingTime="4.00" waitingCount="1" stopTime="0.00" timeLoss="30.25" rerouteNo="0" devices="tripinfo_flow_route_108_duration_20250327_2150.1" vType="car" speedFactor="1.02" vaporized=""/>
    <tripinfo id="flow_route_109_duration_20250327_2150.0" depart="0.00" departLane="1254519225#0.109_0" departPos="16.50" departSpeed="0.00" departDelay="0.00" arrival="74.00" arrivalLane="1328664744#0_0" arrivalPos="130.88" arrivalSpeed="15.10" duration="74.00" routeLength="288.61" waitingTime="32.00" waitingCount="1" stopTime="0.00" timeLoss="55.66" rerouteNo="0" devices="tripinfo_flow_route_109_duration_20250327_2150.0" vType="car" speedFactor="1.03" vaporized=""/>
    <tripinfo id="flow_route_109_duration_20250327_2150.1" depart="12.00" departLane="1254519225#0.109_0" departPos="7.82" departSpeed="0.00" departDelay="0.00" arrival="78.00" arrivalLane="1328664744#0_0" arrivalPos="151.98" arrivalSpeed="15.53" duration="66.00" routeLength="318.39" waitingTime="23.00" waitingCount="1" stopTime="0.00" timeLoss="43.75" rerouteNo="0" devices="tripinfo_flow_route_109_duration_20250327_2150.1" vType="car" speedFactor="0.94" vaporized=""/>
    <tripinfo id="flow_route_109_duration_20250327_2150.4" depart="48.00" departLane="1254519225#0.109_0" departPos="42.13" departSpeed="0.00" departDelay="0.00" arrival="78.00" arrivalLane="1328664744#0_0" arrivalPos="82.44" arrivalSpeed="14.18" duration="30.00" routeLength="214.54" waitingTime="0.00" waitingCount="0" stopTime="0.00" timeLoss="16.40" rerouteNo="0" devices="tripinfo_flow_route_109_duration_20250327_2150.4" vType="car" speedFactor="1.10" vaporized=""/>
    <tripinfo id="flow_route_114_duration_20250327_2150.0" depart="0.00" departLane="1253188486#4_0" departPos="49.31" departSpeed="0.00" departDelay="0.00" arrival="93.00" arrivalLane="177211987#1_0" arrivalPos="36.23" arrivalSpeed="9.32" duration="93.00" routeLength="153.37" waitingTime="63.00" waitingCount="1" stopTime="0.00" timeLoss="82.27" rerouteNo="0" devices="tripinfo_flow_route_114_duration_20250327_2150.0" vType="car" speedFactor="0.89" vaporized=""/>
    <tripinfo id="flow_route_113_duration_20250327_2150.2" depart="11.00" departLane="1253188486#4_0" departPos="24.37" departSpeed="0.00" departDelay="0.09" arrival="99.00" arrivalLane="1253188486#8_1" arrivalPos="74.03" arrivalSpeed="14.65" duration="88.00" routeLength="248.30" waitingTime="51.00" waitingCount="1" stopTime="0.00" timeLoss="72.49" rerouteNo="0" devices="tripinfo_flow_route_113_duration_20250327_2150.2" vType="car" speedFactor="0.93" vaporized=""/>
    <tripinfo id="flow_route_115_duration_20250327_2150.1" depart="12.00" departLane="1253188486#4_0" departPos="63.00" departSpeed="0.00" departDelay="0.00" arrival="99.00" arrivalLane="1328664744#0_2" arrivalPos="73.50" arrivalSpeed="13.15" duration="87.00" routeLength="195.90" waitingTime="53.00" waitingCount="1" stopTime="0.00" timeLoss="74.32" rerouteNo="0" devices="tripinfo_flow_route_115_duration_20250327_2150.1" vType="car" speedFactor="1.16" vaporized=""/>
    <tripinfo id="flow_route_115_duration_20250327_2150.0" depart="0.00" departLane="1253188486#4_0" departPos="104.70" departSpeed="0.00" departDelay="0.00" arrival="100.00" arrivalLane="1328664744#0_2" arrivalPos="120.97" arrivalSpeed="15.42" duration="100.00" routeLength="201.67" waitingTime="68.00" waitingCount="1" stopTime="0.00" timeLoss="85.64" rerouteNo="0" devices="tripinfo_flow_route_115_duration_20250327_2150.0" vType="car" speedFactor="0.94" vaporized=""/>
    <tripinfo id="flow_route_113_duration_20250327_2150.9" depart="50.00" departLane="1253188486#4_0" departPos="101.59" departSpeed="0.00" departDelay="0.91" arrival="103.00" arrivalLane="1253188486#8_0" arrivalPos="37.67" arrivalSpeed="12.58" duration="53.00" routeLength="134.71" waitingTime="24.00" waitingCount="1" stopTime="0.00" timeLoss="44.58" rerouteNo="0" devices="tripinfo_flow_route_113_duration_20250327_2150.9" vType="car" speedFactor="1.00" vaporized=""/>
    <tripinfo id="flow_route_113_duration_20250327_2150.0" depart="0.00" departLane="1253188486#4_0" departPos="134.10" departSpeed="0.00" departDelay="0.00" arrival="104.00" arrivalLane="1253188486#8_0" arrivalPos="182.35" arrivalSpeed="16.52" duration="104.00" routeLength="246.88" waitingTime="72.00" waitingCount="1" stopTime="0.00" timeLoss="89.06" rerouteNo="0" devices="tripinfo_flow_route_113_duration_20250327_2150.0" vType="car" speedFactor="1.05" vaporized=""/>
    <tripinfo id="flow_route_113_duration_20250327_2150.1" depart="6.00" departLane="1253188486#4_0" departPos="135.95" departSpeed="0.00" departDelay="0.55" arrival="105.00" arrivalLane="1253188486#8_0" arrivalPos="202.24" arrivalSpeed="16.12" duration="99.00" routeLength="264.92" waitingTime="67.00" waitingCount="1" stopTime="0.00" timeLoss="82.73" rerouteNo="0" devices="tripinfo_flow_route_113_duration_20250327_2150.1" vType="car" speedFactor="1.05" vaporized=""/>
    <tripinfo id="flow_route_113_duration_20250327_2150.5" depart="29.00" departLane="1253188486#4_0" departPos="110.56" departSpeed="0.00" departDelay="1.73" arrival="106.00" arrivalLane="1253188486#8_0" arrivalPos="139.14" arrivalSpeed="16.15" duration="77.00" routeLength="227.21" waitingTime="44.00" waitingCount="1" stopTime="0.00" timeLoss="63.23" rerouteNo="0" devices="tripinfo_flow_route_113_duration_20250327_2150.5" vType="car" speedFactor="1.17" vaporized=""/>
    <tripinfo id="flow_route_115_duration_20250327_2150.3" depart="37.00" departLane="1253188486#4_0" departPos="65.11" departSpeed="0.00" departDelay="1.00" arrival="106.00" arrivalLane="1328664744#0_2" arrivalPos="67.16" arrivalSpeed="13.77" duration="69.00" routeLength="187.45" waitingTime="32.00" waitingCount="1" stopTime="0.00" timeLoss="56.25" rerouteNo="0" devices="tripinfo_flow_route_115_duration_20250327_2150.3" vType="car" speedFactor="1.09" vaporized=""/>
    <tripinfo id="flow_route_113_duration_20250327_2150.3" depart="18.00" departLane="1253188486#4_0" departPos="13.63" departSpeed="0.00" departDelay="1.64" arrival="107.00" arrivalLane="1253188486#8_1" arrivalPos="140.24" arrivalSpeed="16.14" duration="89.00" routeLength="325.23" waitingTime="45.00" waitingCount="1" stopTime="0.00" timeLoss="68.55" rerouteNo="0" devices="tripinfo_flow_route_113_duration_20250327_2150.3" vType="car" speedFactor="0.97" vaporized=""/>
    <tripinfo id="flow_route_113_duration_20250327_2150.6" depart="33.00" departLane="1253188486#4_0" departPos="89.60" departSpeed="0.00" departDelay="0.28" arrival="107.00" arrivalLane="1253188486#8_0" arrivalPos="125.82" arrivalSpeed="16.39" duration="74.00" routeLength="234.84" waitingTime="38.00" waitingCount="1" stopTime="0.00" timeLoss="59.73" rerouteNo="0" devices="tripinfo_flow_route_113_duration_20250327_2150.6" vType="car" speedFactor="1.10" vaporized=""/>
    <tripinfo id="flow_route_115_duration_20250327_2150.2" depart="29.00" departLane="1253188486#4_0" departPos="12.25" departSpeed="0.00" departDelay="5.00" arrival="108.00" arrivalLane="1328664744#0_2" arrivalPos="142.35" arrivalSpeed="16.41" duration="79.00" routeLength="315.50" waitingTime="34.00" waitingCount="1" stopTime="0.00" timeLoss="59.60" rerouteNo="0" devices="tripinfo_flow_route_115_duration_20250327_2150.2" vType="car" speedFactor="1.18" vaporized=""/>
    <tripinfo id="flow_route_113_duration_20250327_2150.7" depart="40.00" departLane="1253188486#4_0" departPos="62.96" departSpeed="0.00" departDelay="1.82" arrival="110.00" arrivalLane="1253188486#8_1" arrivalPos="174.37" arrivalSpeed="16.15" duration="70.00" routeLength="310.04" waitingTime="29.00" waitingCount="1" stopTime="0.00" timeLoss="51.08" rerouteNo="0" devices="tripinfo_flow_route_113_duration_20250327_2150.7" vType="car" speedFactor="1.04" vaporized=""/>
    <tripinfo id="flow_route_115_duration_20250327_2150.4" depart="50.00" departLane="1253188486#4_0" departPos="52.77" departSpeed="0.00" departDelay="2.00" arrival="110.00" arrivalLane="1328664744#0_2" arrivalPos="106.49" arrivalSpeed="16.04" duration="60.00" routeLength="239.12" waitingTime="21.00" waitingCount="1" stopTime="0.00" timeLoss="44.60" rerouteNo="0" devices="tripinfo_flow_route_115_duration_20250327_2150.4" vType="car" speedFactor="1.00" vaporized=""/>
    <tripinfo id="flow_route_113_duration_20250327_2150.4" depart="26.00" departLane="1253188486#4_0" departPos="27.41" departSpeed="0.00" departDelay="4.18" arrival="112.00" arrivalLane="1253188486#8_2" arrivalPos="235.51" arrivalSpeed="16.60" duration="86.00" routeLength="406.73" waitingTime="37.00" waitingCount="1" stopTime="0.00" timeLoss="61.44" rerouteNo="0" devices="tripinfo_flow_route_113_duration_20250327_2150.4" vType="car" speedFactor="0.92" vaporized=""/>
    <tripinfo id="flow_route_113_duration_20250327_2150.8" depart="44.00" departLane="1253188486#4_0" departPos="43.07" departSpeed="0.00" departDelay="0.37" arrival="112.00" arrivalLane="1253188486#8_1" arrivalPos="162.37" arrivalSpeed="16.20" duration="68.00" routeLength="317.93" waitingTime="24.00" waitingCount="1" stopTime="0.00" timeLoss="48.14" rerouteNo="0" devices="tripinfo_flow_route_113_duration_20250327_2150.8" vType="car" speedFactor="0.85" vaporized=""/>
    <tripinfo id="flow_route_113_duration_20250327_2150.10" depart="55.00" departLane="1253188486#4_0" departPos="87.81" departSpeed="0.00" departDelay="0.46" arrival="112.00" arrivalLane="1253188486#8_0" arrivalPos="145.41" arrivalSpeed="16.60" duration="57.00" routeLength="256.23" waitingTime="21.00" waitingCount="1" stopTime="0.00" timeLoss="40.88" rerouteNo="0" devices="tripinfo_flow_route_113_duration_20250327_2150.10" vType="car" speedFactor="0.97" vaporized=""/>
    <tripinfo id="flow_route_118_duration_20250327_2150.8" depart="29.00" departLane="134194079#0_0" departPos="103.80" departSpeed="0.00" departDelay="0.77" arrival="133.00" arrivalLane="1328664744#0_1" arrivalPos="10.39" arrivalSpeed="7.60" duration="104.00" routeLength="227.74" waitingTime="69.00" waitingCount="1" stopTime="0.00" timeLoss="90.18" rerouteNo="0" devices="tripinfo_flow_route_118_duration_20250327_2150.8" vType="car" speedFactor="0.99" vaporized=""/>
    <tripinfo id="flow_route_118_duration_20250327_2150.4" depart="15.00" departLane="134194079#0_0" departPos="49.55" departSpeed="0.00" departDelay="0.88" arrival="136.00" arrivalLane="1328664744#0_2" arrivalPos="49.50" arrivalSpeed="11.08" duration="121.00" routeLength="321.10" waitingTime="78.00" waitingCount="1" stopTime="0.00" timeLoss="101.15" rerouteNo="0" devices="tripinfo_flow_route_118_duration_20250327_2150.4" vType="car" speedFactor="1.01" vaporized=""/>
    <tripinfo id="flow_route_118_duration_20250327_2150.6" depart="22.00" departLane="134194079#0_0" departPos="171.13" departSpeed="0.00" departDelay="0.83" arrival="137.00" arrivalLane="1328664744#0_1" arrivalPos="68.28" arrivalSpeed="11.29" duration="115.00" routeLength="218.30" waitingTime="79.00" waitingCount="1" stopTime="0.00" timeLoss="101.14" rerouteNo="0" devices="tripinfo_flow_route_118_duration_20250327_2150.6" vType="car" speedFactor="0.95" vaporized=""/>
    <tripinfo id="flow_route_118_duration_20250327_2150.10" depart="36.00" departLane="134194079#0_0" departPos="145.35" departSpeed="0.00" departDelay="0.71" arrival="137.00" arrivalLane="1328664744#0_1" arrivalPos="23.23" arrivalSpeed="10.78" duration="101.00" routeLength="199.03" waitingTime="64.00" waitingCount="1" stopTime="0.00" timeLoss="88.40" rerouteNo="0" devices="tripinfo_flow_route_118_duration_20250327_2150.10" vType="car" speedFactor="1.04" vaporized=""/>
    <tripinfo id="flow_route_118_duration_20250327_2150.12" depart="44.00" departLane="134194079#0_0" departPos="230.41" departSpeed="0.00" departDelay="1.65" arrival="137.00" arrivalLane="1328664744#0_0" arrivalPos="22.52" arrivalSpeed="9.71" duration="93.00" routeLength="113.26" waitingTime="68.00" waitingCount="1" stopTime="0.00" timeLoss="84.91" rerouteNo="0" devices="tripinfo_flow_route_118_duration_20250327_2150.12" vType="car" speedFactor="0.88" vaporized=""/>
    <tripinfo id="flow_route_118_duration_20250327_2150.16" depart="58.00" departLane="134194079#0_0" departPos="189.14" departSpeed="0.00" departDelay="1.54" arrival="139.00" arrivalLane="1328664744#0_2" arrivalPos="22.82" arrivalSpeed="10.31" duration="81.00" routeLength="154.83" waitingTime="51.00" waitingCount="1" stopTime="0.00" timeLoss="71.33" rerouteNo="0" devices="tripinfo_flow_route_118_duration_20250327_2150.16" vType="car" speedFactor="1.08" vaporized=""/>
    <tripinfo id="flow_route_97_duration_20250327_2150.4" depart="48.00" departLane="1328664748#0_0" departPos="86.92" departSpeed="0.00" departDelay="0.00" arrival="141.00" arrivalLane="135474719#0_0" arrivalPos="136.07" arrivalSpeed="15.00" duration="93.00" routeLength="283.88" waitingTime="52.00" waitingCount="1" stopTime="0.00" timeLoss="74.73" rerouteNo="0" devices="tripinfo_flow_route_97_duration_20250327_2150.4" vType="car" speedFactor="1.02" vaporized=""/>
    <tripinfo id="flow_route_118_duration_20250327_2150.9" depart="33.00" departLane="134194079#0_0" departPos="243.55" departSpeed="0.00" departDelay="1.24" arrival="142.00" arrivalLane="1328664744#0_0" arrivalPos="136.46" arrivalSpeed="15.41" duration="109.00" routeLength="214.06" waitingTime="77.00" waitingCount="1" stopTime="0.00" timeLoss="95.39" rerouteNo="0" devices="tripinfo_flow_route_118_duration_20250327_2150.9" vType="car" speedFactor="1.18" vaporized=""/>
    <tripinfo id="flow_route_118_duration_20250327_2150.7" depart="25.00" departLane="134194079#0_0" departPos="19.76" departSpeed="0.00" departDelay="0.30" arrival="143.00" arrivalLane="1328664744#0_2" arrivalPos="121.30" arrivalSpeed="14.97" duration="118.00" routeLength="422.69" waitingTime="67.00" waitingCount="1" stopTime="0.00" timeLoss="92.24" rerouteNo="0" devices="tripinfo_flow_route_118_duration_20250327_2150.7" vType="car" speedFactor="1.15" vaporized=""/>
    <tripinfo id="flow_route_118_duration_20250327_2150.11" depart="39.00" departLane="134194079#0_0" departPos="169.24" departSpeed="0.00" departDelay="0.18" arrival="143.00" arrivalLane="1328664744#0_2" arrivalPos="101.11" arrivalSpeed="14.36" duration="104.00" routeLength="253.03" waitingTime="62.00" waitingCount="1" stopTime="0.00" timeLoss="88.67" rerouteNo="0" devices="tripinfo_flow_route_118_duration_20250327_2150.11" vType="car" speedFactor="1.09" vaporized=""/>
    <tripinfo id="flow_route_119_duration_20250327_2150.6" depart="40.00" departLane="134194079#0_0" departPos="206.36" departSpeed="0.00" departDelay="0.00" arrival="143.00" arrivalLane="1253188486#8_0" arrivalPos="72.70" arrivalSpeed="13.18" duration="103.00" routeLength="177.29" waitingTime="67.00" waitingCount="1" stopTime="0.00" timeLoss="90.04" rerouteNo="0" devices="tripinfo_flow_route_119_duration_20250327_2150.6" vType="car" speedFactor="0.90" vaporized=""/>
    <tripinfo id="flow_route_119_duration_20250327_2150.4" depart="28.00" departLane="134194079#0_0" departPos="53.30" departSpeed="0.00" departDelay="1.34" arrival="147.00" arrivalLane="1253188486#8_0" arrivalPos="77.00" arrivalSpeed="12.74" duration="119.00" routeLength="334.65" waitingTime="65.00" waitingCount="1" stopTime="0.00" timeLoss="97.80" rerouteNo="0" devices="tripinfo_flow_route_119_duration_20250327_2150.4" vType="car" speedFactor="1.01" vaporized=""/>
    <tripinfo id="flow_route_119_duration_20250327_2150.5" depart="34.00" departLane="134194079#0_0" departPos="107.73" departSpeed="0.00" departDelay="0.67" arrival="147.00" arrivalLane="1253188486#8_0" arrivalPos="102.35" arrivalSpeed="13.95" duration="113.00" routeLength="305.57" waitingTime="66.00" waitingCount="1" stopTime="0.00" timeLoss="92.29" rerouteNo="0" devices="tripinfo_flow_route_119_duration_20250327_2150.5" vType="car" speedFactor="0.90" vaporized=""/>
    <tripinfo id="flow_route_119_duration_20250327_2150.2" depart="14.00" departLane="134194079#0_0" departPos="77.91" departSpeed="0.00" departDelay="0.67" arrival="150.00" arrivalLane="1253188486#8_0" arrivalPos="236.64" arrivalSpeed="16.41" duration="136.00" routeLength="469.68" waitingTime="76.00" waitingCount="1" stopTime="0.00" timeLoss="105.94" rerouteNo="0" devices="tripinfo_flow_route_119_duration_20250327_2150.2" vType="car" speedFactor="1.02" vaporized=""/>
    <tripinfo id="flow_route_118_duration_20250327_2150.15" depart="53.00" departLane="134194079#0_0" departPos="81.80" departSpeed="0.00" departDelay="0.07" arrival="150.00" arrivalLane="1328664744#0_2" arrivalPos="130.69" arrivalSpeed="15.96" duration="97.00" routeLength="370.04" waitingTime="48.00" waitingCount="1" stopTime="0.00" timeLoss="74.05" rerouteNo="0" devices="tripinfo_flow_route_118_duration_20250327_2150.15" vType="car" speedFactor="1.14" vaporized=""/>
    <tripinfo id="flow_route_118_duration_20250327_2150.13" depart="46.00" departLane="134194079#0_0" departPos="36.67" departSpeed="0.00" departDelay="0.12" arrival="151.00" arrivalLane="1328664744#0_1" arrivalPos="158.01" arrivalSpeed="13.88" duration="105.00" routeLength="442.49" waitingTime="51.00" waitingCount="1" stopTime="0.00" timeLoss="73.58" rerouteNo="0" devices="tripinfo_flow_route_118_duration_20250327_2150.13" vType="car" speedFactor="0.85" vaporized=""/>
    <tripinfo id="flow_route_119_duration_20250327_2150.8" depart="54.00" departLane="134194079#0_0" departPos="200.86" departSpeed="0.00" departDelay="0.67" arrival="151.00" arrivalLane="1253188486#8_0" arrivalPos="93.10" arrivalSpeed="13.94" duration="97.00" routeLength="203.18" waitingTime="61.00" waitingCount="1" stopTime="0.00" timeLoss="83.08" rerouteNo="0" devices="tripinfo_flow_route_119_duration_20250327_2150.8" vType="car" speedFactor="1.02" vaporized=""/>
    <tripinfo id="flow_route_118_duration_20250327_2150.14" depart="50.00" departLane="134194079#0_0" departPos="127.11" departSpeed="0.00" departDelay="0.59" arrival="152.00" arrivalLane="1328664744#0_1" arrivalPos="200.65" arrivalSpeed="14.93" duration="102.00" routeLength="394.69" waitingTime="52.00" waitingCount="1" stopTime="0.00" timeLoss="74.86" rerouteNo="0" devices="tripinfo_flow_route_118_duration_20250327_2150.14" vType="car" speedFactor="0.90" vaporized=""/>
    <tripinfo id="flow_route_119_duration_20250327_2150.7" depart="48.00" departLane="134194079#0_0" departPos="12.57" departSpeed="0.00" departDelay="1.34" arrival="157.00" arrivalLane="1253188486#8_0" arrivalPos="175.00" arrivalSpeed="16.57" duration="109.00" routeLength="473.38" waitingTime="52.00" waitingCount="1" stopTime="0.00" timeLoss="80.00" rerouteNo="0" devices="tripinfo_flow_route_119_duration_20250327_2150.7" vType="car" speedFactor="1.17" vaporized=""/>
    <tripinfo id="flow_route_99_duration_20250327_2150.2" depart="40.00" departLane="1328664748#0_0" departPos="76.29" departSpeed="0.00" departDelay="0.00" arrival="166.00" arrivalLane="1253188486#8_1" arrivalPos="238.34" arrivalSpeed="16.54" duration="126.00" routeLength="419.93" waitingTime="72.00" waitingCount="2" stopTime="0.00" timeLoss="99.82" rerouteNo="0" devices="tripinfo_flow_route_99_duration_20250327_2150.2" vType="car" speedFactor="1.00" vaporized=""/>
</tripinfos>
