<?xml version="1.0" encoding="UTF-8"?>

<!-- generated on 2025-05-06 21:08:16 by Eclipse SUMO sumo Version 1.20.0
<configuration xmlns:xsi="http://www.w3.org/2001/XMLSchema-instance" xsi:noNamespaceSchemaLocation="http://sumo.dlr.de/xsd/sumoConfiguration.xsd">

    <input>
        <net-file value="osm.net.xml"/>
        <route-files value="xml/route_static_632031937_3.rou.xml"/>
    </input>

    <output>
        <tripinfo-output value="xml/tripinfo_static_632031937_3.xml"/>
    </output>

    <traci_server>
        <remote-port value="33017"/>
    </traci_server>

</configuration>
-->

<tripinfos xmlns:xsi="http://www.w3.org/2001/XMLSchema-instance" xsi:noNamespaceSchemaLocation="http://sumo.dlr.de/xsd/tripinfo_file.xsd">
    <tripinfo id="flow_route_66_duration_20250327_1910.0" depart="0.00" departLane="-138002002#2_0" departPos="85.87" departSpeed="0.00" departDelay="0.00" arrival="19.00" arrivalLane="-138002006#3_1" arrivalPos="3.87" arrivalSpeed="12.70" duration="19.00" routeLength="121.39" waitingTime="0.00" waitingCount="0" stopTime="0.00" timeLoss="10.11" rerouteNo="0" devices="tripinfo_flow_route_66_duration_20250327_1910.0" vType="car" speedFactor="0.83" vaporized=""/>
    <tripinfo id="flow_route_53_duration_20250327_1910.0" depart="0.00" departLane="138002006#0_0" departPos="48.40" departSpeed="0.00" departDelay="0.00" arrival="22.00" arrivalLane="1369578052#0_0" arrivalPos="131.33" arrivalSpeed="15.60" duration="22.00" routeLength="190.85" waitingTime="0.00" waitingCount="0" stopTime="0.00" timeLoss="9.41" rerouteNo="0" devices="tripinfo_flow_route_53_duration_20250327_1910.0" vType="car" speedFactor="0.94" vaporized=""/>
    <tripinfo id="flow_route_53_duration_20250327_1910.1" depart="2.00" departLane="138002006#0_0" departPos="5.35" departSpeed="0.00" departDelay="0.33" arrival="23.00" arrivalLane="1369578052#0_1" arrivalPos="48.76" arrivalSpeed="14.32" duration="21.00" routeLength="151.33" waitingTime="0.00" waitingCount="0" stopTime="0.00" timeLoss="10.14" rerouteNo="0" devices="tripinfo_flow_route_53_duration_20250327_1910.1" vType="car" speedFactor="0.89" vaporized=""/>
    <tripinfo id="flow_route_53_duration_20250327_1910.3" depart="7.00" departLane="138002006#0_0" departPos="48.32" departSpeed="0.00" departDelay="2.00" arrival="28.00" arrivalLane="1369578052#0_0" arrivalPos="94.56" arrivalSpeed="15.88" duration="21.00" routeLength="154.16" waitingTime="0.00" waitingCount="0" stopTime="0.00" timeLoss="11.02" rerouteNo="0" devices="tripinfo_flow_route_53_duration_20250327_1910.3" vType="car" speedFactor="1.09" vaporized=""/>
    <tripinfo id="flow_route_53_duration_20250327_1910.4" depart="7.00" departLane="138002006#0_0" departPos="2.88" departSpeed="0.00" departDelay="0.34" arrival="29.00" arrivalLane="1369578052#0_1" arrivalPos="73.10" arrivalSpeed="15.27" duration="22.00" routeLength="178.14" waitingTime="0.00" waitingCount="0" stopTime="0.00" timeLoss="11.04" rerouteNo="0" devices="tripinfo_flow_route_53_duration_20250327_1910.4" vType="car" speedFactor="1.05" vaporized=""/>
    <tripinfo id="flow_route_52_duration_20250327_1910.0" depart="0.00" departLane="138002006#0_0" departPos="21.97" departSpeed="0.00" departDelay="0.00" arrival="30.00" arrivalLane="380351865#0_1" arrivalPos="15.21" arrivalSpeed="11.55" duration="30.00" routeLength="234.80" waitingTime="0.00" waitingCount="0" stopTime="0.00" timeLoss="10.25" rerouteNo="0" devices="tripinfo_flow_route_52_duration_20250327_1910.0" vType="car" speedFactor="1.06" vaporized=""/>
    <tripinfo id="flow_route_53_duration_20250327_1910.2" depart="5.00" departLane="138002006#0_0" departPos="27.26" departSpeed="0.00" departDelay="1.67" arrival="32.00" arrivalLane="1369578052#0_0" arrivalPos="126.01" arrivalSpeed="14.14" duration="27.00" routeLength="206.67" waitingTime="0.00" waitingCount="0" stopTime="0.00" timeLoss="11.82" rerouteNo="0" devices="tripinfo_flow_route_53_duration_20250327_1910.2" vType="car" speedFactor="0.86" vaporized=""/>
    <tripinfo id="flow_route_67_duration_20250327_1910.1" depart="8.00" departLane="-138002002#2_0" departPos="140.83" departSpeed="0.00" departDelay="0.50" arrival="32.00" arrivalLane="380351865#0_0" arrivalPos="5.15" arrivalSpeed="12.45" duration="24.00" routeLength="197.37" waitingTime="0.00" waitingCount="0" stopTime="0.00" timeLoss="8.64" rerouteNo="0" devices="tripinfo_flow_route_67_duration_20250327_1910.1" vType="car" speedFactor="1.12" vaporized=""/>
    <tripinfo id="flow_route_53_duration_20250327_1910.5" depart="14.00" departLane="138002006#0_0" departPos="7.90" departSpeed="0.00" departDelay="5.67" arrival="32.00" arrivalLane="1369578052#0_0" arrivalPos="29.33" arrivalSpeed="14.08" duration="18.00" routeLength="129.35" waitingTime="0.00" waitingCount="0" stopTime="0.00" timeLoss="9.89" rerouteNo="0" devices="tripinfo_flow_route_53_duration_20250327_1910.5" vType="car" speedFactor="0.99" vaporized=""/>
    <tripinfo id="flow_route_67_duration_20250327_1910.0" depart="1.00" departLane="-138002002#2_0" departPos="104.31" departSpeed="0.00" departDelay="1.00" arrival="37.00" arrivalLane="380351865#0_0" arrivalPos="12.69" arrivalSpeed="11.37" duration="36.00" routeLength="241.42" waitingTime="0.00" waitingCount="0" stopTime="0.00" timeLoss="15.78" rerouteNo="0" devices="tripinfo_flow_route_67_duration_20250327_1910.0" vType="car" speedFactor="1.05" vaporized=""/>
    <tripinfo id="flow_route_58_duration_20250327_1910.0" depart="0.00" departLane="186407685_0" departPos="1.07" departSpeed="0.00" departDelay="0.00" arrival="48.00" arrivalLane="-138002006#3_1" arrivalPos="43.63" arrivalSpeed="10.39" duration="48.00" routeLength="235.82" waitingTime="12.00" waitingCount="1" stopTime="0.00" timeLoss="32.90" rerouteNo="0" devices="tripinfo_flow_route_58_duration_20250327_1910.0" vType="car" speedFactor="1.08" vaporized=""/>
    <tripinfo id="flow_route_59_duration_20250327_1910.0" depart="0.00" departLane="186407685_0" departPos="119.17" departSpeed="0.00" departDelay="0.00" arrival="54.00" arrivalLane="1369578052#0_0" arrivalPos="108.75" arrivalSpeed="12.85" duration="54.00" routeLength="175.69" waitingTime="17.00" waitingCount="2" stopTime="0.00" timeLoss="42.58" rerouteNo="0" devices="tripinfo_flow_route_59_duration_20250327_1910.0" vType="car" speedFactor="1.03" vaporized=""/>
    <tripinfo id="flow_route_57_duration_20250327_1910.0" depart="0.00" departLane="186407685_0" departPos="131.94" departSpeed="0.00" departDelay="0.00" arrival="58.00" arrivalLane="380351865#0_0" arrivalPos="0.78" arrivalSpeed="10.95" duration="58.00" routeLength="205.45" waitingTime="24.00" waitingCount="1" stopTime="0.00" timeLoss="40.79" rerouteNo="0" devices="tripinfo_flow_route_57_duration_20250327_1910.0" vType="car" speedFactor="1.01" vaporized=""/>
    <tripinfo id="flow_route_59_duration_20250327_1910.3" depart="9.00" departLane="186407685_0" departPos="121.31" departSpeed="0.00" departDelay="0.43" arrival="61.00" arrivalLane="1369578052#0_0" arrivalPos="176.33" arrivalSpeed="14.96" duration="52.00" routeLength="241.13" waitingTime="11.00" waitingCount="2" stopTime="0.00" timeLoss="34.86" rerouteNo="0" devices="tripinfo_flow_route_59_duration_20250327_1910.3" vType="car" speedFactor="0.93" vaporized=""/>
    <tripinfo id="flow_route_59_duration_20250327_1910.5" depart="16.00" departLane="186407685_0" departPos="102.71" departSpeed="0.00" departDelay="1.72" arrival="61.00" arrivalLane="1369578052#0_0" arrivalPos="109.90" arrivalSpeed="13.73" duration="45.00" routeLength="193.30" waitingTime="6.00" waitingCount="1" stopTime="0.00" timeLoss="31.87" rerouteNo="0" devices="tripinfo_flow_route_59_duration_20250327_1910.5" vType="car" speedFactor="0.97" vaporized=""/>
    <tripinfo id="flow_route_59_duration_20250327_1910.8" depart="24.00" departLane="186407685_0" departPos="74.94" departSpeed="0.00" departDelay="1.14" arrival="61.00" arrivalLane="1369578052#0_0" arrivalPos="33.30" arrivalSpeed="8.99" duration="37.00" routeLength="144.47" waitingTime="4.00" waitingCount="1" stopTime="0.00" timeLoss="27.24" rerouteNo="0" devices="tripinfo_flow_route_59_duration_20250327_1910.8" vType="car" speedFactor="1.18" vaporized=""/>
    <tripinfo id="flow_route_59_duration_20250327_1910.1" depart="3.00" departLane="186407685_0" departPos="57.01" departSpeed="0.00" departDelay="0.14" arrival="62.00" arrivalLane="1369578052#0_0" arrivalPos="161.40" arrivalSpeed="15.19" duration="59.00" routeLength="290.50" waitingTime="11.00" waitingCount="2" stopTime="0.00" timeLoss="39.87" rerouteNo="0" devices="tripinfo_flow_route_59_duration_20250327_1910.1" vType="car" speedFactor="0.94" vaporized=""/>
    <tripinfo id="flow_route_59_duration_20250327_1910.6" depart="18.00" departLane="186407685_0" departPos="26.88" departSpeed="0.00" departDelay="0.86" arrival="65.00" arrivalLane="1369578052#0_0" arrivalPos="33.80" arrivalSpeed="8.96" duration="47.00" routeLength="193.02" waitingTime="5.00" waitingCount="1" stopTime="0.00" timeLoss="33.23" rerouteNo="0" devices="tripinfo_flow_route_59_duration_20250327_1910.6" vType="car" speedFactor="0.87" vaporized=""/>
    <tripinfo id="flow_route_58_duration_20250327_1910.1" depart="38.00" departLane="186407685_0" departPos="2.59" departSpeed="0.00" departDelay="8.00" arrival="66.00" arrivalLane="-138002006#3_1" arrivalPos="50.93" arrivalSpeed="12.47" duration="28.00" routeLength="241.60" waitingTime="0.00" waitingCount="0" stopTime="0.00" timeLoss="12.60" rerouteNo="0" devices="tripinfo_flow_route_58_duration_20250327_1910.1" vType="car" speedFactor="0.96" vaporized=""/>
    <tripinfo id="flow_route_59_duration_20250327_1910.2" depart="7.00" departLane="186407685_0" departPos="41.92" departSpeed="0.00" departDelay="1.29" arrival="67.00" arrivalLane="1369578052#0_0" arrivalPos="173.09" arrivalSpeed="16.57" duration="60.00" routeLength="317.29" waitingTime="5.00" waitingCount="1" stopTime="0.00" timeLoss="39.39" rerouteNo="0" devices="tripinfo_flow_route_59_duration_20250327_1910.2" vType="car" speedFactor="1.03" vaporized=""/>
    <tripinfo id="flow_route_57_duration_20250327_1910.1" depart="38.00" departLane="186407685_0" departPos="97.25" departSpeed="0.00" departDelay="8.00" arrival="68.00" arrivalLane="380351865#0_1" arrivalPos="14.92" arrivalSpeed="11.44" duration="30.00" routeLength="254.27" waitingTime="0.00" waitingCount="0" stopTime="0.00" timeLoss="9.81" rerouteNo="0" devices="tripinfo_flow_route_57_duration_20250327_1910.1" vType="car" speedFactor="1.03" vaporized=""/>
    <tripinfo id="flow_route_59_duration_20250327_1910.4" depart="12.00" departLane="186407685_0" departPos="29.74" departSpeed="0.00" departDelay="0.57" arrival="71.00" arrivalLane="1369578052#0_0" arrivalPos="177.79" arrivalSpeed="15.23" duration="59.00" routeLength="334.16" waitingTime="6.00" waitingCount="1" stopTime="0.00" timeLoss="36.05" rerouteNo="0" devices="tripinfo_flow_route_59_duration_20250327_1910.4" vType="car" speedFactor="0.94" vaporized=""/>
    <tripinfo id="flow_route_66_duration_20250327_1910.2" depart="24.00" departLane="-138002002#2_0" departPos="113.31" departSpeed="0.00" departDelay="0.00" arrival="72.00" arrivalLane="-138002006#3_1" arrivalPos="18.85" arrivalSpeed="7.63" duration="48.00" routeLength="108.93" waitingTime="23.00" waitingCount="1" stopTime="0.00" timeLoss="41.20" rerouteNo="0" devices="tripinfo_flow_route_66_duration_20250327_1910.2" vType="car" speedFactor="1.17" vaporized=""/>
    <tripinfo id="flow_route_66_duration_20250327_1910.1" depart="12.00" departLane="-138002002#2_0" departPos="105.30" departSpeed="0.00" departDelay="0.00" arrival="73.00" arrivalLane="-138002006#3_0" arrivalPos="23.44" arrivalSpeed="8.08" duration="61.00" routeLength="121.54" waitingTime="35.00" waitingCount="1" stopTime="0.00" timeLoss="53.56" rerouteNo="0" devices="tripinfo_flow_route_66_duration_20250327_1910.1" vType="car" speedFactor="1.16" vaporized=""/>
    <tripinfo id="flow_route_53_duration_20250327_1910.10" depart="28.00" departLane="138002006#0_0" departPos="77.72" departSpeed="0.00" departDelay="11.34" arrival="74.00" arrivalLane="1369578052#0_0" arrivalPos="31.04" arrivalSpeed="9.34" duration="46.00" routeLength="61.24" waitingTime="28.00" waitingCount="1" stopTime="0.00" timeLoss="40.99" rerouteNo="0" devices="tripinfo_flow_route_53_duration_20250327_1910.10" vType="car" speedFactor="0.83" vaporized=""/>
    <tripinfo id="flow_route_53_duration_20250327_1910.11" depart="30.00" departLane="138002006#0_0" departPos="26.30" departSpeed="0.00" departDelay="11.67" arrival="77.00" arrivalLane="1369578052#0_0" arrivalPos="5.13" arrivalSpeed="8.39" duration="47.00" routeLength="86.75" waitingTime="19.00" waitingCount="1" stopTime="0.00" timeLoss="41.29" rerouteNo="0" devices="tripinfo_flow_route_53_duration_20250327_1910.11" vType="car" speedFactor="0.92" vaporized=""/>
    <tripinfo id="flow_route_66_duration_20250327_1910.3" depart="36.00" departLane="-138002002#2_0" departPos="109.18" departSpeed="0.00" departDelay="0.00" arrival="77.00" arrivalLane="-138002006#3_1" arrivalPos="38.25" arrivalSpeed="10.35" duration="41.00" routeLength="132.46" waitingTime="14.00" waitingCount="1" stopTime="0.00" timeLoss="31.68" rerouteNo="0" devices="tripinfo_flow_route_66_duration_20250327_1910.3" vType="car" speedFactor="0.88" vaporized=""/>
    <tripinfo id="flow_route_53_duration_20250327_1910.7" depart="20.00" departLane="138002006#0_0" departPos="15.89" departSpeed="0.00" departDelay="8.34" arrival="78.00" arrivalLane="1369578052#0_1" arrivalPos="75.82" arrivalSpeed="11.91" duration="58.00" routeLength="167.86" waitingTime="25.00" waitingCount="1" stopTime="0.00" timeLoss="47.16" rerouteNo="0" devices="tripinfo_flow_route_53_duration_20250327_1910.7" vType="car" speedFactor="0.94" vaporized=""/>
    <tripinfo id="flow_route_53_duration_20250327_1910.6" depart="20.00" departLane="138002006#0_0" departPos="5.95" departSpeed="0.00" departDelay="10.00" arrival="79.00" arrivalLane="1369578052#0_1" arrivalPos="61.07" arrivalSpeed="10.59" duration="59.00" routeLength="163.04" waitingTime="25.00" waitingCount="1" stopTime="0.00" timeLoss="47.81" rerouteNo="0" devices="tripinfo_flow_route_53_duration_20250327_1910.6" vType="car" speedFactor="0.88" vaporized=""/>
    <tripinfo id="flow_route_53_duration_20250327_1910.14" depart="36.00" departLane="138002006#0_0" departPos="52.29" departSpeed="0.00" departDelay="12.68" arrival="80.00" arrivalLane="1369578052#0_0" arrivalPos="53.46" arrivalSpeed="11.01" duration="44.00" routeLength="109.09" waitingTime="21.00" waitingCount="1" stopTime="0.00" timeLoss="37.42" rerouteNo="0" devices="tripinfo_flow_route_53_duration_20250327_1910.14" vType="car" speedFactor="1.01" vaporized=""/>
    <tripinfo id="flow_route_66_duration_20250327_1910.4" depart="48.00" departLane="-138002002#2_0" departPos="41.95" departSpeed="0.00" departDelay="0.00" arrival="82.00" arrivalLane="-138002006#3_1" arrivalPos="70.09" arrivalSpeed="12.85" duration="34.00" routeLength="231.53" waitingTime="0.00" waitingCount="0" stopTime="0.00" timeLoss="19.60" rerouteNo="0" devices="tripinfo_flow_route_66_duration_20250327_1910.4" vType="car" speedFactor="1.02" vaporized=""/>
    <tripinfo id="flow_route_53_duration_20250327_1910.8" depart="25.00" departLane="138002006#0_0" departPos="45.52" departSpeed="0.00" departDelay="11.67" arrival="85.00" arrivalLane="1369578052#0_0" arrivalPos="149.62" arrivalSpeed="16.39" duration="60.00" routeLength="212.02" waitingTime="26.00" waitingCount="1" stopTime="0.00" timeLoss="46.47" rerouteNo="0" devices="tripinfo_flow_route_53_duration_20250327_1910.8" vType="car" speedFactor="1.02" vaporized=""/>
    <tripinfo id="flow_route_53_duration_20250327_1910.9" depart="27.00" departLane="138002006#0_0" departPos="2.12" departSpeed="0.00" departDelay="12.01" arrival="86.00" arrivalLane="1369578052#0_1" arrivalPos="131.90" arrivalSpeed="15.92" duration="59.00" routeLength="237.70" waitingTime="21.00" waitingCount="1" stopTime="0.00" timeLoss="44.40" rerouteNo="0" devices="tripinfo_flow_route_53_duration_20250327_1910.9" vType="car" speedFactor="1.01" vaporized=""/>
    <tripinfo id="flow_route_53_duration_20250327_1910.13" depart="35.00" departLane="138002006#0_0" departPos="13.63" departSpeed="0.00" departDelay="13.34" arrival="86.00" arrivalLane="1369578052#0_1" arrivalPos="104.54" arrivalSpeed="14.36" duration="51.00" routeLength="198.83" waitingTime="16.00" waitingCount="1" stopTime="0.00" timeLoss="37.94" rerouteNo="0" devices="tripinfo_flow_route_53_duration_20250327_1910.13" vType="car" speedFactor="0.93" vaporized=""/>
    <tripinfo id="flow_route_53_duration_20250327_1910.15" depart="36.00" departLane="138002006#0_0" departPos="24.61" departSpeed="0.00" departDelay="11.01" arrival="86.00" arrivalLane="1369578052#0_0" arrivalPos="71.84" arrivalSpeed="12.89" duration="50.00" routeLength="155.15" waitingTime="18.00" waitingCount="1" stopTime="0.00" timeLoss="40.30" rerouteNo="0" devices="tripinfo_flow_route_53_duration_20250327_1910.15" vType="car" speedFactor="0.99" vaporized=""/>
    <tripinfo id="flow_route_67_duration_20250327_1910.2" depart="15.00" departLane="-138002002#2_0" departPos="56.70" departSpeed="0.00" departDelay="0.00" arrival="88.00" arrivalLane="380351865#0_0" arrivalPos="11.81" arrivalSpeed="9.84" duration="73.00" routeLength="288.16" waitingTime="23.00" waitingCount="1" stopTime="0.00" timeLoss="47.19" rerouteNo="0" devices="tripinfo_flow_route_67_duration_20250327_1910.2" vType="car" speedFactor="0.89" vaporized=""/>
    <tripinfo id="flow_route_53_duration_20250327_1910.12" depart="34.00" departLane="138002006#0_0" departPos="3.78" departSpeed="0.00" departDelay="14.01" arrival="88.00" arrivalLane="1369578052#0_1" arrivalPos="100.79" arrivalSpeed="14.78" duration="54.00" routeLength="204.92" waitingTime="16.00" waitingCount="1" stopTime="0.00" timeLoss="40.29" rerouteNo="0" devices="tripinfo_flow_route_53_duration_20250327_1910.12" vType="car" speedFactor="0.95" vaporized=""/>
    <tripinfo id="flow_route_67_duration_20250327_1910.3" depart="23.00" departLane="-138002002#2_0" departPos="64.81" departSpeed="0.00" departDelay="0.50" arrival="89.00" arrivalLane="380351865#0_0" arrivalPos="0.80" arrivalSpeed="9.84" duration="66.00" routeLength="269.04" waitingTime="23.00" waitingCount="1" stopTime="0.00" timeLoss="46.24" rerouteNo="0" devices="tripinfo_flow_route_67_duration_20250327_1910.3" vType="car" speedFactor="1.15" vaporized=""/>
    <tripinfo id="flow_route_53_duration_20250327_1910.18" depart="48.00" departLane="138002006#0_0" departPos="10.18" departSpeed="0.00" departDelay="18.01" arrival="90.00" arrivalLane="1369578052#0_1" arrivalPos="84.01" arrivalSpeed="14.41" duration="42.00" routeLength="181.75" waitingTime="11.00" waitingCount="1" stopTime="0.00" timeLoss="29.64" rerouteNo="0" devices="tripinfo_flow_route_53_duration_20250327_1910.18" vType="car" speedFactor="0.90" vaporized=""/>
    <tripinfo id="flow_route_67_duration_20250327_1910.5" depart="39.00" departLane="-138002002#2_0" departPos="146.99" departSpeed="0.00" departDelay="1.50" arrival="92.00" arrivalLane="380351865#0_0" arrivalPos="14.02" arrivalSpeed="11.74" duration="53.00" routeLength="200.07" waitingTime="19.00" waitingCount="1" stopTime="0.00" timeLoss="37.16" rerouteNo="0" devices="tripinfo_flow_route_67_duration_20250327_1910.5" vType="car" speedFactor="1.17" vaporized=""/>
    <tripinfo id="flow_route_53_duration_20250327_1910.20" depart="56.00" departLane="138002006#0_0" departPos="16.92" departSpeed="0.00" departDelay="22.68" arrival="93.00" arrivalLane="1369578052#0_0" arrivalPos="88.48" arrivalSpeed="14.61" duration="37.00" routeLength="179.48" waitingTime="6.00" waitingCount="1" stopTime="0.00" timeLoss="25.56" rerouteNo="0" devices="tripinfo_flow_route_53_duration_20250327_1910.20" vType="car" speedFactor="1.09" vaporized=""/>
    <tripinfo id="flow_route_53_duration_20250327_1910.17" depart="45.00" departLane="138002006#0_0" departPos="29.55" departSpeed="0.00" departDelay="16.68" arrival="94.00" arrivalLane="1369578052#0_0" arrivalPos="170.49" arrivalSpeed="16.40" duration="49.00" routeLength="248.86" waitingTime="14.00" waitingCount="1" stopTime="0.00" timeLoss="33.45" rerouteNo="0" devices="tripinfo_flow_route_53_duration_20250327_1910.17" vType="car" speedFactor="1.18" vaporized=""/>
    <tripinfo id="flow_route_67_duration_20250327_1910.4" depart="33.00" departLane="-138002002#2_0" departPos="68.45" departSpeed="0.00" departDelay="3.00" arrival="94.00" arrivalLane="380351865#0_0" arrivalPos="16.58" arrivalSpeed="11.69" duration="61.00" routeLength="281.18" waitingTime="15.00" waitingCount="1" stopTime="0.00" timeLoss="39.10" rerouteNo="0" devices="tripinfo_flow_route_67_duration_20250327_1910.4" vType="car" speedFactor="1.09" vaporized=""/>
    <tripinfo id="flow_route_53_duration_20250327_1910.24" depart="67.00" departLane="138002006#0_0" departPos="17.93" departSpeed="0.00" departDelay="27.02" arrival="94.00" arrivalLane="1369578052#0_1" arrivalPos="86.69" arrivalSpeed="14.55" duration="27.00" routeLength="176.68" waitingTime="0.00" waitingCount="0" stopTime="0.00" timeLoss="16.23" rerouteNo="0" devices="tripinfo_flow_route_53_duration_20250327_1910.24" vType="car" speedFactor="1.10" vaporized=""/>
    <tripinfo id="flow_route_53_duration_20250327_1910.16" depart="40.00" departLane="138002006#0_0" departPos="0.08" departSpeed="0.00" departDelay="13.34" arrival="95.00" arrivalLane="1369578052#0_1" arrivalPos="180.06" arrivalSpeed="16.00" duration="55.00" routeLength="287.90" waitingTime="14.00" waitingCount="1" stopTime="0.00" timeLoss="36.44" rerouteNo="0" devices="tripinfo_flow_route_53_duration_20250327_1910.16" vType="car" speedFactor="0.97" vaporized=""/>
    <tripinfo id="flow_route_53_duration_20250327_1910.19" depart="49.00" departLane="138002006#0_0" departPos="28.48" departSpeed="0.00" departDelay="17.35" arrival="95.00" arrivalLane="1369578052#0_0" arrivalPos="143.96" arrivalSpeed="16.56" duration="46.00" routeLength="223.40" waitingTime="13.00" waitingCount="1" stopTime="0.00" timeLoss="31.60" rerouteNo="0" devices="tripinfo_flow_route_53_duration_20250327_1910.19" vType="car" speedFactor="1.04" vaporized=""/>
    <tripinfo id="flow_route_53_duration_20250327_1910.22" depart="64.00" departLane="138002006#0_0" departPos="27.51" departSpeed="0.00" departDelay="27.35" arrival="96.00" arrivalLane="1369578052#0_0" arrivalPos="105.68" arrivalSpeed="14.08" duration="32.00" routeLength="186.10" waitingTime="6.00" waitingCount="1" stopTime="0.00" timeLoss="18.05" rerouteNo="0" devices="tripinfo_flow_route_53_duration_20250327_1910.22" vType="car" speedFactor="0.85" vaporized=""/>
    <tripinfo id="flow_route_53_duration_20250327_1910.23" depart="66.00" departLane="138002006#0_0" departPos="2.80" departSpeed="0.00" departDelay="27.68" arrival="96.00" arrivalLane="1369578052#0_0" arrivalPos="88.97" arrivalSpeed="13.83" duration="30.00" routeLength="194.09" waitingTime="0.00" waitingCount="0" stopTime="0.00" timeLoss="18.00" rerouteNo="0" devices="tripinfo_flow_route_53_duration_20250327_1910.23" vType="car" speedFactor="1.02" vaporized=""/>
    <tripinfo id="flow_route_67_duration_20250327_1910.6" depart="45.00" departLane="-138002002#2_0" departPos="82.26" departSpeed="0.00" departDelay="0.00" arrival="96.00" arrivalLane="380351865#0_0" arrivalPos="14.40" arrivalSpeed="10.57" duration="51.00" routeLength="265.20" waitingTime="7.00" waitingCount="1" stopTime="0.00" timeLoss="28.33" rerouteNo="0" devices="tripinfo_flow_route_67_duration_20250327_1910.6" vType="car" speedFactor="0.97" vaporized=""/>
    <tripinfo id="flow_route_67_duration_20250327_1910.7" depart="54.00" departLane="-138002002#2_0" departPos="15.67" departSpeed="0.00" departDelay="1.50" arrival="96.00" arrivalLane="380351865#0_0" arrivalPos="0.59" arrivalSpeed="10.30" duration="42.00" routeLength="317.97" waitingTime="0.00" waitingCount="0" stopTime="0.00" timeLoss="18.16" rerouteNo="0" devices="tripinfo_flow_route_67_duration_20250327_1910.7" vType="car" speedFactor="1.04" vaporized=""/>
    <tripinfo id="flow_route_53_duration_20250327_1910.21" depart="61.00" departLane="138002006#0_0" departPos="16.69" departSpeed="0.00" departDelay="26.01" arrival="98.00" arrivalLane="1369578052#0_1" arrivalPos="180.31" arrivalSpeed="16.58" duration="37.00" routeLength="271.55" waitingTime="1.00" waitingCount="1" stopTime="0.00" timeLoss="20.21" rerouteNo="0" devices="tripinfo_flow_route_53_duration_20250327_1910.21" vType="car" speedFactor="1.00" vaporized=""/>
    <tripinfo id="flow_route_53_duration_20250327_1910.26" depart="80.00" departLane="138002006#0_0" departPos="13.63" departSpeed="0.00" departDelay="36.68" arrival="106.00" arrivalLane="1369578052#0_1" arrivalPos="89.85" arrivalSpeed="14.67" duration="26.00" routeLength="184.14" waitingTime="0.00" waitingCount="0" stopTime="0.00" timeLoss="14.41" rerouteNo="0" devices="tripinfo_flow_route_53_duration_20250327_1910.26" vType="car" speedFactor="1.14" vaporized=""/>
    <tripinfo id="flow_route_53_duration_20250327_1910.30" depart="89.00" departLane="138002006#0_0" departPos="81.58" departSpeed="0.00" departDelay="39.02" arrival="106.00" arrivalLane="1369578052#0_0" arrivalPos="85.87" arrivalSpeed="12.99" duration="17.00" routeLength="112.21" waitingTime="0.00" waitingCount="0" stopTime="0.00" timeLoss="8.74" rerouteNo="0" devices="tripinfo_flow_route_53_duration_20250327_1910.30" vType="car" speedFactor="0.88" vaporized=""/>
    <tripinfo id="flow_route_53_duration_20250327_1910.25" depart="80.00" departLane="138002006#0_0" departPos="26.05" departSpeed="0.00" departDelay="38.35" arrival="108.00" arrivalLane="1369578052#0_1" arrivalPos="167.58" arrivalSpeed="16.48" duration="28.00" routeLength="249.45" waitingTime="0.00" waitingCount="0" stopTime="0.00" timeLoss="12.24" rerouteNo="0" devices="tripinfo_flow_route_53_duration_20250327_1910.25" vType="car" speedFactor="1.00" vaporized=""/>
    <tripinfo id="flow_route_53_duration_20250327_1910.27" depart="86.00" departLane="138002006#0_0" departPos="58.19" departSpeed="0.00" departDelay="41.02" arrival="108.00" arrivalLane="1369578052#0_0" arrivalPos="85.32" arrivalSpeed="13.47" duration="22.00" routeLength="135.06" waitingTime="0.00" waitingCount="0" stopTime="0.00" timeLoss="13.08" rerouteNo="0" devices="tripinfo_flow_route_53_duration_20250327_1910.27" vType="car" speedFactor="1.02" vaporized=""/>
    <tripinfo id="flow_route_59_duration_20250327_1910.10" depart="35.00" departLane="186407685_0" departPos="61.01" departSpeed="0.00" departDelay="6.43" arrival="117.00" arrivalLane="1369578052#0_0" arrivalPos="90.82" arrivalSpeed="12.72" duration="82.00" routeLength="215.92" waitingTime="38.00" waitingCount="1" stopTime="0.00" timeLoss="68.44" rerouteNo="0" devices="tripinfo_flow_route_59_duration_20250327_1910.10" vType="car" speedFactor="1.10" vaporized=""/>
    <tripinfo id="flow_route_59_duration_20250327_1910.7" depart="21.00" departLane="186407685_0" departPos="15.23" departSpeed="0.00" departDelay="1.00" arrival="121.00" arrivalLane="1369578052#0_0" arrivalPos="171.08" arrivalSpeed="16.25" duration="100.00" routeLength="341.96" waitingTime="43.00" waitingCount="2" stopTime="0.00" timeLoss="78.54" rerouteNo="0" devices="tripinfo_flow_route_59_duration_20250327_1910.7" vType="car" speedFactor="1.13" vaporized=""/>
    <tripinfo id="flow_route_59_duration_20250327_1910.9" depart="27.00" departLane="186407685_0" departPos="18.54" departSpeed="0.00" departDelay="1.29" arrival="122.00" arrivalLane="1369578052#0_0" arrivalPos="107.84" arrivalSpeed="14.15" duration="95.00" routeLength="275.40" waitingTime="36.00" waitingCount="1" stopTime="0.00" timeLoss="76.91" rerouteNo="0" devices="tripinfo_flow_route_59_duration_20250327_1910.9" vType="car" speedFactor="1.02" vaporized=""/>
    <tripinfo id="flow_route_59_duration_20250327_1910.14" depart="46.00" departLane="186407685_0" departPos="64.90" departSpeed="0.00" departDelay="6.00" arrival="123.00" arrivalLane="1369578052#0_0" arrivalPos="62.46" arrivalSpeed="10.59" duration="77.00" routeLength="183.67" waitingTime="34.00" waitingCount="1" stopTime="0.00" timeLoss="64.74" rerouteNo="0" devices="tripinfo_flow_route_59_duration_20250327_1910.14" vType="car" speedFactor="1.00" vaporized=""/>
    <tripinfo id="flow_route_59_duration_20250327_1910.11" depart="39.00" departLane="186407685_0" departPos="29.66" departSpeed="0.00" departDelay="7.57" arrival="124.00" arrivalLane="1369578052#0_0" arrivalPos="51.83" arrivalSpeed="10.08" duration="85.00" routeLength="208.28" waitingTime="36.00" waitingCount="1" stopTime="0.00" timeLoss="71.84" rerouteNo="0" devices="tripinfo_flow_route_59_duration_20250327_1910.11" vType="car" speedFactor="1.04" vaporized=""/>
    <tripinfo id="flow_route_59_duration_20250327_1910.13" depart="46.00" departLane="186407685_0" departPos="78.73" departSpeed="0.00" departDelay="8.86" arrival="125.00" arrivalLane="1369578052#0_0" arrivalPos="118.18" arrivalSpeed="13.85" duration="79.00" routeLength="225.56" waitingTime="35.00" waitingCount="1" stopTime="0.00" timeLoss="63.32" rerouteNo="0" devices="tripinfo_flow_route_59_duration_20250327_1910.13" vType="car" speedFactor="0.85" vaporized=""/>
    <tripinfo id="flow_route_59_duration_20250327_1910.12" depart="42.00" departLane="186407685_0" departPos="20.25" departSpeed="0.00" departDelay="7.72" arrival="136.00" arrivalLane="1369578052#0_0" arrivalPos="155.85" arrivalSpeed="14.91" duration="94.00" routeLength="321.71" waitingTime="35.00" waitingCount="1" stopTime="0.00" timeLoss="71.45" rerouteNo="0" devices="tripinfo_flow_route_59_duration_20250327_1910.12" vType="car" speedFactor="0.90" vaporized=""/>