<?xml version="1.0" encoding="UTF-8"?>

<!-- generated on 2025-05-06 21:08:56 by Eclipse SUMO sumo Version 1.20.0
<configuration xmlns:xsi="http://www.w3.org/2001/XMLSchema-instance" xsi:noNamespaceSchemaLocation="http://sumo.dlr.de/xsd/sumoConfiguration.xsd">

    <input>
        <net-file value="osm.net.xml"/>
        <route-files value="xml/route_static_11644940310_7.rou.xml"/>
    </input>

    <output>
        <tripinfo-output value="xml/tripinfo_static_11644940310_7.xml"/>
    </output>

    <traci_server>
        <remote-port value="50471"/>
    </traci_server>

</configuration>
-->

<tripinfos xmlns:xsi="http://www.w3.org/2001/XMLSchema-instance" xsi:noNamespaceSchemaLocation="http://sumo.dlr.de/xsd/tripinfo_file.xsd">
    <tripinfo id="flow_route_27_duration_20250327_2110.0" depart="0.00" departLane="1254771874#0_0" departPos="190.47" departSpeed="0.00" departDelay="0.00" arrival="15.00" arrivalLane="138002006#0_1" arrivalPos="4.04" arrivalSpeed="9.09" duration="15.00" routeLength="85.46" waitingTime="0.00" waitingCount="0" stopTime="0.00" timeLoss="8.79" rerouteNo="0" devices="tripinfo_flow_route_27_duration_20250327_2110.0" vType="car" speedFactor="1.01" vaporized=""/>
    <tripinfo id="flow_route_25_duration_20250327_2110.0" depart="0.00" departLane="1254771874#0_0" departPos="63.27" departSpeed="0.00" departDelay="0.00" arrival="33.00" arrivalLane="1341093415#0_1" arrivalPos="158.81" arrivalSpeed="16.46" duration="33.00" routeLength="373.33" waitingTime="0.00" waitingCount="0" stopTime="0.00" timeLoss="10.10" rerouteNo="0" devices="tripinfo_flow_route_25_duration_20250327_2110.0" vType="car" speedFactor="1.06" vaporized=""/>
    <tripinfo id="flow_route_41_duration_20250327_2110.1" depart="5.00" departLane="1369578054_0" departPos="262.36" departSpeed="0.00" departDelay="0.00" arrival="34.00" arrivalLane="138002006#0_0" arrivalPos="5.35" arrivalSpeed="6.48" duration="29.00" routeLength="64.92" waitingTime="9.00" waitingCount="1" stopTime="0.00" timeLoss="24.45" rerouteNo="0" devices="tripinfo_flow_route_41_duration_20250327_2110.1" vType="car" speedFactor="0.89" vaporized=""/>
    <tripinfo id="flow_route_50_duration_20250327_2110.0" depart="0.00" departLane="-138002006#3_0" departPos="41.39" departSpeed="0.00" departDelay="0.00" arrival="35.00" arrivalLane="-422986370#2_0" arrivalPos="13.06" arrivalSpeed="6.60" duration="35.00" routeLength="82.72" waitingTime="13.00" waitingCount="1" stopTime="0.00" timeLoss="28.99" rerouteNo="0" devices="tripinfo_flow_route_50_duration_20250327_2110.0" vType="car" speedFactor="0.83" vaporized=""/>
    <tripinfo id="flow_route_26_duration_20250327_2110.0" depart="0.00" departLane="1254771874#0_0" departPos="139.38" departSpeed="0.00" departDelay="0.00" arrival="39.00" arrivalLane="-422986370#2_0" arrivalPos="213.43" arrivalSpeed="15.47" duration="39.00" routeLength="338.64" waitingTime="0.00" waitingCount="0" stopTime="0.00" timeLoss="15.93" rerouteNo="0" devices="tripinfo_flow_route_26_duration_20250327_2110.0" vType="car" speedFactor="0.94" vaporized=""/>
    <tripinfo id="flow_route_41_duration_20250327_2110.2" depart="10.00" departLane="1369578054_0" departPos="204.84" departSpeed="0.00" departDelay="0.00" arrival="39.00" arrivalLane="138002006#0_1" arrivalPos="28.58" arrivalSpeed="9.37" duration="29.00" routeLength="145.67" waitingTime="0.00" waitingCount="0" stopTime="0.00" timeLoss="19.40" rerouteNo="0" devices="tripinfo_flow_route_41_duration_20250327_2110.2" vType="car" speedFactor="0.94" vaporized=""/>
    <tripinfo id="flow_route_41_duration_20250327_2110.0" depart="0.00" departLane="1369578054_0" departPos="201.66" departSpeed="0.00" departDelay="0.00" arrival="40.00" arrivalLane="138002006#0_1" arrivalPos="52.37" arrivalSpeed="11.22" duration="40.00" routeLength="172.64" waitingTime="7.00" waitingCount="1" stopTime="0.00" timeLoss="28.95" rerouteNo="0" devices="tripinfo_flow_route_41_duration_20250327_2110.0" vType="car" speedFactor="1.03" vaporized=""/>
    <tripinfo id="flow_route_41_duration_20250327_2110.4" depart="20.00" departLane="1369578054_0" departPos="229.08" departSpeed="0.00" departDelay="0.00" arrival="40.00" arrivalLane="138002006#0_1" arrivalPos="21.01" arrivalSpeed="9.35" duration="20.00" routeLength="113.87" waitingTime="0.00" waitingCount="0" stopTime="0.00" timeLoss="12.91" rerouteNo="0" devices="tripinfo_flow_route_41_duration_20250327_2110.4" vType="car" speedFactor="0.99" vaporized=""/>
    <tripinfo id="flow_route_41_duration_20250327_2110.3" depart="15.00" departLane="1369578054_0" departPos="265.97" departSpeed="0.00" departDelay="0.00" arrival="44.00" arrivalLane="138002006#0_0" arrivalPos="83.36" arrivalSpeed="12.87" duration="29.00" routeLength="139.32" waitingTime="2.00" waitingCount="1" stopTime="0.00" timeLoss="20.27" rerouteNo="0" devices="tripinfo_flow_route_41_duration_20250327_2110.3" vType="car" speedFactor="1.03" vaporized=""/>
    <tripinfo id="flow_route_40_duration_20250327_2110.0" depart="0.00" departLane="1369578054_0" departPos="1.81" departSpeed="0.00" departDelay="0.00" arrival="45.00" arrivalLane="1341093415#0_0" arrivalPos="87.60" arrivalSpeed="13.88" duration="45.00" routeLength="396.71" waitingTime="0.00" waitingCount="0" stopTime="0.00" timeLoss="20.25" rerouteNo="0" devices="tripinfo_flow_route_40_duration_20250327_2110.0" vType="car" speedFactor="1.08" vaporized=""/>
    <tripinfo id="flow_route_51_duration_20250327_2110.1" depart="30.00" departLane="-138002006#3_0" departPos="21.43" departSpeed="0.00" departDelay="0.00" arrival="52.00" arrivalLane="1341093415#0_3" arrivalPos="47.07" arrivalSpeed="10.07" duration="22.00" routeLength="129.32" waitingTime="0.00" waitingCount="0" stopTime="0.00" timeLoss="13.37" rerouteNo="0" devices="tripinfo_flow_route_51_duration_20250327_2110.1" vType="car" speedFactor="1.02" vaporized=""/>
    <tripinfo id="flow_route_51_duration_20250327_2110.0" depart="2.00" departLane="-138002006#3_0" departPos="23.48" departSpeed="0.00" departDelay="2.00" arrival="57.00" arrivalLane="1341093415#0_3" arrivalPos="132.48" arrivalSpeed="14.44" duration="55.00" routeLength="212.67" waitingTime="19.00" waitingCount="2" stopTime="0.00" timeLoss="41.26" rerouteNo="0" devices="tripinfo_flow_route_51_duration_20250327_2110.0" vType="car" speedFactor="1.05" vaporized=""/>
    <tripinfo id="flow_route_50_duration_20250327_2110.1" depart="30.00" departLane="-138002006#3_0" departPos="50.75" departSpeed="0.00" departDelay="0.00" arrival="62.00" arrivalLane="-422986370#2_0" arrivalPos="288.93" arrivalSpeed="16.33" duration="32.00" routeLength="349.22" waitingTime="0.00" waitingCount="0" stopTime="0.00" timeLoss="10.10" rerouteNo="0" devices="tripinfo_flow_route_50_duration_20250327_2110.1" vType="car" speedFactor="1.16" vaporized=""/>
    <tripinfo id="flow_route_27_duration_20250327_2110.1" depart="13.00" departLane="1254771874#0_0" departPos="78.49" departSpeed="0.00" departDelay="1.00" arrival="69.00" arrivalLane="138002006#0_1" arrivalPos="4.10" arrivalSpeed="5.30" duration="56.00" routeLength="197.50" waitingTime="24.00" waitingCount="1" stopTime="0.00" timeLoss="42.88" rerouteNo="0" devices="tripinfo_flow_route_27_duration_20250327_2110.1" vType="car" speedFactor="0.86" vaporized=""/>
    <tripinfo id="flow_route_27_duration_20250327_2110.2" depart="25.00" departLane="1254771874#0_0" departPos="175.12" departSpeed="0.00" departDelay="1.00" arrival="73.00" arrivalLane="138002006#0_1" arrivalPos="14.12" arrivalSpeed="7.83" duration="48.00" routeLength="110.90" waitingTime="21.00" waitingCount="1" stopTime="0.00" timeLoss="40.31" rerouteNo="0" devices="tripinfo_flow_route_27_duration_20250327_2110.2" vType="car" speedFactor="0.93" vaporized=""/>
    <tripinfo id="flow_route_26_duration_20250327_2110.2" depart="31.00" departLane="1254771874#0_0" departPos="207.49" departSpeed="0.00" departDelay="1.00" arrival="76.00" arrivalLane="-422986370#2_0" arrivalPos="37.56" arrivalSpeed="9.09" duration="45.00" routeLength="94.67" waitingTime="22.00" waitingCount="1" stopTime="0.00" timeLoss="38.11" rerouteNo="0" devices="tripinfo_flow_route_26_duration_20250327_2110.2" vType="car" speedFactor="0.94" vaporized=""/>
    <tripinfo id="flow_route_27_duration_20250327_2110.4" depart="48.00" departLane="1254771874#0_0" departPos="71.28" departSpeed="0.00" departDelay="0.00" arrival="77.00" arrivalLane="138002006#0_1" arrivalPos="2.47" arrivalSpeed="7.70" duration="29.00" routeLength="203.08" waitingTime="0.00" waitingCount="0" stopTime="0.00" timeLoss="15.82" rerouteNo="0" devices="tripinfo_flow_route_27_duration_20250327_2110.4" vType="car" speedFactor="1.13" vaporized=""/>
    <tripinfo id="flow_route_25_duration_20250327_2110.1" depart="20.00" departLane="1254771874#0_0" departPos="8.29" departSpeed="0.00" departDelay="0.00" arrival="78.00" arrivalLane="1341093415#0_1" arrivalPos="70.69" arrivalSpeed="11.83" duration="58.00" routeLength="340.18" waitingTime="14.00" waitingCount="1" stopTime="0.00" timeLoss="37.16" rerouteNo="0" devices="tripinfo_flow_route_25_duration_20250327_2110.1" vType="car" speedFactor="1.05" vaporized=""/>
    <tripinfo id="flow_route_27_duration_20250327_2110.3" depart="36.00" departLane="1254771874#0_0" departPos="176.79" departSpeed="0.00" departDelay="0.00" arrival="80.00" arrivalLane="138002006#0_1" arrivalPos="52.93" arrivalSpeed="10.94" duration="44.00" routeLength="148.03" waitingTime="13.00" waitingCount="1" stopTime="0.00" timeLoss="34.12" rerouteNo="0" devices="tripinfo_flow_route_27_duration_20250327_2110.3" vType="car" speedFactor="0.97" vaporized=""/>
    <tripinfo id="flow_route_25_duration_20250327_2110.2" depart="40.00" departLane="1254771874#0_0" departPos="125.91" departSpeed="0.00" departDelay="0.00" arrival="84.00" arrivalLane="1341093415#0_2" arrivalPos="166.66" arrivalSpeed="16.14" duration="44.00" routeLength="318.53" waitingTime="2.00" waitingCount="1" stopTime="0.00" timeLoss="24.42" rerouteNo="0" devices="tripinfo_flow_route_25_duration_20250327_2110.2" vType="car" speedFactor="0.89" vaporized=""/>
    <tripinfo id="flow_route_26_duration_20250327_2110.1" depart="15.00" departLane="1254771874#0_0" departPos="210.71" departSpeed="0.00" departDelay="0.00" arrival="86.00" arrivalLane="-422986370#2_0" arrivalPos="189.76" arrivalSpeed="16.38" duration="71.00" routeLength="243.65" waitingTime="34.00" waitingCount="1" stopTime="0.00" timeLoss="54.95" rerouteNo="0" devices="tripinfo_flow_route_26_duration_20250327_2110.1" vType="car" speedFactor="1.09" vaporized=""/>
    <tripinfo id="flow_route_26_duration_20250327_2110.3" depart="45.00" departLane="1254771874#0_0" departPos="164.02" departSpeed="0.00" departDelay="0.00" arrival="96.00" arrivalLane="-422986370#2_0" arrivalPos="286.04" arrivalSpeed="14.83" duration="51.00" routeLength="386.63" waitingTime="4.00" waitingCount="1" stopTime="0.00" timeLoss="25.40" rerouteNo="0" devices="tripinfo_flow_route_26_duration_20250327_2110.3" vType="car" speedFactor="0.92" vaporized=""/>
    <tripinfo id="flow_route_41_duration_20250327_2110.5" depart="26.00" departLane="1369578054_0" departPos="38.77" departSpeed="0.00" departDelay="1.00" arrival="97.00" arrivalLane="138002006#0_1" arrivalPos="2.65" arrivalSpeed="6.13" duration="71.00" routeLength="285.81" waitingTime="32.00" waitingCount="1" stopTime="0.00" timeLoss="51.16" rerouteNo="0" devices="tripinfo_flow_route_41_duration_20250327_2110.5" vType="car" speedFactor="0.88" vaporized=""/>
    <tripinfo id="flow_route_41_duration_20250327_2110.6" depart="31.00" departLane="1369578054_0" departPos="26.67" departSpeed="0.00" departDelay="1.00" arrival="103.00" arrivalLane="138002006#0_1" arrivalPos="36.52" arrivalSpeed="10.47" duration="72.00" routeLength="331.77" waitingTime="28.00" waitingCount="1" stopTime="0.00" timeLoss="50.31" rerouteNo="0" devices="tripinfo_flow_route_41_duration_20250327_2110.6" vType="car" speedFactor="0.94" vaporized=""/>
    <tripinfo id="flow_route_41_duration_20250327_2110.7" depart="35.00" departLane="1369578054_0" departPos="214.41" departSpeed="0.00" departDelay="0.00" arrival="103.00" arrivalLane="138002006#0_0" arrivalPos="59.31" arrivalSpeed="11.17" duration="68.00" routeLength="166.83" waitingTime="36.00" waitingCount="1" stopTime="0.00" timeLoss="57.51" rerouteNo="0" devices="tripinfo_flow_route_41_duration_20250327_2110.7" vType="car" speedFactor="1.01" vaporized=""/>
    <tripinfo id="flow_route_41_duration_20250327_2110.8" depart="40.00" departLane="1369578054_0" departPos="50.46" departSpeed="0.00" departDelay="0.00" arrival="104.00" arrivalLane="138002006#0_1" arrivalPos="27.32" arrivalSpeed="10.30" duration="64.00" routeLength="298.79" waitingTime="23.00" waitingCount="1" stopTime="0.00" timeLoss="42.95" rerouteNo="0" devices="tripinfo_flow_route_41_duration_20250327_2110.8" vType="car" speedFactor="0.87" vaporized=""/>
    <tripinfo id="flow_route_41_duration_20250327_2110.9" depart="45.00" departLane="1369578054_0" departPos="45.49" departSpeed="0.00" departDelay="0.00" arrival="105.00" arrivalLane="138002006#0_0" arrivalPos="16.28" arrivalSpeed="10.18" duration="60.00" routeLength="292.71" waitingTime="19.00" waitingCount="1" stopTime="0.00" timeLoss="40.96" rerouteNo="0" devices="tripinfo_flow_route_41_duration_20250327_2110.9" vType="car" speedFactor="0.95" vaporized=""/>
    <tripinfo id="flow_route_41_duration_20250327_2110.11" depart="58.00" departLane="1369578054_0" departPos="25.77" departSpeed="0.00" departDelay="3.00" arrival="107.00" arrivalLane="138002006#0_0" arrivalPos="15.89" arrivalSpeed="9.75" duration="49.00" routeLength="312.04" waitingTime="6.00" waitingCount="1" stopTime="0.00" timeLoss="30.03" rerouteNo="0" devices="tripinfo_flow_route_41_duration_20250327_2110.11" vType="car" speedFactor="1.18" vaporized=""/>
    <tripinfo id="flow_route_40_duration_20250327_2110.1" depart="20.00" departLane="1369578054_0" departPos="90.42" departSpeed="0.00" departDelay="0.00" arrival="108.00" arrivalLane="1341093415#0_0" arrivalPos="97.02" arrivalSpeed="12.82" duration="88.00" routeLength="317.52" waitingTime="35.00" waitingCount="1" stopTime="0.00" timeLoss="67.64" rerouteNo="0" devices="tripinfo_flow_route_40_duration_20250327_2110.1" vType="car" speedFactor="1.12" vaporized=""/>
    <tripinfo id="flow_route_41_duration_20250327_2110.10" depart="51.00" departLane="1369578054_0" departPos="20.07" departSpeed="0.00" departDelay="1.00" arrival="108.00" arrivalLane="138002006#0_1" arrivalPos="48.54" arrivalSpeed="12.29" duration="57.00" routeLength="350.40" waitingTime="11.00" waitingCount="1" stopTime="0.00" timeLoss="33.83" rerouteNo="0" devices="tripinfo_flow_route_41_duration_20250327_2110.10" vType="car" speedFactor="0.93" vaporized=""/>
    <tripinfo id="flow_route_40_duration_20250327_2110.2" depart="40.00" departLane="1369578054_0" departPos="173.81" departSpeed="0.00" departDelay="0.00" arrival="114.00" arrivalLane="1341093415#0_0" arrivalPos="171.10" arrivalSpeed="16.30" duration="74.00" routeLength="308.21" waitingTime="32.00" waitingCount="1" stopTime="0.00" timeLoss="52.71" rerouteNo="0" devices="tripinfo_flow_route_40_duration_20250327_2110.2" vType="car" speedFactor="0.83" vaporized=""/>
</tripinfos>
