<?xml version="1.0" encoding="UTF-8"?>

<!-- generated on 2025-05-06 21:09:07 by Eclipse SUMO sumo Version 1.20.0
<configuration xmlns:xsi="http://www.w3.org/2001/XMLSchema-instance" xsi:noNamespaceSchemaLocation="http://sumo.dlr.de/xsd/sumoConfiguration.xsd">

    <input>
        <net-file value="osm.net.xml"/>
        <route-files value="xml/route_static_632031937_8.rou.xml"/>
    </input>

    <output>
        <tripinfo-output value="xml/tripinfo_static_632031937_8.xml"/>
    </output>

    <traci_server>
        <remote-port value="48919"/>
    </traci_server>

</configuration>
-->

<tripinfos xmlns:xsi="http://www.w3.org/2001/XMLSchema-instance" xsi:noNamespaceSchemaLocation="http://sumo.dlr.de/xsd/tripinfo_file.xsd">
    <tripinfo id="flow_route_66_duration_20250327_1930.0" depart="0.00" departLane="-138002002#2_0" departPos="85.87" departSpeed="0.00" departDelay="0.00" arrival="19.00" arrivalLane="-138002006#3_1" arrivalPos="3.87" arrivalSpeed="12.70" duration="19.00" routeLength="121.39" waitingTime="0.00" waitingCount="0" stopTime="0.00" timeLoss="10.11" rerouteNo="0" devices="tripinfo_flow_route_66_duration_20250327_1930.0" vType="car" speedFactor="0.83" vaporized=""/>
    <tripinfo id="flow_route_53_duration_20250327_1930.1" depart="4.00" departLane="138002006#0_0" departPos="77.73" departSpeed="0.00" departDelay="0.47" arrival="19.00" arrivalLane="1369578052#0_0" arrivalPos="48.76" arrivalSpeed="10.82" duration="15.00" routeLength="78.95" waitingTime="0.00" waitingCount="0" stopTime="0.00" timeLoss="9.04" rerouteNo="0" devices="tripinfo_flow_route_53_duration_20250327_1930.1" vType="car" speedFactor="0.89" vaporized=""/>
    <tripinfo id="flow_route_53_duration_20250327_1930.0" depart="0.00" departLane="138002006#0_0" departPos="48.40" departSpeed="0.00" departDelay="0.00" arrival="22.00" arrivalLane="1369578052#0_1" arrivalPos="131.33" arrivalSpeed="15.42" duration="22.00" routeLength="190.85" waitingTime="0.00" waitingCount="0" stopTime="0.00" timeLoss="9.78" rerouteNo="0" devices="tripinfo_flow_route_53_duration_20250327_1930.0" vType="car" speedFactor="0.94" vaporized=""/>
    <tripinfo id="flow_route_53_duration_20250327_1930.2" depart="8.00" departLane="138002006#0_0" departPos="56.23" departSpeed="0.00" departDelay="0.94" arrival="27.00" arrivalLane="1369578052#0_0" arrivalPos="94.56" arrivalSpeed="15.31" duration="19.00" routeLength="146.24" waitingTime="0.00" waitingCount="0" stopTime="0.00" timeLoss="9.83" rerouteNo="0" devices="tripinfo_flow_route_53_duration_20250327_1930.2" vType="car" speedFactor="1.09" vaporized=""/>
    <tripinfo id="flow_route_52_duration_20250327_1930.0" depart="0.00" departLane="138002006#0_0" departPos="21.97" departSpeed="0.00" departDelay="0.00" arrival="30.00" arrivalLane="380351865#0_1" arrivalPos="15.21" arrivalSpeed="11.55" duration="30.00" routeLength="234.80" waitingTime="0.00" waitingCount="0" stopTime="0.00" timeLoss="10.36" rerouteNo="0" devices="tripinfo_flow_route_52_duration_20250327_1930.0" vType="car" speedFactor="1.06" vaporized=""/>
    <tripinfo id="flow_route_67_duration_20250327_1930.0" depart="1.00" departLane="-138002002#2_0" departPos="104.31" departSpeed="0.00" departDelay="1.00" arrival="31.00" arrivalLane="380351865#0_0" arrivalPos="12.69" arrivalSpeed="11.37" duration="30.00" routeLength="241.42" waitingTime="0.00" waitingCount="0" stopTime="0.00" timeLoss="10.50" rerouteNo="0" devices="tripinfo_flow_route_67_duration_20250327_1930.0" vType="car" speedFactor="1.05" vaporized=""/>
    <tripinfo id="flow_route_53_duration_20250327_1930.3" depart="12.00" departLane="138002006#0_0" departPos="11.48" departSpeed="0.00" departDelay="1.41" arrival="31.00" arrivalLane="1369578052#0_1" arrivalPos="29.33" arrivalSpeed="13.28" duration="19.00" routeLength="125.76" waitingTime="0.00" waitingCount="0" stopTime="0.00" timeLoss="10.42" rerouteNo="0" devices="tripinfo_flow_route_53_duration_20250327_1930.3" vType="car" speedFactor="0.93" vaporized=""/>
    <tripinfo id="flow_route_53_duration_20250327_1930.5" depart="21.00" departLane="138002006#0_0" departPos="84.77" departSpeed="0.00" departDelay="3.36" arrival="34.00" arrivalLane="1369578052#0_0" arrivalPos="44.50" arrivalSpeed="10.19" duration="13.00" routeLength="67.65" waitingTime="0.00" waitingCount="0" stopTime="0.00" timeLoss="8.58" rerouteNo="0" devices="tripinfo_flow_route_53_duration_20250327_1930.5" vType="car" speedFactor="1.02" vaporized=""/>
    <tripinfo id="flow_route_52_duration_20250327_1930.1" depart="10.00" departLane="138002006#0_0" departPos="26.79" departSpeed="0.00" departDelay="0.00" arrival="38.00" arrivalLane="380351865#0_1" arrivalPos="6.77" arrivalSpeed="12.39" duration="28.00" routeLength="221.54" waitingTime="0.00" waitingCount="0" stopTime="0.00" timeLoss="10.54" rerouteNo="0" devices="tripinfo_flow_route_52_duration_20250327_1930.1" vType="car" speedFactor="1.12" vaporized=""/>
    <tripinfo id="flow_route_53_duration_20250327_1930.4" depart="16.00" departLane="138002006#0_0" departPos="50.74" departSpeed="0.00" departDelay="1.88" arrival="46.00" arrivalLane="1369578052#0_0" arrivalPos="177.79" arrivalSpeed="15.20" duration="30.00" routeLength="234.97" waitingTime="0.00" waitingCount="0" stopTime="0.00" timeLoss="14.04" rerouteNo="0" devices="tripinfo_flow_route_53_duration_20250327_1930.4" vType="car" speedFactor="0.94" vaporized=""/>
    <tripinfo id="flow_route_58_duration_20250327_1930.0" depart="0.00" departLane="186407685_0" departPos="1.07" departSpeed="0.00" departDelay="0.00" arrival="48.00" arrivalLane="-138002006#3_1" arrivalPos="43.63" arrivalSpeed="10.14" duration="48.00" routeLength="235.82" waitingTime="13.00" waitingCount="1" stopTime="0.00" timeLoss="33.03" rerouteNo="0" devices="tripinfo_flow_route_58_duration_20250327_1930.0" vType="car" speedFactor="1.08" vaporized=""/>
    <tripinfo id="flow_route_59_duration_20250327_1930.1" depart="4.00" departLane="186407685_0" departPos="57.01" departSpeed="0.00" departDelay="0.47" arrival="49.00" arrivalLane="1369578052#0_0" arrivalPos="11.11" arrivalSpeed="6.56" duration="45.00" routeLength="140.21" waitingTime="16.00" waitingCount="1" stopTime="0.00" timeLoss="35.26" rerouteNo="0" devices="tripinfo_flow_route_59_duration_20250327_1930.1" vType="car" speedFactor="0.94" vaporized=""/>
    <tripinfo id="flow_route_59_duration_20250327_1930.5" depart="18.00" departLane="186407685_0" departPos="105.57" departSpeed="0.00" departDelay="0.36" arrival="52.00" arrivalLane="1369578052#0_0" arrivalPos="16.41" arrivalSpeed="7.58" duration="34.00" routeLength="96.95" waitingTime="9.00" waitingCount="1" stopTime="0.00" timeLoss="26.79" rerouteNo="0" devices="tripinfo_flow_route_59_duration_20250327_1930.5" vType="car" speedFactor="0.97" vaporized=""/>
    <tripinfo id="flow_route_59_duration_20250327_1930.0" depart="0.00" departLane="186407685_0" departPos="119.17" departSpeed="0.00" departDelay="0.00" arrival="56.00" arrivalLane="1369578052#0_0" arrivalPos="108.75" arrivalSpeed="13.66" duration="56.00" routeLength="175.69" waitingTime="25.00" waitingCount="1" stopTime="0.00" timeLoss="43.96" rerouteNo="0" devices="tripinfo_flow_route_59_duration_20250327_1930.0" vType="car" speedFactor="1.03" vaporized=""/>
    <tripinfo id="flow_route_57_duration_20250327_1930.0" depart="0.00" departLane="186407685_0" departPos="131.94" departSpeed="0.00" departDelay="0.00" arrival="58.00" arrivalLane="380351865#0_0" arrivalPos="0.78" arrivalSpeed="10.89" duration="58.00" routeLength="205.45" waitingTime="25.00" waitingCount="1" stopTime="0.00" timeLoss="41.23" rerouteNo="0" devices="tripinfo_flow_route_57_duration_20250327_1930.0" vType="car" speedFactor="1.01" vaporized=""/>
    <tripinfo id="flow_route_57_duration_20250327_1930.2" depart="18.00" departLane="186407685_0" departPos="126.70" departSpeed="0.00" departDelay="0.86" arrival="59.00" arrivalLane="380351865#0_1" arrivalPos="13.86" arrivalSpeed="11.22" duration="41.00" routeLength="223.76" waitingTime="6.00" waitingCount="1" stopTime="0.00" timeLoss="22.43" rerouteNo="0" devices="tripinfo_flow_route_57_duration_20250327_1930.2" vType="car" speedFactor="1.01" vaporized=""/>
    <tripinfo id="flow_route_57_duration_20250327_1930.1" depart="10.00" departLane="186407685_0" departPos="5.74" departSpeed="0.00" departDelay="1.43" arrival="61.00" arrivalLane="380351865#0_1" arrivalPos="14.07" arrivalSpeed="11.38" duration="51.00" routeLength="344.94" waitingTime="4.00" waitingCount="1" stopTime="0.00" timeLoss="25.32" rerouteNo="0" devices="tripinfo_flow_route_57_duration_20250327_1930.1" vType="car" speedFactor="1.05" vaporized=""/>
    <tripinfo id="flow_route_57_duration_20250327_1930.3" depart="26.00" departLane="186407685_0" departPos="8.29" departSpeed="0.00" departDelay="0.29" arrival="61.00" arrivalLane="380351865#0_1" arrivalPos="3.54" arrivalSpeed="11.37" duration="35.00" routeLength="331.85" waitingTime="0.00" waitingCount="0" stopTime="0.00" timeLoss="12.58" rerouteNo="0" devices="tripinfo_flow_route_57_duration_20250327_1930.3" vType="car" speedFactor="1.18" vaporized=""/>
    <tripinfo id="flow_route_59_duration_20250327_1930.2" depart="10.00" departLane="186407685_0" departPos="41.92" departSpeed="0.00" departDelay="2.94" arrival="62.00" arrivalLane="1369578052#0_0" arrivalPos="56.60" arrivalSpeed="10.60" duration="52.00" routeLength="200.80" waitingTime="8.00" waitingCount="1" stopTime="0.00" timeLoss="38.33" rerouteNo="0" devices="tripinfo_flow_route_59_duration_20250327_1930.2" vType="car" speedFactor="1.03" vaporized=""/>
    <tripinfo id="flow_route_59_duration_20250327_1930.4" depart="15.00" departLane="186407685_0" departPos="29.74" departSpeed="0.00" departDelay="0.88" arrival="63.00" arrivalLane="1369578052#0_0" arrivalPos="48.68" arrivalSpeed="10.86" duration="48.00" routeLength="205.05" waitingTime="7.00" waitingCount="1" stopTime="0.00" timeLoss="34.61" rerouteNo="0" devices="tripinfo_flow_route_59_duration_20250327_1930.4" vType="car" speedFactor="1.16" vaporized=""/>
    <tripinfo id="flow_route_59_duration_20250327_1930.8" depart="29.00" departLane="186407685_0" departPos="74.94" departSpeed="0.00" departDelay="0.77" arrival="64.00" arrivalLane="1369578052#0_0" arrivalPos="39.15" arrivalSpeed="10.56" duration="35.00" routeLength="150.32" waitingTime="2.00" waitingCount="1" stopTime="0.00" timeLoss="24.91" rerouteNo="0" devices="tripinfo_flow_route_59_duration_20250327_1930.8" vType="car" speedFactor="1.17" vaporized=""/>
    <tripinfo id="flow_route_59_duration_20250327_1930.3" depart="11.00" departLane="186407685_0" departPos="58.66" departSpeed="0.00" departDelay="0.41" arrival="69.00" arrivalLane="1369578052#0_0" arrivalPos="176.33" arrivalSpeed="14.18" duration="58.00" routeLength="303.77" waitingTime="8.00" waitingCount="1" stopTime="0.00" timeLoss="36.85" rerouteNo="0" devices="tripinfo_flow_route_59_duration_20250327_1930.3" vType="car" speedFactor="0.88" vaporized=""/>
    <tripinfo id="flow_route_66_duration_20250327_1930.1" depart="11.00" departLane="-138002002#2_0" departPos="5.49" departSpeed="0.00" departDelay="1.00" arrival="75.00" arrivalLane="-138002006#3_0" arrivalPos="48.32" arrivalSpeed="10.10" duration="64.00" routeLength="246.22" waitingTime="28.00" waitingCount="1" stopTime="0.00" timeLoss="49.00" rerouteNo="0" devices="tripinfo_flow_route_66_duration_20250327_1930.1" vType="car" speedFactor="0.99" vaporized=""/>
    <tripinfo id="flow_route_57_duration_20250327_1930.4" depart="39.00" departLane="186407685_0" departPos="49.79" departSpeed="0.00" departDelay="4.72" arrival="75.00" arrivalLane="380351865#0_1" arrivalPos="7.78" arrivalSpeed="10.00" duration="36.00" routeLength="294.60" waitingTime="0.00" waitingCount="0" stopTime="0.00" timeLoss="12.22" rerouteNo="0" devices="tripinfo_flow_route_57_duration_20250327_1930.4" vType="car" speedFactor="0.90" vaporized=""/>
    <tripinfo id="flow_route_53_duration_20250327_1930.8" depart="29.00" departLane="138002006#0_0" departPos="60.25" departSpeed="0.00" departDelay="0.77" arrival="76.00" arrivalLane="1369578052#0_0" arrivalPos="53.46" arrivalSpeed="11.34" duration="47.00" routeLength="101.14" waitingTime="23.00" waitingCount="1" stopTime="0.00" timeLoss="40.25" rerouteNo="0" devices="tripinfo_flow_route_53_duration_20250327_1930.8" vType="car" speedFactor="1.01" vaporized=""/>
    <tripinfo id="flow_route_66_duration_20250327_1930.3" depart="32.00" departLane="-138002002#2_0" departPos="55.77" departSpeed="0.00" departDelay="2.00" arrival="76.00" arrivalLane="-138002006#3_1" arrivalPos="34.60" arrivalSpeed="10.44" duration="44.00" routeLength="182.22" waitingTime="11.00" waitingCount="1" stopTime="0.00" timeLoss="32.64" rerouteNo="0" devices="tripinfo_flow_route_66_duration_20250327_1930.3" vType="car" speedFactor="1.02" vaporized=""/>
    <tripinfo id="flow_route_66_duration_20250327_1930.4" depart="40.00" departLane="-138002002#2_0" departPos="71.96" departSpeed="0.00" departDelay="0.00" arrival="76.00" arrivalLane="-138002006#3_1" arrivalPos="12.53" arrivalSpeed="8.31" duration="36.00" routeLength="143.96" waitingTime="5.00" waitingCount="1" stopTime="0.00" timeLoss="27.14" rerouteNo="0" devices="tripinfo_flow_route_66_duration_20250327_1930.4" vType="car" speedFactor="1.09" vaporized=""/>
    <tripinfo id="flow_route_53_duration_20250327_1930.9" depart="33.00" departLane="138002006#0_0" departPos="55.50" departSpeed="0.00" departDelay="1.24" arrival="79.00" arrivalLane="1369578052#0_0" arrivalPos="67.31" arrivalSpeed="11.81" duration="46.00" routeLength="119.73" waitingTime="20.00" waitingCount="1" stopTime="0.00" timeLoss="38.08" rerouteNo="0" devices="tripinfo_flow_route_53_duration_20250327_1930.9" vType="car" speedFactor="0.97" vaporized=""/>
    <tripinfo id="flow_route_66_duration_20250327_1930.2" depart="20.00" departLane="-138002002#2_0" departPos="106.85" departSpeed="0.00" departDelay="0.00" arrival="81.00" arrivalLane="-138002006#3_0" arrivalPos="85.22" arrivalSpeed="13.08" duration="61.00" routeLength="181.76" waitingTime="26.00" waitingCount="1" stopTime="0.00" timeLoss="46.86" rerouteNo="0" devices="tripinfo_flow_route_66_duration_20250327_1930.2" vType="car" speedFactor="0.83" vaporized=""/>
    <tripinfo id="flow_route_66_duration_20250327_1930.5" depart="50.00" departLane="-138002002#2_0" departPos="2.15" departSpeed="0.00" departDelay="0.00" arrival="81.00" arrivalLane="-138002006#3_1" arrivalPos="41.75" arrivalSpeed="11.66" duration="31.00" routeLength="242.99" waitingTime="0.00" waitingCount="0" stopTime="0.00" timeLoss="14.19" rerouteNo="0" devices="tripinfo_flow_route_66_duration_20250327_1930.5" vType="car" speedFactor="0.90" vaporized=""/>
    <tripinfo id="flow_route_67_duration_20250327_1930.3" depart="21.00" departLane="-138002002#2_0" departPos="118.20" departSpeed="0.00" departDelay="1.00" arrival="85.00" arrivalLane="380351865#0_0" arrivalPos="5.25" arrivalSpeed="9.65" duration="64.00" routeLength="220.11" waitingTime="27.00" waitingCount="1" stopTime="0.00" timeLoss="42.40" rerouteNo="0" devices="tripinfo_flow_route_67_duration_20250327_1930.3" vType="car" speedFactor="0.87" vaporized=""/>
    <tripinfo id="flow_route_53_duration_20250327_1930.12" depart="43.00" departLane="138002006#0_0" departPos="33.68" departSpeed="0.00" departDelay="0.65" arrival="85.00" arrivalLane="1369578052#0_0" arrivalPos="63.51" arrivalSpeed="12.68" duration="42.00" routeLength="137.75" waitingTime="13.00" waitingCount="1" stopTime="0.00" timeLoss="32.01" rerouteNo="0" devices="tripinfo_flow_route_53_duration_20250327_1930.12" vType="car" speedFactor="0.90" vaporized=""/>
    <tripinfo id="flow_route_53_duration_20250327_1930.13" depart="46.00" departLane="138002006#0_0" departPos="56.91" departSpeed="0.00" departDelay="0.12" arrival="86.00" arrivalLane="1369578052#0_0" arrivalPos="105.68" arrivalSpeed="14.03" duration="40.00" routeLength="156.69" waitingTime="14.00" waitingCount="1" stopTime="0.00" timeLoss="28.42" rerouteNo="0" devices="tripinfo_flow_route_53_duration_20250327_1930.13" vType="car" speedFactor="0.85" vaporized=""/>
    <tripinfo id="flow_route_53_duration_20250327_1930.6" depart="25.00" departLane="138002006#0_0" departPos="30.09" departSpeed="0.00" departDelay="3.83" arrival="87.00" arrivalLane="1369578052#0_0" arrivalPos="27.99" arrivalSpeed="9.00" duration="62.00" routeLength="105.81" waitingTime="34.00" waitingCount="2" stopTime="0.00" timeLoss="54.97" rerouteNo="0" devices="tripinfo_flow_route_53_duration_20250327_1930.6" vType="car" speedFactor="0.92" vaporized=""/>
    <tripinfo id="flow_route_67_duration_20250327_1930.2" depart="14.00" departLane="-138002002#2_0" departPos="75.77" departSpeed="0.00" departDelay="0.67" arrival="88.00" arrivalLane="380351865#0_0" arrivalPos="2.14" arrivalSpeed="9.99" duration="74.00" routeLength="259.42" waitingTime="26.00" waitingCount="1" stopTime="0.00" timeLoss="51.15" rerouteNo="0" devices="tripinfo_flow_route_67_duration_20250327_1930.2" vType="car" speedFactor="0.94" vaporized=""/>
    <tripinfo id="flow_route_53_duration_20250327_1930.10" depart="36.00" departLane="138002006#0_0" departPos="30.44" departSpeed="0.00" departDelay="0.71" arrival="88.00" arrivalLane="1369578052#0_0" arrivalPos="179.07" arrivalSpeed="16.57" duration="52.00" routeLength="256.56" waitingTime="16.00" waitingCount="1" stopTime="0.00" timeLoss="36.51" rerouteNo="0" devices="tripinfo_flow_route_53_duration_20250327_1930.10" vType="car" speedFactor="1.03" vaporized=""/>
    <tripinfo id="flow_route_67_duration_20250327_1930.1" depart="7.00" departLane="-138002002#2_0" departPos="8.51" departSpeed="0.00" departDelay="0.33" arrival="93.00" arrivalLane="380351865#0_0" arrivalPos="11.67" arrivalSpeed="9.44" duration="86.00" routeLength="336.21" waitingTime="25.00" waitingCount="1" stopTime="0.00" timeLoss="55.62" rerouteNo="0" devices="tripinfo_flow_route_67_duration_20250327_1930.1" vType="car" speedFactor="0.86" vaporized=""/>
    <tripinfo id="flow_route_67_duration_20250327_1930.5" depart="35.00" departLane="-138002002#2_0" departPos="105.67" departSpeed="0.00" departDelay="1.67" arrival="94.00" arrivalLane="380351865#0_0" arrivalPos="8.41" arrivalSpeed="9.76" duration="59.00" routeLength="235.79" waitingTime="19.00" waitingCount="1" stopTime="0.00" timeLoss="41.14" rerouteNo="0" devices="tripinfo_flow_route_67_duration_20250327_1930.5" vType="car" speedFactor="1.10" vaporized=""/>
    <tripinfo id="flow_route_67_duration_20250327_1930.4" depart="28.00" departLane="-138002002#2_0" departPos="64.81" departSpeed="0.00" departDelay="1.34" arrival="96.00" arrivalLane="380351865#0_0" arrivalPos="1.37" arrivalSpeed="10.37" duration="68.00" routeLength="269.60" waitingTime="18.00" waitingCount="1" stopTime="0.00" timeLoss="48.05" rerouteNo="0" devices="tripinfo_flow_route_67_duration_20250327_1930.4" vType="car" speedFactor="1.15" vaporized=""/>
    <tripinfo id="flow_route_53_duration_20250327_1930.16" depart="57.00" departLane="138002006#0_0" departPos="13.99" departSpeed="0.00" departDelay="0.54" arrival="96.00" arrivalLane="1369578052#0_0" arrivalPos="81.95" arrivalSpeed="12.79" duration="39.00" routeLength="175.88" waitingTime="6.00" waitingCount="1" stopTime="0.00" timeLoss="28.25" rerouteNo="0" devices="tripinfo_flow_route_53_duration_20250327_1930.16" vType="car" speedFactor="1.12" vaporized=""/>
    <tripinfo id="flow_route_67_duration_20250327_1930.7" depart="50.00" departLane="-138002002#2_0" departPos="121.33" departSpeed="0.00" departDelay="3.34" arrival="99.00" arrivalLane="380351865#0_0" arrivalPos="14.02" arrivalSpeed="11.09" duration="49.00" routeLength="225.74" waitingTime="10.00" waitingCount="1" stopTime="0.00" timeLoss="29.13" rerouteNo="0" devices="tripinfo_flow_route_67_duration_20250327_1930.7" vType="car" speedFactor="1.02" vaporized=""/>
    <tripinfo id="flow_route_53_duration_20250327_1930.15" depart="54.00" departLane="138002006#0_0" departPos="18.42" departSpeed="0.00" departDelay="1.07" arrival="99.00" arrivalLane="1369578052#0_0" arrivalPos="151.03" arrivalSpeed="15.97" duration="45.00" routeLength="240.53" waitingTime="9.00" waitingCount="1" stopTime="0.00" timeLoss="30.40" rerouteNo="0" devices="tripinfo_flow_route_53_duration_20250327_1930.15" vType="car" speedFactor="1.02" vaporized=""/>
    <tripinfo id="flow_route_67_duration_20250327_1930.6" depart="43.00" departLane="-138002002#2_0" departPos="51.08" departSpeed="0.00" departDelay="3.00" arrival="100.00" arrivalLane="380351865#0_0" arrivalPos="15.06" arrivalSpeed="10.68" duration="57.00" routeLength="297.03" waitingTime="9.00" waitingCount="1" stopTime="0.00" timeLoss="33.29" rerouteNo="0" devices="tripinfo_flow_route_67_duration_20250327_1930.6" vType="car" speedFactor="1.00" vaporized=""/>
    <tripinfo id="flow_route_52_duration_20250327_1930.2" depart="21.00" departLane="138002006#0_0" departPos="16.28" departSpeed="0.00" departDelay="1.00" arrival="101.00" arrivalLane="380351865#0_1" arrivalPos="15.96" arrivalSpeed="9.47" duration="80.00" routeLength="241.24" waitingTime="37.00" waitingCount="2" stopTime="0.00" timeLoss="56.94" rerouteNo="0" devices="tripinfo_flow_route_52_duration_20250327_1930.2" vType="car" speedFactor="0.89" vaporized=""/>
    <tripinfo id="flow_route_53_duration_20250327_1930.7" depart="25.00" departLane="138002006#0_0" departPos="7.64" departSpeed="0.00" departDelay="0.30" arrival="101.00" arrivalLane="1369578052#0_1" arrivalPos="182.91" arrivalSpeed="16.14" duration="76.00" routeLength="283.19" waitingTime="31.00" waitingCount="2" stopTime="0.00" timeLoss="58.08" rerouteNo="0" devices="tripinfo_flow_route_53_duration_20250327_1930.7" vType="car" speedFactor="1.13" vaporized=""/>
    <tripinfo id="flow_route_53_duration_20250327_1930.11" depart="39.00" departLane="138002006#0_0" departPos="11.03" departSpeed="0.00" departDelay="0.18" arrival="101.00" arrivalLane="1369578052#0_1" arrivalPos="121.99" arrivalSpeed="15.49" duration="62.00" routeLength="218.88" waitingTime="19.00" waitingCount="2" stopTime="0.00" timeLoss="48.20" rerouteNo="0" devices="tripinfo_flow_route_53_duration_20250327_1930.11" vType="car" speedFactor="1.09" vaporized=""/>
    <tripinfo id="flow_route_52_duration_20250327_1930.3" depart="32.00" departLane="138002006#0_0" departPos="2.12" departSpeed="0.00" departDelay="2.00" arrival="103.00" arrivalLane="380351865#0_1" arrivalPos="10.50" arrivalSpeed="10.73" duration="71.00" routeLength="249.94" waitingTime="26.00" waitingCount="2" stopTime="0.00" timeLoss="49.68" rerouteNo="0" devices="tripinfo_flow_route_52_duration_20250327_1930.3" vType="car" speedFactor="0.99" vaporized=""/>
    <tripinfo id="flow_route_53_duration_20250327_1930.14" depart="54.00" departLane="138002006#0_0" departPos="29.55" departSpeed="0.00" departDelay="4.59" arrival="104.00" arrivalLane="1369578052#0_0" arrivalPos="63.75" arrivalSpeed="13.71" duration="50.00" routeLength="142.12" waitingTime="14.00" waitingCount="2" stopTime="0.00" timeLoss="40.66" rerouteNo="0" devices="tripinfo_flow_route_53_duration_20250327_1930.14" vType="car" speedFactor="1.00" vaporized=""/>
    <tripinfo id="flow_route_52_duration_20250327_1930.4" depart="40.00" departLane="138002006#0_0" departPos="3.78" departSpeed="0.00" departDelay="0.00" arrival="107.00" arrivalLane="380351865#0_1" arrivalPos="12.18" arrivalSpeed="11.39" duration="67.00" routeLength="249.95" waitingTime="18.00" waitingCount="2" stopTime="0.00" timeLoss="46.60" rerouteNo="0" devices="tripinfo_flow_route_52_duration_20250327_1930.4" vType="car" speedFactor="1.04" vaporized=""/>
    <tripinfo id="flow_route_59_duration_20250327_1930.6" depart="23.00" departLane="186407685_0" departPos="11.86" departSpeed="0.00" departDelay="1.83" arrival="108.00" arrivalLane="1369578052#0_0" arrivalPos="5.13" arrivalSpeed="5.06" duration="85.00" routeLength="179.38" waitingTime="38.00" waitingCount="2" stopTime="0.00" timeLoss="73.24" rerouteNo="0" devices="tripinfo_flow_route_59_duration_20250327_1930.6" vType="car" speedFactor="0.95" vaporized=""/>
    <tripinfo id="flow_route_52_duration_20250327_1930.5" depart="53.00" departLane="138002006#0_0" departPos="43.27" departSpeed="0.00" departDelay="3.00" arrival="108.00" arrivalLane="380351865#0_1" arrivalPos="2.86" arrivalSpeed="12.09" duration="55.00" routeLength="201.15" waitingTime="21.00" waitingCount="2" stopTime="0.00" timeLoss="38.51" rerouteNo="0" devices="tripinfo_flow_route_52_duration_20250327_1930.5" vType="car" speedFactor="1.10" vaporized=""/>
    <tripinfo id="flow_route_59_duration_20250327_1930.7" depart="26.00" departLane="186407685_0" departPos="31.99" departSpeed="0.00" departDelay="1.30" arrival="113.00" arrivalLane="1369578052#0_0" arrivalPos="57.85" arrivalSpeed="10.03" duration="87.00" routeLength="211.97" waitingTime="39.00" waitingCount="2" stopTime="0.00" timeLoss="72.95" rerouteNo="0" devices="tripinfo_flow_route_59_duration_20250327_1930.7" vType="car" speedFactor="0.93" vaporized=""/>
    <tripinfo id="flow_route_59_duration_20250327_1930.10" depart="40.00" departLane="186407685_0" departPos="65.80" departSpeed="0.00" departDelay="4.71" arrival="117.00" arrivalLane="1369578052#0_0" arrivalPos="54.62" arrivalSpeed="10.68" duration="77.00" routeLength="174.93" waitingTime="36.00" waitingCount="1" stopTime="0.00" timeLoss="64.79" rerouteNo="0" devices="tripinfo_flow_route_59_duration_20250327_1930.10" vType="car" speedFactor="0.96" vaporized=""/>
    <tripinfo id="flow_route_57_duration_20250327_1930.5" depart="50.00" departLane="186407685_0" departPos="60.00" departSpeed="0.00" departDelay="7.15" arrival="123.00" arrivalLane="380351865#0_1" arrivalPos="11.32" arrivalSpeed="9.74" duration="73.00" routeLength="287.93" waitingTime="28.00" waitingCount="1" stopTime="0.00" timeLoss="48.92" rerouteNo="0" devices="tripinfo_flow_route_57_duration_20250327_1930.5" vType="car" speedFactor="0.88" vaporized=""/>
    <tripinfo id="flow_route_59_duration_20250327_1930.13" depart="56.00" departLane="186407685_0" departPos="57.27" departSpeed="0.00" departDelay="10.12" arrival="123.00" arrivalLane="1369578052#0_0" arrivalPos="18.96" arrivalSpeed="8.01" duration="67.00" routeLength="147.80" waitingTime="32.00" waitingCount="1" stopTime="0.00" timeLoss="57.23" rerouteNo="0" devices="tripinfo_flow_route_59_duration_20250327_1930.13" vType="car" speedFactor="1.17" vaporized=""/>
    <tripinfo id="flow_route_57_duration_20250327_1930.6" depart="58.00" departLane="186407685_0" departPos="22.93" departSpeed="0.00" departDelay="6.57" arrival="125.00" arrivalLane="380351865#0_1" arrivalPos="7.03" arrivalSpeed="12.22" duration="67.00" routeLength="320.71" waitingTime="15.00" waitingCount="2" stopTime="0.00" timeLoss="44.31" rerouteNo="0" devices="tripinfo_flow_route_57_duration_20250327_1930.6" vType="car" speedFactor="1.14" vaporized=""/>
    <tripinfo id="flow_route_59_duration_20250327_1930.12" depart="54.00" departLane="186407685_0" departPos="81.96" departSpeed="0.00" departDelay="11.65" arrival="127.00" arrivalLane="1369578052#0_0" arrivalPos="79.42" arrivalSpeed="11.91" duration="73.00" routeLength="183.57" waitingTime="32.00" waitingCount="1" stopTime="0.00" timeLoss="60.36" rerouteNo="0" devices="tripinfo_flow_route_59_duration_20250327_1930.12" vType="car" speedFactor="0.85" vaporized=""/>
    <tripinfo id="flow_route_59_duration_20250327_1930.9" depart="38.00" departLane="186407685_0" departPos="17.98" departSpeed="0.00" departDelay="6.24" arrival="128.00" arrivalLane="1369578052#0_0" arrivalPos="180.06" arrivalSpeed="16.37" duration="90.00" routeLength="348.19" waitingTime="36.00" waitingCount="1" stopTime="0.00" timeLoss="67.68" rerouteNo="0" devices="tripinfo_flow_route_59_duration_20250327_1930.9" vType="car" speedFactor="1.18" vaporized=""/>
    <tripinfo id="flow_route_59_duration_20250327_1930.14" depart="58.00" departLane="186407685_0" departPos="102.62" departSpeed="0.00" departDelay="8.59" arrival="129.00" arrivalLane="1369578052#0_0" arrivalPos="147.09" arrivalSpeed="15.69" duration="71.00" routeLength="230.57" waitingTime="33.00" waitingCount="1" stopTime="0.00" timeLoss="55.36" rerouteNo="0" devices="tripinfo_flow_route_59_duration_20250327_1930.14" vType="car" speedFactor="1.00" vaporized=""/>
    <tripinfo id="flow_route_59_duration_20250327_1930.11" depart="48.00" departLane="186407685_0" departPos="2.59" departSpeed="0.00" departDelay="9.18" arrival="136.00" arrivalLane="1369578052#0_0" arrivalPos="143.96" arrivalSpeed="15.55" duration="88.00" routeLength="327.48" waitingTime="32.00" waitingCount="1" stopTime="0.00" timeLoss="67.51" rerouteNo="0" devices="tripinfo_flow_route_59_duration_20250327_1930.11" vType="car" speedFactor="1.04" vaporized=""/>
    <tripinfo id="flow_route_67_duration_20250327_1930.8" depart="54.00" departLane="-138002002#2_0" departPos="28.25" departSpeed="0.00" departDelay="0.67" arrival="147.00" arrivalLane="380351865#0_0" arrivalPos="13.38" arrivalSpeed="12.02" duration="93.00" routeLength="318.19" waitingTime="39.00" waitingCount="1" stopTime="0.00" timeLoss="69.32" rerouteNo="0" devices="tripinfo_flow_route_67_duration_20250327_1930.8" vType="car" speedFactor="1.08" vaporized=""/>
    <tripinfo id="flow_route_59_duration_20250327_1930.16" depart="60.00" departLane="186407685_0" departPos="40.01" departSpeed="0.00" departDelay="3.54" arrival="176.00" arrivalLane="1369578052#0_0" arrivalPos="67.56" arrivalSpeed="10.89" duration="116.00" routeLength="213.65" waitingTime="69.00" waitingCount="2" stopTime="0.00" timeLoss="102.39" rerouteNo="0" devices="tripinfo_flow_route_59_duration_20250327_1930.16" vType="car" speedFactor="1.02" vaporized=""/>