<?xml version="1.0" encoding="UTF-8"?>

<!-- generated on 2025-05-06 21:08:48 by Eclipse SUMO sumo Version 1.20.0
<configuration xmlns:xsi="http://www.w3.org/2001/XMLSchema-instance" xsi:noNamespaceSchemaLocation="http://sumo.dlr.de/xsd/sumoConfiguration.xsd">

    <input>
        <net-file value="osm.net.xml"/>
        <route-files value="xml/route_static_cluster_11648745684_256036885_3839031483_6.rou.xml"/>
    </input>

    <output>
        <tripinfo-output value="xml/tripinfo_static_cluster_11648745684_256036885_3839031483_6.xml"/>
    </output>

    <traci_server>
        <remote-port value="41119"/>
    </traci_server>

</configuration>
-->

<tripinfos xmlns:xsi="http://www.w3.org/2001/XMLSchema-instance" xsi:noNamespaceSchemaLocation="http://sumo.dlr.de/xsd/tripinfo_file.xsd">
    <tripinfo id="flow_route_72_duration_20250327_2250.0" depart="0.00" departLane="1369578052#0_0" departPos="161.40" departSpeed="0.00" departDelay="0.00" arrival="15.00" arrivalLane="133342692#0_0" arrivalPos="42.43" arrivalSpeed="11.65" duration="15.00" routeLength="81.12" waitingTime="0.00" waitingCount="0" stopTime="0.00" timeLoss="8.08" rerouteNo="0" devices="tripinfo_flow_route_72_duration_20250327_2250.0" vType="car" speedFactor="0.89" vaporized=""/>
    <tripinfo id="flow_route_68_duration_20250327_2250.0" depart="0.00" departLane="1253209803#0_0" departPos="143.52" departSpeed="0.00" departDelay="0.00" arrival="29.00" arrivalLane="-138002002#2_1" arrivalPos="90.53" arrivalSpeed="16.38" duration="29.00" routeLength="298.33" waitingTime="0.00" waitingCount="0" stopTime="0.00" timeLoss="10.81" rerouteNo="0" devices="tripinfo_flow_route_68_duration_20250327_2250.0" vType="car" speedFactor="1.08" vaporized=""/>
    <tripinfo id="flow_route_70_duration_20250327_2250.0" depart="0.00" departLane="1253209803#0_0" departPos="83.97" departSpeed="0.00" departDelay="0.00" arrival="32.00" arrivalLane="133342692#0_2" arrivalPos="7.48" arrivalSpeed="9.70" duration="32.00" routeLength="271.18" waitingTime="0.00" waitingCount="0" stopTime="0.00" timeLoss="13.58" rerouteNo="0" devices="tripinfo_flow_route_70_duration_20250327_2250.0" vType="car" speedFactor="0.83" vaporized=""/>
    <tripinfo id="flow_route_69_duration_20250327_2250.0" depart="0.00" departLane="1253209803#0_0" departPos="179.76" departSpeed="0.00" departDelay="0.00" arrival="34.00" arrivalLane="380585337#0_0" arrivalPos="14.31" arrivalSpeed="16.34" duration="34.00" routeLength="299.43" waitingTime="0.00" waitingCount="0" stopTime="0.00" timeLoss="14.56" rerouteNo="0" devices="tripinfo_flow_route_69_duration_20250327_2250.0" vType="car" speedFactor="1.03" vaporized=""/>
    <tripinfo id="flow_route_65_duration_20250327_2250.0" depart="8.00" departLane="133131666#1_0" departPos="5.26" departSpeed="0.00" departDelay="8.00" arrival="40.00" arrivalLane="138002016#0_2" arrivalPos="14.48" arrivalSpeed="7.58" duration="32.00" routeLength="193.68" waitingTime="0.00" waitingCount="0" stopTime="0.00" timeLoss="19.69" rerouteNo="0" devices="tripinfo_flow_route_65_duration_20250327_2250.0" vType="car" speedFactor="1.01" vaporized=""/>
    <tripinfo id="flow_route_63_duration_20250327_2250.1" depart="20.00" departLane="133131666#1_0" departPos="3.53" departSpeed="0.00" departDelay="0.00" arrival="42.00" arrivalLane="133342692#0_0" arrivalPos="5.56" arrivalSpeed="12.61" duration="22.00" routeLength="185.75" waitingTime="0.00" waitingCount="0" stopTime="0.00" timeLoss="10.78" rerouteNo="0" devices="tripinfo_flow_route_63_duration_20250327_2250.1" vType="car" speedFactor="1.03" vaporized=""/>
    <tripinfo id="flow_route_63_duration_20250327_2250.0" depart="0.00" departLane="133131666#1_0" departPos="14.94" departSpeed="0.00" departDelay="0.00" arrival="52.00" arrivalLane="133342692#0_0" arrivalPos="152.76" arrivalSpeed="16.44" duration="52.00" routeLength="321.54" waitingTime="9.00" waitingCount="1" stopTime="0.00" timeLoss="31.88" rerouteNo="0" devices="tripinfo_flow_route_63_duration_20250327_2250.0" vType="car" speedFactor="1.06" vaporized=""/>
    <tripinfo id="flow_route_64_duration_20250327_2250.0" depart="2.00" departLane="133131666#1_0" departPos="6.82" departSpeed="0.00" departDelay="2.00" arrival="52.00" arrivalLane="-138002002#2_0" arrivalPos="131.25" arrivalSpeed="15.29" duration="50.00" routeLength="289.98" waitingTime="8.00" waitingCount="1" stopTime="0.00" timeLoss="29.68" rerouteNo="0" devices="tripinfo_flow_route_64_duration_20250327_2250.0" vType="car" speedFactor="0.94" vaporized=""/>
    <tripinfo id="flow_route_65_duration_20250327_2250.1" depart="20.00" departLane="133131666#1_0" departPos="21.24" departSpeed="0.00" departDelay="0.00" arrival="53.00" arrivalLane="138002016#0_2" arrivalPos="96.07" arrivalSpeed="15.07" duration="33.00" routeLength="259.29" waitingTime="0.00" waitingCount="0" stopTime="0.00" timeLoss="15.94" rerouteNo="0" devices="tripinfo_flow_route_65_duration_20250327_2250.1" vType="car" speedFactor="1.05" vaporized=""/>
    <tripinfo id="flow_route_63_duration_20250327_2250.2" depart="40.00" departLane="133131666#1_0" departPos="18.02" departSpeed="0.00" departDelay="0.00" arrival="62.00" arrivalLane="133342692#0_0" arrivalPos="28.80" arrivalSpeed="15.49" duration="22.00" routeLength="194.50" waitingTime="0.00" waitingCount="0" stopTime="0.00" timeLoss="9.31" rerouteNo="0" devices="tripinfo_flow_route_63_duration_20250327_2250.2" vType="car" speedFactor="0.94" vaporized=""/>
    <tripinfo id="flow_route_64_duration_20250327_2250.1" depart="30.00" departLane="133131666#1_0" departPos="9.13" departSpeed="0.00" departDelay="0.00" arrival="65.00" arrivalLane="-138002002#2_0" arrivalPos="126.20" arrivalSpeed="14.51" duration="35.00" routeLength="282.61" waitingTime="0.00" waitingCount="0" stopTime="0.00" timeLoss="16.31" rerouteNo="0" devices="tripinfo_flow_route_64_duration_20250327_2250.1" vType="car" speedFactor="0.99" vaporized=""/>
    <tripinfo id="flow_route_75_duration_20250327_2250.0" depart="0.00" departLane="380593307#0_0" departPos="8.02" departSpeed="0.00" departDelay="0.00" arrival="75.00" arrivalLane="-138002002#2_1" arrivalPos="1.11" arrivalSpeed="7.07" duration="75.00" routeLength="196.85" waitingTime="43.00" waitingCount="1" stopTime="0.00" timeLoss="62.30" rerouteNo="0" devices="tripinfo_flow_route_75_duration_20250327_2250.0" vType="car" speedFactor="1.09" vaporized=""/>
    <tripinfo id="flow_route_65_duration_20250327_2250.2" depart="40.00" departLane="133131666#1_0" departPos="1.98" departSpeed="0.00" departDelay="0.00" arrival="78.00" arrivalLane="138002016#0_2" arrivalPos="181.97" arrivalSpeed="16.30" duration="38.00" routeLength="364.46" waitingTime="0.00" waitingCount="0" stopTime="0.00" timeLoss="15.54" rerouteNo="0" devices="tripinfo_flow_route_65_duration_20250327_2250.2" vType="car" speedFactor="1.16" vaporized=""/>
    <tripinfo id="flow_route_75_duration_20250327_2250.2" depart="40.00" departLane="380593307#0_0" departPos="115.99" departSpeed="0.00" departDelay="0.00" arrival="84.00" arrivalLane="-138002002#2_1" arrivalPos="44.47" arrivalSpeed="12.20" duration="44.00" routeLength="132.23" waitingTime="17.00" waitingCount="1" stopTime="0.00" timeLoss="34.77" rerouteNo="0" devices="tripinfo_flow_route_75_duration_20250327_2250.2" vType="car" speedFactor="1.02" vaporized=""/>
    <tripinfo id="flow_route_73_duration_20250327_2250.0" depart="0.00" departLane="380593307#0_0" departPos="55.90" departSpeed="0.00" departDelay="0.00" arrival="87.00" arrivalLane="380585337#0_0" arrivalPos="13.23" arrivalSpeed="15.30" duration="87.00" routeLength="294.01" waitingTime="46.00" waitingCount="1" stopTime="0.00" timeLoss="67.42" rerouteNo="0" devices="tripinfo_flow_route_73_duration_20250327_2250.0" vType="car" speedFactor="0.94" vaporized=""/>
    <tripinfo id="flow_route_75_duration_20250327_2250.1" depart="20.00" departLane="380593307#0_0" departPos="5.18" departSpeed="0.00" departDelay="0.00" arrival="89.00" arrivalLane="-138002002#2_1" arrivalPos="140.83" arrivalSpeed="16.21" duration="69.00" routeLength="339.41" waitingTime="26.00" waitingCount="1" stopTime="0.00" timeLoss="47.47" rerouteNo="0" devices="tripinfo_flow_route_75_duration_20250327_2250.1" vType="car" speedFactor="1.12" vaporized=""/>
    <tripinfo id="flow_route_74_duration_20250327_2250.0" depart="0.00" departLane="380593307#0_0" departPos="118.68" departSpeed="0.00" departDelay="0.00" arrival="93.00" arrivalLane="138002016#0_0" arrivalPos="237.21" arrivalSpeed="13.80" duration="93.00" routeLength="301.22" waitingTime="53.00" waitingCount="1" stopTime="0.00" timeLoss="70.35" rerouteNo="0" devices="tripinfo_flow_route_74_duration_20250327_2250.0" vType="car" speedFactor="0.86" vaporized=""/>
    <tripinfo id="flow_route_72_duration_20250327_2250.1" depart="30.00" departLane="1369578052#0_0" departPos="41.13" departSpeed="0.00" departDelay="0.00" arrival="108.00" arrivalLane="133342692#0_0" arrivalPos="21.50" arrivalSpeed="8.69" duration="78.00" routeLength="180.45" waitingTime="46.00" waitingCount="1" stopTime="0.00" timeLoss="64.93" rerouteNo="0" devices="tripinfo_flow_route_72_duration_20250327_2250.1" vType="car" speedFactor="0.94" vaporized=""/>
    <tripinfo id="flow_route_68_duration_20250327_2250.1" depart="30.00" departLane="1253209803#0_0" departPos="306.19" departSpeed="0.00" departDelay="0.00" arrival="111.00" arrivalLane="-138002002#2_0" arrivalPos="61.03" arrivalSpeed="12.59" duration="81.00" routeLength="106.16" waitingTime="59.00" waitingCount="1" stopTime="0.00" timeLoss="73.51" rerouteNo="0" devices="tripinfo_flow_route_68_duration_20250327_2250.1" vType="car" speedFactor="0.93" vaporized=""/>
    <tripinfo id="flow_route_70_duration_20250327_2250.1" depart="30.00" departLane="1253209803#0_0" departPos="83.83" departSpeed="0.00" departDelay="0.00" arrival="114.00" arrivalLane="133342692#0_2" arrivalPos="22.18" arrivalSpeed="8.34" duration="84.00" routeLength="286.02" waitingTime="40.00" waitingCount="2" stopTime="0.00" timeLoss="64.88" rerouteNo="0" devices="tripinfo_flow_route_70_duration_20250327_2250.1" vType="car" speedFactor="0.88" vaporized=""/>
    <tripinfo id="flow_route_71_duration_20250327_2250.0" depart="0.00" departLane="1369578052#0_0" departPos="11.11" departSpeed="0.00" departDelay="0.00" arrival="123.00" arrivalLane="138002016#0_0" arrivalPos="236.62" arrivalSpeed="16.54" duration="123.00" routeLength="443.19" waitingTime="72.00" waitingCount="1" stopTime="0.00" timeLoss="95.86" rerouteNo="0" devices="tripinfo_flow_route_71_duration_20250327_2250.0" vType="car" speedFactor="1.05" vaporized=""/>
</tripinfos>
