<?xml version="1.0" encoding="UTF-8"?>

<!-- generated on 2025-05-06 21:08:27 by Eclipse SUMO sumo Version 1.20.0
<configuration xmlns:xsi="http://www.w3.org/2001/XMLSchema-instance" xsi:noNamespaceSchemaLocation="http://sumo.dlr.de/xsd/sumoConfiguration.xsd">

    <input>
        <net-file value="osm.net.xml"/>
        <route-files value="xml/route_static_cluster3839130731_cluster_11644940326_11644940327_11648561426_4.rou.xml"/>
    </input>

    <output>
        <tripinfo-output value="xml/tripinfo_static_cluster3839130731_cluster_11644940326_11644940327_11648561426_4.xml"/>
    </output>

    <traci_server>
        <remote-port value="43973"/>
    </traci_server>

</configuration>
-->

<tripinfos xmlns:xsi="http://www.w3.org/2001/XMLSchema-instance" xsi:noNamespaceSchemaLocation="http://sumo.dlr.de/xsd/tripinfo_file.xsd">
    <tripinfo id="flow_route_96_duration_20250327_2200.0" depart="0.00" departLane="1341093416#0_0" departPos="184.53" departSpeed="0.00" departDelay="0.00" arrival="22.00" arrivalLane="1254519229#0_1" arrivalPos="3.62" arrivalSpeed="6.50" duration="22.00" routeLength="114.10" waitingTime="0.00" waitingCount="0" stopTime="0.00" timeLoss="14.00" rerouteNo="0" devices="tripinfo_flow_route_96_duration_20250327_2200.0" vType="car" speedFactor="1.01" vaporized=""/>
    <tripinfo id="flow_route_123_duration_20250327_2200.0" depart="0.00" departLane="189240000#0-AddedOnRampEdge_0" departPos="5.69" departSpeed="0.00" departDelay="0.00" arrival="22.00" arrivalLane="1254519229#0_0" arrivalPos="19.69" arrivalSpeed="11.80" duration="22.00" routeLength="156.33" waitingTime="0.00" waitingCount="0" stopTime="0.00" timeLoss="10.51" rerouteNo="0" devices="tripinfo_flow_route_123_duration_20250327_2200.0" vType="car" speedFactor="0.89" vaporized=""/>
    <tripinfo id="flow_route_96_duration_20250327_2200.1" depart="9.00" departLane="1341093416#0_0" departPos="257.48" departSpeed="0.00" departDelay="0.43" arrival="26.00" arrivalLane="1254519229#0_1" arrivalPos="50.41" arrivalSpeed="10.62" duration="17.00" routeLength="87.94" waitingTime="0.00" waitingCount="0" stopTime="0.00" timeLoss="10.15" rerouteNo="0" devices="tripinfo_flow_route_96_duration_20250327_2200.1" vType="car" speedFactor="1.03" vaporized=""/>
    <tripinfo id="flow_route_111_duration_20250327_2200.0" depart="0.00" departLane="1253188486#8_0" departPos="138.93" departSpeed="0.00" departDelay="0.00" arrival="33.00" arrivalLane="1254519229#0_0" arrivalPos="3.47" arrivalSpeed="6.93" duration="33.00" routeLength="140.76" waitingTime="5.00" waitingCount="1" stopTime="0.00" timeLoss="24.31" rerouteNo="0" devices="tripinfo_flow_route_111_duration_20250327_2200.0" vType="car" speedFactor="0.83" vaporized=""/>
    <tripinfo id="flow_route_124_duration_20250327_2200.0" depart="0.00" departLane="189240000#0-AddedOnRampEdge_0" departPos="82.66" departSpeed="0.00" departDelay="0.00" arrival="36.00" arrivalLane="1254519225#0.109_3" arrivalPos="34.02" arrivalSpeed="15.49" duration="36.00" routeLength="196.39" waitingTime="4.00" waitingCount="1" stopTime="0.00" timeLoss="21.42" rerouteNo="0" devices="tripinfo_flow_route_124_duration_20250327_2200.0" vType="car" speedFactor="0.94" vaporized=""/>
    <tripinfo id="flow_route_94_duration_20250327_2200.0" depart="0.00" departLane="1341093416#0_0" departPos="204.30" departSpeed="0.00" departDelay="0.00" arrival="37.00" arrivalLane="799091563#0_0" arrivalPos="338.33" arrivalSpeed="16.38" duration="37.00" routeLength="440.38" waitingTime="0.00" waitingCount="0" stopTime="0.00" timeLoss="10.08" rerouteNo="0" devices="tripinfo_flow_route_94_duration_20250327_2200.0" vType="car" speedFactor="1.06" vaporized=""/>
    <tripinfo id="flow_route_111_duration_20250327_2200.1" depart="7.00" departLane="1253188486#8_0" departPos="11.33" departSpeed="0.00" departDelay="0.33" arrival="38.00" arrivalLane="1254519229#0_1" arrivalPos="54.39" arrivalSpeed="16.60" duration="31.00" routeLength="319.28" waitingTime="0.00" waitingCount="0" stopTime="0.00" timeLoss="10.85" rerouteNo="0" devices="tripinfo_flow_route_111_duration_20250327_2200.1" vType="car" speedFactor="0.86" vaporized=""/>
    <tripinfo id="flow_route_104_duration_20250327_2200.0" depart="0.00" departLane="189240001_0" departPos="36.52" departSpeed="0.00" departDelay="0.00" arrival="43.00" arrivalLane="1254519225#0.109_0" arrivalPos="30.66" arrivalSpeed="15.63" duration="43.00" routeLength="198.30" waitingTime="11.00" waitingCount="1" stopTime="0.00" timeLoss="30.40" rerouteNo="0" devices="tripinfo_flow_route_104_duration_20250327_2200.0" vType="car" speedFactor="1.08" vaporized=""/>
    <tripinfo id="flow_route_111_duration_20250327_2200.2" depart="14.00" departLane="1253188486#8_0" departPos="7.95" departSpeed="0.00" departDelay="0.67" arrival="43.00" arrivalLane="1254519229#0_1" arrivalPos="18.84" arrivalSpeed="16.26" duration="29.00" routeLength="287.10" waitingTime="0.00" waitingCount="0" stopTime="0.00" timeLoss="11.30" rerouteNo="0" devices="tripinfo_flow_route_111_duration_20250327_2200.2" vType="car" speedFactor="0.99" vaporized=""/>
    <tripinfo id="flow_route_111_duration_20250327_2200.4" depart="27.00" departLane="1253188486#8_0" departPos="229.41" departSpeed="0.00" departDelay="0.34" arrival="43.00" arrivalLane="1254519229#0_0" arrivalPos="47.44" arrivalSpeed="10.88" duration="16.00" routeLength="94.26" waitingTime="0.00" waitingCount="0" stopTime="0.00" timeLoss="10.21" rerouteNo="0" devices="tripinfo_flow_route_111_duration_20250327_2200.4" vType="car" speedFactor="0.87" vaporized=""/>
    <tripinfo id="flow_route_104_duration_20250327_2200.1" depart="15.00" departLane="189240001_0" departPos="2.34" departSpeed="0.00" departDelay="0.00" arrival="46.00" arrivalLane="1254519225#0.109_0" arrivalPos="47.70" arrivalSpeed="14.36" duration="31.00" routeLength="249.52" waitingTime="0.00" waitingCount="0" stopTime="0.00" timeLoss="13.34" rerouteNo="0" devices="tripinfo_flow_route_104_duration_20250327_2200.1" vType="car" speedFactor="0.88" vaporized=""/>
    <tripinfo id="flow_route_111_duration_20250327_2200.5" depart="34.00" departLane="1253188486#8_0" departPos="243.44" departSpeed="0.00" departDelay="0.67" arrival="46.00" arrivalLane="1254519229#0_0" arrivalPos="14.24" arrivalSpeed="8.62" duration="12.00" routeLength="47.02" waitingTime="0.00" waitingCount="0" stopTime="0.00" timeLoss="8.78" rerouteNo="0" devices="tripinfo_flow_route_111_duration_20250327_2200.5" vType="car" speedFactor="1.15" vaporized=""/>
    <tripinfo id="flow_route_111_duration_20250327_2200.3" depart="20.00" departLane="1253188486#8_0" departPos="41.21" departSpeed="0.00" departDelay="0.00" arrival="48.00" arrivalLane="1254519229#0_1" arrivalPos="32.73" arrivalSpeed="16.37" duration="28.00" routeLength="267.75" waitingTime="0.00" waitingCount="0" stopTime="0.00" timeLoss="11.07" rerouteNo="0" devices="tripinfo_flow_route_111_duration_20250327_2200.3" vType="car" speedFactor="1.02" vaporized=""/>
    <tripinfo id="flow_route_112_duration_20250327_2200.0" depart="0.00" departLane="1253188486#8_0" departPos="64.90" departSpeed="0.00" departDelay="0.00" arrival="51.00" arrivalLane="799091563#0_0" arrivalPos="282.23" arrivalSpeed="16.35" duration="51.00" routeLength="472.04" waitingTime="0.00" waitingCount="0" stopTime="0.00" timeLoss="20.71" rerouteNo="0" devices="tripinfo_flow_route_112_duration_20250327_2200.0" vType="car" speedFactor="1.05" vaporized=""/>
    <tripinfo id="flow_route_104_duration_20250327_2200.2" depart="30.00" departLane="189240001_0" departPos="2.18" departSpeed="0.00" departDelay="0.00" arrival="53.00" arrivalLane="1254519225#0.109_0" arrivalPos="10.51" arrivalSpeed="16.14" duration="23.00" routeLength="212.49" waitingTime="0.00" waitingCount="0" stopTime="0.00" timeLoss="9.90" rerouteNo="0" devices="tripinfo_flow_route_104_duration_20250327_2200.2" vType="car" speedFactor="1.13" vaporized=""/>
    <tripinfo id="flow_route_123_duration_20250327_2200.1" depart="15.00" departLane="189240000#0-AddedOnRampEdge_0" departPos="64.68" departSpeed="0.00" departDelay="0.00" arrival="64.00" arrivalLane="1254519229#0_0" arrivalPos="12.66" arrivalSpeed="7.04" duration="49.00" routeLength="90.31" waitingTime="26.00" waitingCount="1" stopTime="0.00" timeLoss="42.52" rerouteNo="0" devices="tripinfo_flow_route_123_duration_20250327_2200.1" vType="car" speedFactor="0.94" vaporized=""/>
    <tripinfo id="flow_route_112_duration_20250327_2200.1" depart="20.00" departLane="1253188486#8_0" departPos="140.24" departSpeed="0.00" departDelay="0.00" arrival="67.00" arrivalLane="799091563#0_0" arrivalPos="366.26" arrivalSpeed="16.43" duration="47.00" routeLength="480.73" waitingTime="0.00" waitingCount="0" stopTime="0.00" timeLoss="16.36" rerouteNo="0" devices="tripinfo_flow_route_112_duration_20250327_2200.1" vType="car" speedFactor="1.01" vaporized=""/>
    <tripinfo id="flow_route_94_duration_20250327_2200.4" depart="40.00" departLane="1341093416#0_0" departPos="79.53" departSpeed="0.00" departDelay="0.00" arrival="68.00" arrivalLane="799091563#0_2" arrivalPos="17.79" arrivalSpeed="10.47" duration="28.00" routeLength="244.61" waitingTime="0.00" waitingCount="0" stopTime="0.00" timeLoss="12.95" rerouteNo="0" devices="tripinfo_flow_route_94_duration_20250327_2200.4" vType="car" speedFactor="0.99" vaporized=""/>
    <tripinfo id="flow_route_94_duration_20250327_2200.2" depart="20.00" departLane="1341093416#0_0" departPos="61.18" departSpeed="0.00" departDelay="0.00" arrival="69.00" arrivalLane="799091563#0_2" arrivalPos="47.61" arrivalSpeed="10.83" duration="49.00" routeLength="292.78" waitingTime="8.00" waitingCount="1" stopTime="0.00" timeLoss="30.95" rerouteNo="0" devices="tripinfo_flow_route_94_duration_20250327_2200.2" vType="car" speedFactor="1.16" vaporized=""/>
    <tripinfo id="flow_route_123_duration_20250327_2200.3" depart="45.00" departLane="189240000#0-AddedOnRampEdge_0" departPos="92.22" departSpeed="0.00" departDelay="0.00" arrival="70.00" arrivalLane="1254519229#0_0" arrivalPos="46.55" arrivalSpeed="10.68" duration="25.00" routeLength="96.66" waitingTime="2.00" waitingCount="1" stopTime="0.00" timeLoss="18.19" rerouteNo="0" devices="tripinfo_flow_route_123_duration_20250327_2200.3" vType="car" speedFactor="0.96" vaporized=""/>
    <tripinfo id="flow_route_123_duration_20250327_2200.2" depart="30.00" departLane="189240000#0-AddedOnRampEdge_0" departPos="26.33" departSpeed="0.00" departDelay="0.00" arrival="71.00" arrivalLane="1254519229#0_1" arrivalPos="75.98" arrivalSpeed="12.20" duration="41.00" routeLength="195.50" waitingTime="6.00" waitingCount="1" stopTime="0.00" timeLoss="27.64" rerouteNo="0" devices="tripinfo_flow_route_123_duration_20250327_2200.2" vType="car" speedFactor="0.93" vaporized=""/>
    <tripinfo id="flow_route_105_duration_20250327_2200.0" depart="1.00" departLane="189240001_0" departPos="25.23" departSpeed="0.00" departDelay="1.00" arrival="72.00" arrivalLane="799091563#0_2" arrivalPos="224.02" arrivalSpeed="16.19" duration="71.00" routeLength="308.35" waitingTime="26.00" waitingCount="2" stopTime="0.00" timeLoss="52.14" rerouteNo="0" devices="tripinfo_flow_route_105_duration_20250327_2200.0" vType="car" speedFactor="1.03" vaporized=""/>
    <tripinfo id="flow_route_95_duration_20250327_2200.2" depart="15.00" departLane="1341093416#0_0" departPos="262.29" departSpeed="0.00" departDelay="0.00" arrival="72.00" arrivalLane="1254519225#0.109_0" arrivalPos="18.83" arrivalSpeed="13.30" duration="57.00" routeLength="138.91" waitingTime="34.00" waitingCount="1" stopTime="0.00" timeLoss="47.34" rerouteNo="0" devices="tripinfo_flow_route_95_duration_20250327_2200.2" vType="car" speedFactor="0.93" vaporized=""/>
    <tripinfo id="flow_route_96_duration_20250327_2200.2" depart="18.00" departLane="1341093416#0_0" departPos="35.47" departSpeed="0.00" departDelay="0.86" arrival="72.00" arrivalLane="1254519229#0_1" arrivalPos="26.36" arrivalSpeed="7.22" duration="54.00" routeLength="285.90" waitingTime="9.00" waitingCount="1" stopTime="0.00" timeLoss="35.27" rerouteNo="0" devices="tripinfo_flow_route_96_duration_20250327_2200.2" vType="car" speedFactor="0.94" vaporized=""/>
    <tripinfo id="flow_route_96_duration_20250327_2200.4" depart="37.00" departLane="1341093416#0_0" departPos="155.51" departSpeed="0.00" departDelay="2.72" arrival="74.00" arrivalLane="1254519229#0_1" arrivalPos="24.97" arrivalSpeed="7.74" duration="37.00" routeLength="164.48" waitingTime="0.00" waitingCount="0" stopTime="0.00" timeLoss="25.80" rerouteNo="0" devices="tripinfo_flow_route_96_duration_20250327_2200.4" vType="car" speedFactor="1.01" vaporized=""/>
    <tripinfo id="flow_route_95_duration_20250327_2200.1" depart="8.00" departLane="1341093416#0_0" departPos="84.19" departSpeed="0.00" departDelay="0.50" arrival="76.00" arrivalLane="1254519225#0.109_0" arrivalPos="32.00" arrivalSpeed="14.76" duration="68.00" routeLength="330.18" waitingTime="21.00" waitingCount="1" stopTime="0.00" timeLoss="46.74" rerouteNo="0" devices="tripinfo_flow_route_95_duration_20250327_2200.1" vType="car" speedFactor="1.09" vaporized=""/>
    <tripinfo id="flow_route_95_duration_20250327_2200.0" depart="0.00" departLane="1341093416#0_0" departPos="1.65" departSpeed="0.00" departDelay="0.00" arrival="78.00" arrivalLane="1254519225#0.109_0" arrivalPos="44.45" arrivalSpeed="15.63" duration="78.00" routeLength="425.17" waitingTime="19.00" waitingCount="1" stopTime="0.00" timeLoss="50.61" rerouteNo="0" devices="tripinfo_flow_route_95_duration_20250327_2200.0" vType="car" speedFactor="0.94" vaporized=""/>
    <tripinfo id="flow_route_96_duration_20250327_2200.3" depart="29.00" departLane="1341093416#0_0" departPos="84.39" departSpeed="0.00" departDelay="3.29" arrival="79.00" arrivalLane="1254519229#0_1" arrivalPos="53.16" arrivalSpeed="10.21" duration="50.00" routeLength="263.78" waitingTime="0.00" waitingCount="0" stopTime="0.00" timeLoss="32.43" rerouteNo="0" devices="tripinfo_flow_route_96_duration_20250327_2200.3" vType="car" speedFactor="0.83" vaporized=""/>
    <tripinfo id="flow_route_94_duration_20250327_2200.3" depart="30.00" departLane="1341093416#0_0" departPos="175.93" departSpeed="0.00" departDelay="0.00" arrival="80.00" arrivalLane="799091563#0_0" arrivalPos="187.04" arrivalSpeed="15.06" duration="50.00" routeLength="317.46" waitingTime="8.00" waitingCount="1" stopTime="0.00" timeLoss="29.83" rerouteNo="0" devices="tripinfo_flow_route_94_duration_20250327_2200.3" vType="car" speedFactor="0.92" vaporized=""/>
    <tripinfo id="flow_route_95_duration_20250327_2200.5" depart="38.00" departLane="1341093416#0_0" departPos="49.54" departSpeed="0.00" departDelay="0.50" arrival="80.00" arrivalLane="1254519225#0.109_0" arrivalPos="12.93" arrivalSpeed="14.84" duration="42.00" routeLength="345.76" waitingTime="0.00" waitingCount="0" stopTime="0.00" timeLoss="20.24" rerouteNo="0" devices="tripinfo_flow_route_95_duration_20250327_2200.5" vType="car" speedFactor="1.17" vaporized=""/>
    <tripinfo id="flow_route_95_duration_20250327_2200.3" depart="23.00" departLane="1341093416#0_0" departPos="24.41" departSpeed="0.00" departDelay="0.50" arrival="81.00" arrivalLane="1254519225#0.109_0" arrivalPos="50.64" arrivalSpeed="14.69" duration="58.00" routeLength="408.60" waitingTime="8.00" waitingCount="1" stopTime="0.00" timeLoss="30.51" rerouteNo="0" devices="tripinfo_flow_route_95_duration_20250327_2200.3" vType="car" speedFactor="0.89" vaporized=""/>
    <tripinfo id="flow_route_96_duration_20250327_2200.5" depart="43.00" departLane="1341093416#0_0" departPos="106.87" departSpeed="0.00" departDelay="0.15" arrival="81.00" arrivalLane="1254519229#0_1" arrivalPos="48.94" arrivalSpeed="10.38" duration="38.00" routeLength="237.09" waitingTime="0.00" waitingCount="0" stopTime="0.00" timeLoss="23.03" rerouteNo="0" devices="tripinfo_flow_route_96_duration_20250327_2200.5" vType="car" speedFactor="1.10" vaporized=""/>
    <tripinfo id="flow_route_96_duration_20250327_2200.6" depart="54.00" departLane="1341093416#0_0" departPos="112.71" departSpeed="0.00" departDelay="2.57" arrival="84.00" arrivalLane="1254519229#0_1" arrivalPos="56.55" arrivalSpeed="11.56" duration="30.00" routeLength="238.85" waitingTime="0.00" waitingCount="0" stopTime="0.00" timeLoss="14.18" rerouteNo="0" devices="tripinfo_flow_route_96_duration_20250327_2200.6" vType="car" speedFactor="1.09" vaporized=""/>
    <tripinfo id="flow_route_95_duration_20250327_2200.4" depart="32.00" departLane="1341093416#0_0" departPos="18.36" departSpeed="0.00" departDelay="2.00" arrival="85.00" arrivalLane="1254519225#0.109_0" arrivalPos="36.19" arrivalSpeed="15.39" duration="53.00" routeLength="400.20" waitingTime="0.00" waitingCount="0" stopTime="0.00" timeLoss="26.53" rerouteNo="0" devices="tripinfo_flow_route_95_duration_20250327_2200.4" vType="car" speedFactor="0.95" vaporized=""/>
    <tripinfo id="flow_route_94_duration_20250327_2200.1" depart="10.00" departLane="1341093416#0_0" departPos="108.74" departSpeed="0.00" departDelay="0.00" arrival="86.00" arrivalLane="799091563#0_0" arrivalPos="313.01" arrivalSpeed="16.54" duration="76.00" routeLength="510.62" waitingTime="20.00" waitingCount="1" stopTime="0.00" timeLoss="44.77" rerouteNo="0" devices="tripinfo_flow_route_94_duration_20250327_2200.1" vType="car" speedFactor="1.05" vaporized=""/>
    <tripinfo id="flow_route_124_duration_20250327_2200.1" depart="10.00" departLane="189240000#0-AddedOnRampEdge_0" departPos="51.39" departSpeed="0.00" departDelay="0.00" arrival="87.00" arrivalLane="1254519225#0.109_3" arrivalPos="55.38" arrivalSpeed="16.03" duration="77.00" routeLength="249.02" waitingTime="37.00" waitingCount="2" stopTime="0.00" timeLoss="61.22" rerouteNo="0" devices="tripinfo_flow_route_124_duration_20250327_2200.1" vType="car" speedFactor="1.12" vaporized=""/>
    <tripinfo id="flow_route_124_duration_20250327_2200.2" depart="20.00" departLane="189240000#0-AddedOnRampEdge_0" departPos="22.79" departSpeed="0.00" departDelay="0.00" arrival="87.00" arrivalLane="1254519225#0.109_3" arrivalPos="16.48" arrivalSpeed="14.98" duration="67.00" routeLength="238.72" waitingTime="22.00" waitingCount="2" stopTime="0.00" timeLoss="50.72" rerouteNo="0" devices="tripinfo_flow_route_124_duration_20250327_2200.2" vType="car" speedFactor="0.97" vaporized=""/>
    <tripinfo id="flow_route_111_duration_20250327_2200.6" depart="40.00" departLane="1253188486#8_0" departPos="52.10" departSpeed="0.00" departDelay="0.00" arrival="88.00" arrivalLane="1254519229#0_0" arrivalPos="6.37" arrivalSpeed="7.12" duration="48.00" routeLength="230.48" waitingTime="14.00" waitingCount="1" stopTime="0.00" timeLoss="34.07" rerouteNo="0" devices="tripinfo_flow_route_111_duration_20250327_2200.6" vType="car" speedFactor="1.02" vaporized=""/>
    <tripinfo id="flow_route_95_duration_20250327_2200.7" depart="54.00" departLane="1341093416#0_0" departPos="94.01" departSpeed="0.00" departDelay="1.50" arrival="90.00" arrivalLane="1254519225#0.109_0" arrivalPos="54.52" arrivalSpeed="16.47" duration="36.00" routeLength="342.88" waitingTime="0.00" waitingCount="0" stopTime="0.00" timeLoss="14.77" rerouteNo="0" devices="tripinfo_flow_route_95_duration_20250327_2200.7" vType="car" speedFactor="1.00" vaporized=""/>
    <tripinfo id="flow_route_124_duration_20250327_2200.3" depart="30.00" departLane="189240000#0-AddedOnRampEdge_0" departPos="51.62" departSpeed="0.00" departDelay="0.00" arrival="91.00" arrivalLane="1254519225#0.109_3" arrivalPos="11.44" arrivalSpeed="14.24" duration="61.00" routeLength="204.85" waitingTime="18.00" waitingCount="2" stopTime="0.00" timeLoss="47.68" rerouteNo="0" devices="tripinfo_flow_route_124_duration_20250327_2200.3" vType="car" speedFactor="1.18" vaporized=""/>
    <tripinfo id="flow_route_111_duration_20250327_2200.7" depart="47.00" departLane="1253188486#8_0" departPos="25.69" departSpeed="0.00" departDelay="0.34" arrival="93.00" arrivalLane="1254519229#0_0" arrivalPos="24.09" arrivalSpeed="9.52" duration="46.00" routeLength="274.62" waitingTime="6.00" waitingCount="1" stopTime="0.00" timeLoss="29.23" rerouteNo="0" devices="tripinfo_flow_route_111_duration_20250327_2200.7" vType="car" speedFactor="1.09" vaporized=""/>
    <tripinfo id="flow_route_111_duration_20250327_2200.8" depart="54.00" departLane="1253188486#8_0" departPos="171.61" departSpeed="0.00" departDelay="0.67" arrival="95.00" arrivalLane="1254519229#0_1" arrivalPos="77.30" arrivalSpeed="12.69" duration="41.00" routeLength="181.91" waitingTime="9.00" waitingCount="1" stopTime="0.00" timeLoss="29.60" rerouteNo="0" devices="tripinfo_flow_route_111_duration_20250327_2200.8" vType="car" speedFactor="0.90" vaporized=""/>
    <tripinfo id="flow_route_104_duration_20250327_2200.3" depart="45.00" departLane="189240001_0" departPos="28.61" departSpeed="0.00" departDelay="0.00" arrival="100.00" arrivalLane="1254519225#0.109_0" arrivalPos="51.50" arrivalSpeed="16.14" duration="55.00" routeLength="227.05" waitingTime="21.00" waitingCount="1" stopTime="0.00" timeLoss="41.03" rerouteNo="0" devices="tripinfo_flow_route_104_duration_20250327_2200.3" vType="car" speedFactor="1.03" vaporized=""/>
    <tripinfo id="flow_route_112_duration_20250327_2200.2" depart="40.00" departLane="1253188486#8_0" departPos="166.51" departSpeed="0.00" departDelay="0.00" arrival="106.00" arrivalLane="799091563#0_0" arrivalPos="274.11" arrivalSpeed="15.82" duration="66.00" routeLength="362.31" waitingTime="22.00" waitingCount="1" stopTime="0.00" timeLoss="42.37" rerouteNo="0" devices="tripinfo_flow_route_112_duration_20250327_2200.2" vType="car" speedFactor="0.97" vaporized=""/>
    <tripinfo id="flow_route_95_duration_20250327_2200.6" depart="46.00" departLane="1341093416#0_0" departPos="6.54" departSpeed="0.00" departDelay="1.00" arrival="128.00" arrivalLane="1254519225#0.109_0" arrivalPos="31.99" arrivalSpeed="14.79" duration="82.00" routeLength="407.83" waitingTime="27.00" waitingCount="1" stopTime="0.00" timeLoss="55.31" rerouteNo="0" devices="tripinfo_flow_route_95_duration_20250327_2200.6" vType="car" speedFactor="0.90" vaporized=""/>
    <tripinfo id="flow_route_124_duration_20250327_2200.4" depart="40.00" departLane="189240000#0-AddedOnRampEdge_0" departPos="39.96" departSpeed="0.00" departDelay="0.00" arrival="137.00" arrivalLane="1254519225#0.109_3" arrivalPos="21.95" arrivalSpeed="14.90" duration="97.00" routeLength="227.03" waitingTime="42.00" waitingCount="4" stopTime="0.00" timeLoss="82.06" rerouteNo="0" devices="tripinfo_flow_route_124_duration_20250327_2200.4" vType="car" speedFactor="1.18" vaporized=""/>
    <tripinfo id="flow_route_124_duration_20250327_2200.5" depart="50.00" departLane="189240000#0-AddedOnRampEdge_0" departPos="46.51" departSpeed="0.00" departDelay="0.00" arrival="140.00" arrivalLane="1254519225#0.109_3" arrivalPos="39.01" arrivalSpeed="15.23" duration="90.00" routeLength="237.52" waitingTime="37.00" waitingCount="3" stopTime="0.00" timeLoss="74.08" rerouteNo="0" devices="tripinfo_flow_route_124_duration_20250327_2200.5" vType="car" speedFactor="1.04" vaporized=""/>
    <tripinfo id="flow_route_94_duration_20250327_2200.5" depart="54.00" departLane="1341093416#0_0" departPos="81.25" departSpeed="0.00" departDelay="4.00" arrival="143.00" arrivalLane="799091563#0_0" arrivalPos="332.46" arrivalSpeed="16.21" duration="89.00" routeLength="557.56" waitingTime="29.00" waitingCount="1" stopTime="0.00" timeLoss="54.67" rerouteNo="0" devices="tripinfo_flow_route_94_duration_20250327_2200.5" vType="car" speedFactor="1.04" vaporized=""/>
</tripinfos>
