<?xml version="1.0" encoding="UTF-8"?>

<!-- generated on 2025-05-06 21:08:31 by Eclipse SUMO sumo Version 1.20.0
<configuration xmlns:xsi="http://www.w3.org/2001/XMLSchema-instance" xsi:noNamespaceSchemaLocation="http://sumo.dlr.de/xsd/sumoConfiguration.xsd">

    <input>
        <net-file value="osm.net.xml"/>
        <route-files value="xml/route_rl_cluster_3839031475_3839031476_4110471700_4234582615_5.rou.xml"/>
    </input>

    <output>
        <tripinfo-output value="xml/tripinfo_rl_cluster_3839031475_3839031476_4110471700_4234582615_5.xml"/>
    </output>

    <traci_server>
        <remote-port value="43923"/>
    </traci_server>

</configuration>
-->

<tripinfos xmlns:xsi="http://www.w3.org/2001/XMLSchema-instance" xsi:noNamespaceSchemaLocation="http://sumo.dlr.de/xsd/tripinfo_file.xsd">
    <tripinfo id="flow_route_85_duration_20250327_2010.0" depart="0.00" departLane="1091883842_0" departPos="162.60" departSpeed="0.00" departDelay="0.00" arrival="16.00" arrivalLane="133000063_0" arrivalPos="42.63" arrivalSpeed="9.42" duration="16.00" routeLength="74.77" waitingTime="0.00" waitingCount="0" stopTime="0.00" timeLoss="9.23" rerouteNo="0" devices="tripinfo_flow_route_85_duration_20250327_2010.0" vType="car" speedFactor="0.89" vaporized=""/>
    <tripinfo id="flow_route_84_duration_20250327_2010.1" depart="4.00" departLane="1091883842_0" departPos="57.02" departSpeed="0.00" departDelay="0.47" arrival="27.00" arrivalLane="136617981_1" arrivalPos="13.09" arrivalSpeed="15.51" duration="23.00" routeLength="174.36" waitingTime="0.00" waitingCount="0" stopTime="0.00" timeLoss="11.94" rerouteNo="0" devices="tripinfo_flow_route_84_duration_20250327_2010.1" vType="car" speedFactor="1.09" vaporized=""/>
    <tripinfo id="flow_route_79_duration_20250327_2010.0" depart="0.00" departLane="380344611#0_0" departPos="128.21" departSpeed="0.00" departDelay="0.00" arrival="28.00" arrivalLane="423956929_1" arrivalPos="91.18" arrivalSpeed="16.56" duration="28.00" routeLength="278.79" waitingTime="0.00" waitingCount="0" stopTime="0.00" timeLoss="10.66" rerouteNo="0" devices="tripinfo_flow_route_79_duration_20250327_2010.0" vType="car" speedFactor="1.08" vaporized=""/>
    <tripinfo id="flow_route_80_duration_20250327_2010.0" depart="0.00" departLane="380344611#0_0" departPos="160.58" departSpeed="0.00" departDelay="0.00" arrival="31.00" arrivalLane="380593307#0_0" arrivalPos="102.42" arrivalSpeed="13.82" duration="31.00" routeLength="234.46" waitingTime="0.00" waitingCount="0" stopTime="0.00" timeLoss="16.07" rerouteNo="0" devices="tripinfo_flow_route_80_duration_20250327_2010.0" vType="car" speedFactor="1.03" vaporized=""/>
    <tripinfo id="flow_route_84_duration_20250327_2010.2" depart="8.00" departLane="1091883842_0" departPos="29.55" departSpeed="0.00" departDelay="0.94" arrival="31.00" arrivalLane="136617981_0" arrivalPos="9.19" arrivalSpeed="14.25" duration="23.00" routeLength="197.93" waitingTime="0.00" waitingCount="0" stopTime="0.00" timeLoss="10.01" rerouteNo="0" devices="tripinfo_flow_route_84_duration_20250327_2010.2" vType="car" speedFactor="0.93" vaporized=""/>
    <tripinfo id="flow_route_84_duration_20250327_2010.0" depart="0.00" departLane="1091883842_0" departPos="11.19" departSpeed="0.00" departDelay="0.00" arrival="36.00" arrivalLane="136617981_1" arrivalPos="210.65" arrivalSpeed="16.50" duration="36.00" routeLength="417.75" waitingTime="0.00" waitingCount="0" stopTime="0.00" timeLoss="10.71" rerouteNo="0" devices="tripinfo_flow_route_84_duration_20250327_2010.0" vType="car" speedFactor="1.05" vaporized=""/>
    <tripinfo id="flow_route_81_duration_20250327_2010.0" depart="0.00" departLane="380344611#0_0" departPos="75.01" departSpeed="0.00" departDelay="0.00" arrival="43.00" arrivalLane="133000063_2" arrivalPos="7.51" arrivalSpeed="7.22" duration="43.00" routeLength="248.37" waitingTime="7.00" waitingCount="1" stopTime="0.00" timeLoss="24.05" rerouteNo="0" devices="tripinfo_flow_route_81_duration_20250327_2010.0" vType="car" speedFactor="0.83" vaporized=""/>
    <tripinfo id="flow_route_79_duration_20250327_2010.1" depart="10.00" departLane="380344611#0_0" departPos="35.55" departSpeed="0.00" departDelay="0.00" arrival="43.00" arrivalLane="423956929_1" arrivalPos="61.47" arrivalSpeed="15.54" duration="33.00" routeLength="341.73" waitingTime="0.00" waitingCount="0" stopTime="0.00" timeLoss="10.63" rerouteNo="0" devices="tripinfo_flow_route_79_duration_20250327_2010.1" vType="car" speedFactor="0.94" vaporized=""/>
    <tripinfo id="flow_route_81_duration_20250327_2010.1" depart="8.00" departLane="380344611#0_0" departPos="216.79" departSpeed="0.00" departDelay="0.50" arrival="45.00" arrivalLane="133000063_2" arrivalPos="40.77" arrivalSpeed="9.72" duration="37.00" routeLength="139.85" waitingTime="8.00" waitingCount="1" stopTime="0.00" timeLoss="27.58" rerouteNo="0" devices="tripinfo_flow_route_81_duration_20250327_2010.1" vType="car" speedFactor="0.99" vaporized=""/>
    <tripinfo id="flow_route_84_duration_20250327_2010.4" depart="15.00" departLane="1091883842_0" departPos="177.34" departSpeed="0.00" departDelay="0.88" arrival="46.00" arrivalLane="136617981_0" arrivalPos="272.07" arrivalSpeed="15.76" duration="31.00" routeLength="313.02" waitingTime="0.00" waitingCount="0" stopTime="0.00" timeLoss="10.39" rerouteNo="0" devices="tripinfo_flow_route_84_duration_20250327_2010.4" vType="car" speedFactor="0.95" vaporized=""/>
    <tripinfo id="flow_route_84_duration_20250327_2010.3" depart="12.00" departLane="1091883842_0" departPos="150.74" departSpeed="0.00" departDelay="1.41" arrival="47.00" arrivalLane="136617981_0" arrivalPos="273.37" arrivalSpeed="16.40" duration="35.00" routeLength="340.92" waitingTime="0.00" waitingCount="0" stopTime="0.00" timeLoss="14.23" rerouteNo="0" devices="tripinfo_flow_route_84_duration_20250327_2010.3" vType="car" speedFactor="1.02" vaporized=""/>
    <tripinfo id="flow_route_80_duration_20250327_2010.1" depart="15.00" departLane="380344611#0_0" departPos="164.49" departSpeed="0.00" departDelay="0.00" arrival="48.00" arrivalLane="380593307#0_0" arrivalPos="120.07" arrivalSpeed="14.30" duration="33.00" routeLength="248.20" waitingTime="0.00" waitingCount="0" stopTime="0.00" timeLoss="14.28" rerouteNo="0" devices="tripinfo_flow_route_80_duration_20250327_2010.1" vType="car" speedFactor="0.87" vaporized=""/>
    <tripinfo id="flow_route_79_duration_20250327_2010.2" depart="20.00" departLane="380344611#0_0" departPos="51.23" departSpeed="0.00" departDelay="0.00" arrival="51.00" arrivalLane="423956929_0" arrivalPos="62.90" arrivalSpeed="16.45" duration="31.00" routeLength="327.49" waitingTime="0.00" waitingCount="0" stopTime="0.00" timeLoss="10.71" rerouteNo="0" devices="tripinfo_flow_route_79_duration_20250327_2010.2" vType="car" speedFactor="1.17" vaporized=""/>
    <tripinfo id="flow_route_80_duration_20250327_2010.2" depart="31.00" departLane="380344611#0_0" departPos="256.47" departSpeed="0.00" departDelay="1.00" arrival="51.00" arrivalLane="380593307#0_0" arrivalPos="83.34" arrivalSpeed="12.23" duration="20.00" routeLength="119.49" waitingTime="0.00" waitingCount="0" stopTime="0.00" timeLoss="10.23" rerouteNo="0" devices="tripinfo_flow_route_80_duration_20250327_2010.2" vType="car" speedFactor="0.85" vaporized=""/>
    <tripinfo id="flow_route_81_duration_20250327_2010.3" depart="23.00" departLane="380344611#0_0" departPos="234.10" departSpeed="0.00" departDelay="0.50" arrival="55.00" arrivalLane="133000063_2" arrivalPos="105.95" arrivalSpeed="14.30" duration="32.00" routeLength="187.72" waitingTime="0.00" waitingCount="0" stopTime="0.00" timeLoss="18.32" rerouteNo="0" devices="tripinfo_flow_route_81_duration_20250327_2010.3" vType="car" speedFactor="0.90" vaporized=""/>
    <tripinfo id="flow_route_81_duration_20250327_2010.2" depart="16.00" departLane="380344611#0_0" departPos="181.95" departSpeed="0.00" departDelay="1.00" arrival="60.00" arrivalLane="133000063_2" arrivalPos="161.05" arrivalSpeed="15.18" duration="44.00" routeLength="294.97" waitingTime="0.00" waitingCount="0" stopTime="0.00" timeLoss="23.75" rerouteNo="0" devices="tripinfo_flow_route_81_duration_20250327_2010.2" vType="car" speedFactor="0.92" vaporized=""/>
    <tripinfo id="flow_route_81_duration_20250327_2010.6" depart="45.00" departLane="380344611#0_0" departPos="260.76" departSpeed="0.00" departDelay="0.00" arrival="61.00" arrivalLane="133000063_2" arrivalPos="16.83" arrivalSpeed="9.33" duration="16.00" routeLength="71.94" waitingTime="0.00" waitingCount="0" stopTime="0.00" timeLoss="10.13" rerouteNo="0" devices="tripinfo_flow_route_81_duration_20250327_2010.6" vType="car" speedFactor="0.94" vaporized=""/>
    <tripinfo id="flow_route_81_duration_20250327_2010.4" depart="32.00" departLane="380344611#0_0" departPos="78.63" departSpeed="0.00" departDelay="2.00" arrival="62.00" arrivalLane="133000063_2" arrivalPos="7.34" arrivalSpeed="9.46" duration="30.00" routeLength="244.58" waitingTime="0.00" waitingCount="0" stopTime="0.00" timeLoss="14.42" rerouteNo="0" devices="tripinfo_flow_route_81_duration_20250327_2010.4" vType="car" speedFactor="1.17" vaporized=""/>
    <tripinfo id="flow_route_79_duration_20250327_2010.3" depart="31.00" departLane="380344611#0_0" departPos="43.55" departSpeed="0.00" departDelay="1.00" arrival="65.00" arrivalLane="423956929_0" arrivalPos="68.95" arrivalSpeed="14.04" duration="34.00" routeLength="341.22" waitingTime="0.00" waitingCount="0" stopTime="0.00" timeLoss="9.64" rerouteNo="0" devices="tripinfo_flow_route_79_duration_20250327_2010.3" vType="car" speedFactor="0.85" vaporized=""/>
    <tripinfo id="flow_route_79_duration_20250327_2010.4" depart="41.00" departLane="380344611#0_0" departPos="58.84" departSpeed="0.00" departDelay="1.00" arrival="70.00" arrivalLane="423956929_1" arrivalPos="21.21" arrivalSpeed="14.56" duration="29.00" routeLength="278.19" waitingTime="0.00" waitingCount="0" stopTime="0.00" timeLoss="9.57" rerouteNo="0" devices="tripinfo_flow_route_79_duration_20250327_2010.4" vType="car" speedFactor="0.88" vaporized=""/>
    <tripinfo id="flow_route_79_duration_20250327_2010.5" depart="50.00" departLane="380344611#0_0" departPos="166.87" departSpeed="0.00" departDelay="0.00" arrival="71.00" arrivalLane="423956929_0" arrivalPos="6.42" arrivalSpeed="16.23" duration="21.00" routeLength="155.38" waitingTime="0.00" waitingCount="0" stopTime="0.00" timeLoss="10.74" rerouteNo="0" devices="tripinfo_flow_route_79_duration_20250327_2010.5" vType="car" speedFactor="1.09" vaporized=""/>
    <tripinfo id="flow_route_80_duration_20250327_2010.3" depart="45.00" departLane="380344611#0_0" departPos="55.39" departSpeed="0.00" departDelay="0.00" arrival="75.00" arrivalLane="380593307#0_0" arrivalPos="19.91" arrivalSpeed="7.78" duration="30.00" routeLength="257.13" waitingTime="0.00" waitingCount="0" stopTime="0.00" timeLoss="13.47" rerouteNo="0" devices="tripinfo_flow_route_80_duration_20250327_2010.3" vType="car" speedFactor="0.97" vaporized=""/>
    <tripinfo id="flow_route_81_duration_20250327_2010.5" depart="38.00" departLane="380344611#0_0" departPos="0.24" departSpeed="0.00" departDelay="0.50" arrival="76.00" arrivalLane="133000063_2" arrivalPos="81.00" arrivalSpeed="15.06" duration="38.00" routeLength="396.63" waitingTime="0.00" waitingCount="0" stopTime="0.00" timeLoss="13.32" rerouteNo="0" devices="tripinfo_flow_route_81_duration_20250327_2010.5" vType="car" speedFactor="1.12" vaporized=""/>
    <tripinfo id="flow_route_77_duration_20250327_2010.1" depart="12.00" departLane="133342692#0_0" departPos="114.55" departSpeed="0.00" departDelay="0.00" arrival="86.00" arrivalLane="423956929_0" arrivalPos="44.78" arrivalSpeed="9.47" duration="74.00" routeLength="112.76" waitingTime="48.00" waitingCount="1" stopTime="0.00" timeLoss="65.38" rerouteNo="0" devices="tripinfo_flow_route_77_duration_20250327_2010.1" vType="car" speedFactor="0.89" vaporized=""/>
    <tripinfo id="flow_route_89_duration_20250327_2010.2" depart="8.00" departLane="380585338#0_0" departPos="166.11" departSpeed="0.00" departDelay="0.94" arrival="87.00" arrivalLane="380593307#0_0" arrivalPos="52.39" arrivalSpeed="11.85" duration="79.00" routeLength="96.55" waitingTime="59.00" waitingCount="1" stopTime="0.00" timeLoss="71.93" rerouteNo="0" devices="tripinfo_flow_route_89_duration_20250327_2010.2" vType="car" speedFactor="0.88" vaporized=""/>
    <tripinfo id="flow_route_89_duration_20250327_2010.1" depart="4.00" departLane="380585338#0_0" departPos="110.00" departSpeed="0.00" departDelay="0.47" arrival="90.00" arrivalLane="380593307#0_0" arrivalPos="89.06" arrivalSpeed="14.43" duration="86.00" routeLength="189.32" waitingTime="54.00" waitingCount="1" stopTime="0.00" timeLoss="74.27" rerouteNo="0" devices="tripinfo_flow_route_89_duration_20250327_2010.1" vType="car" speedFactor="1.03" vaporized=""/>
    <tripinfo id="flow_route_90_duration_20250327_2010.2" depart="10.00" departLane="380585338#0_0" departPos="71.43" departSpeed="0.00" departDelay="0.00" arrival="90.00" arrivalLane="136617981_0" arrivalPos="36.67" arrivalSpeed="9.99" duration="80.00" routeLength="152.31" waitingTime="49.00" waitingCount="1" stopTime="0.00" timeLoss="70.13" rerouteNo="0" devices="tripinfo_flow_route_90_duration_20250327_2010.2" vType="car" speedFactor="1.16" vaporized=""/>
    <tripinfo id="flow_route_89_duration_20250327_2010.3" depart="11.00" departLane="380585338#0_0" departPos="29.16" departSpeed="0.00" departDelay="0.41" arrival="90.00" arrivalLane="380593307#0_1" arrivalPos="45.85" arrivalSpeed="11.61" duration="79.00" routeLength="226.95" waitingTime="41.00" waitingCount="1" stopTime="0.00" timeLoss="64.71" rerouteNo="0" devices="tripinfo_flow_route_89_duration_20250327_2010.3" vType="car" speedFactor="1.01" vaporized=""/>
    <tripinfo id="flow_route_89_duration_20250327_2010.4" depart="16.00" departLane="380585338#0_0" departPos="26.37" departSpeed="0.00" departDelay="1.88" arrival="90.00" arrivalLane="380593307#0_2" arrivalPos="53.43" arrivalSpeed="11.63" duration="74.00" routeLength="237.34" waitingTime="37.00" waitingCount="1" stopTime="0.00" timeLoss="59.69" rerouteNo="0" devices="tripinfo_flow_route_89_duration_20250327_2010.4" vType="car" speedFactor="1.13" vaporized=""/>
    <tripinfo id="flow_route_77_duration_20250327_2010.0" depart="0.00" departLane="133342692#0_0" departPos="115.39" departSpeed="0.00" departDelay="0.00" arrival="91.00" arrivalLane="423956929_0" arrivalPos="132.19" arrivalSpeed="14.56" duration="91.00" routeLength="199.33" waitingTime="59.00" waitingCount="1" stopTime="0.00" timeLoss="77.46" rerouteNo="0" devices="tripinfo_flow_route_77_duration_20250327_2010.0" vType="car" speedFactor="0.94" vaporized=""/>
    <tripinfo id="flow_route_89_duration_20250327_2010.0" depart="0.00" departLane="380585338#0_0" departPos="55.91" departSpeed="0.00" departDelay="0.00" arrival="91.00" arrivalLane="380593307#0_2" arrivalPos="94.67" arrivalSpeed="14.04" duration="91.00" routeLength="249.03" waitingTime="52.00" waitingCount="1" stopTime="0.00" timeLoss="74.65" rerouteNo="0" devices="tripinfo_flow_route_89_duration_20250327_2010.0" vType="car" speedFactor="0.94" vaporized=""/>
    <tripinfo id="flow_route_77_duration_20250327_2010.3" depart="36.00" departLane="133342692#0_0" departPos="28.72" departSpeed="0.00" departDelay="0.00" arrival="91.00" arrivalLane="423956929_0" arrivalPos="2.71" arrivalSpeed="7.30" duration="55.00" routeLength="156.52" waitingTime="23.00" waitingCount="1" stopTime="0.00" timeLoss="44.49" rerouteNo="0" devices="tripinfo_flow_route_77_duration_20250327_2010.3" vType="car" speedFactor="1.02" vaporized=""/>
    <tripinfo id="flow_route_89_duration_20250327_2010.6" depart="29.00" departLane="380585338#0_0" departPos="135.62" departSpeed="0.00" departDelay="7.83" arrival="92.00" arrivalLane="380593307#0_1" arrivalPos="50.35" arrivalSpeed="12.43" duration="63.00" routeLength="125.00" waitingTime="36.00" waitingCount="1" stopTime="0.00" timeLoss="55.21" rerouteNo="0" devices="tripinfo_flow_route_89_duration_20250327_2010.6" vType="car" speedFactor="1.10" vaporized=""/>
    <tripinfo id="flow_route_76_duration_20250327_2010.1" depart="12.00" departLane="133342692#0_0" departPos="15.26" departSpeed="0.00" departDelay="0.00" arrival="93.00" arrivalLane="133000063_1" arrivalPos="98.45" arrivalSpeed="14.49" duration="81.00" routeLength="290.11" waitingTime="39.00" waitingCount="1" stopTime="0.00" timeLoss="62.83" rerouteNo="0" devices="tripinfo_flow_route_76_duration_20250327_2010.1" vType="car" speedFactor="0.97" vaporized=""/>
    <tripinfo id="flow_route_90_duration_20250327_2010.5" depart="29.00" departLane="380585338#0_0" departPos="123.68" departSpeed="0.00" departDelay="4.00" arrival="93.00" arrivalLane="136617981_0" arrivalPos="29.68" arrivalSpeed="10.31" duration="64.00" routeLength="93.07" waitingTime="39.00" waitingCount="1" stopTime="0.00" timeLoss="57.21" rerouteNo="0" devices="tripinfo_flow_route_90_duration_20250327_2010.5" vType="car" speedFactor="1.04" vaporized=""/>
    <tripinfo id="flow_route_89_duration_20250327_2010.7" depart="29.00" departLane="380585338#0_0" departPos="48.83" departSpeed="0.00" departDelay="4.30" arrival="94.00" arrivalLane="380593307#0_1" arrivalPos="52.56" arrivalSpeed="12.68" duration="65.00" routeLength="214.00" waitingTime="28.00" waitingCount="1" stopTime="0.00" timeLoss="52.02" rerouteNo="0" devices="tripinfo_flow_route_89_duration_20250327_2010.7" vType="car" speedFactor="1.04" vaporized=""/>
    <tripinfo id="flow_route_76_duration_20250327_2010.3" depart="36.00" departLane="133342692#0_0" departPos="154.88" departSpeed="0.00" departDelay="0.00" arrival="94.00" arrivalLane="133000063_0" arrivalPos="94.60" arrivalSpeed="14.25" duration="58.00" routeLength="146.64" waitingTime="36.00" waitingCount="1" stopTime="0.00" timeLoss="48.98" rerouteNo="0" devices="tripinfo_flow_route_76_duration_20250327_2010.3" vType="car" speedFactor="1.14" vaporized=""/>
    <tripinfo id="flow_route_76_duration_20250327_2010.0" depart="0.00" departLane="133342692#0_0" departPos="1.03" departSpeed="0.00" departDelay="0.00" arrival="95.00" arrivalLane="133000063_1" arrivalPos="153.47" arrivalSpeed="16.50" duration="95.00" routeLength="359.35" waitingTime="49.00" waitingCount="1" stopTime="0.00" timeLoss="72.68" rerouteNo="0" devices="tripinfo_flow_route_76_duration_20250327_2010.0" vType="car" speedFactor="1.06" vaporized=""/>
    <tripinfo id="flow_route_89_duration_20250327_2010.11" depart="43.00" departLane="380585338#0_0" departPos="63.64" departSpeed="0.00" departDelay="4.18" arrival="95.00" arrivalLane="380593307#0_1" arrivalPos="2.03" arrivalSpeed="10.05" duration="52.00" routeLength="148.65" waitingTime="17.00" waitingCount="1" stopTime="0.00" timeLoss="41.97" rerouteNo="0" devices="tripinfo_flow_route_89_duration_20250327_2010.11" vType="car" speedFactor="0.94" vaporized=""/>
    <tripinfo id="flow_route_77_duration_20250327_2010.2" depart="28.00" departLane="133342692#0_0" departPos="58.79" departSpeed="0.00" departDelay="4.00" arrival="96.00" arrivalLane="423956929_0" arrivalPos="77.40" arrivalSpeed="13.28" duration="68.00" routeLength="201.14" waitingTime="31.00" waitingCount="1" stopTime="0.00" timeLoss="54.42" rerouteNo="0" devices="tripinfo_flow_route_77_duration_20250327_2010.2" vType="car" speedFactor="0.96" vaporized=""/>
    <tripinfo id="flow_route_89_duration_20250327_2010.8" depart="29.00" departLane="380585338#0_0" departPos="24.51" departSpeed="0.00" departDelay="0.77" arrival="96.00" arrivalLane="380593307#0_2" arrivalPos="80.96" arrivalSpeed="13.55" duration="67.00" routeLength="266.72" waitingTime="25.00" waitingCount="1" stopTime="0.00" timeLoss="49.07" rerouteNo="0" devices="tripinfo_flow_route_89_duration_20250327_2010.8" vType="car" speedFactor="0.90" vaporized=""/>
    <tripinfo id="flow_route_76_duration_20250327_2010.2" depart="27.00" departLane="133342692#0_0" departPos="98.35" departSpeed="0.00" departDelay="3.00" arrival="97.00" arrivalLane="133000063_0" arrivalPos="100.76" arrivalSpeed="15.75" duration="70.00" routeLength="209.33" waitingTime="36.00" waitingCount="1" stopTime="0.00" timeLoss="56.51" rerouteNo="0" devices="tripinfo_flow_route_76_duration_20250327_2010.2" vType="car" speedFactor="1.03" vaporized=""/>
    <tripinfo id="flow_route_89_duration_20250327_2010.15" depart="64.00" departLane="380585338#0_0" departPos="35.07" departSpeed="0.00" departDelay="11.07" arrival="97.00" arrivalLane="380593307#0_2" arrivalPos="19.04" arrivalSpeed="11.38" duration="33.00" routeLength="194.24" waitingTime="0.00" waitingCount="0" stopTime="0.00" timeLoss="20.93" rerouteNo="0" devices="tripinfo_flow_route_89_duration_20250327_2010.15" vType="car" speedFactor="1.00" vaporized=""/>
    <tripinfo id="flow_route_77_duration_20250327_2010.4" depart="50.00" departLane="133342692#0_0" departPos="78.13" departSpeed="0.00" departDelay="2.00" arrival="98.00" arrivalLane="423956929_0" arrivalPos="40.93" arrivalSpeed="10.11" duration="48.00" routeLength="145.33" waitingTime="15.00" waitingCount="1" stopTime="0.00" timeLoss="38.06" rerouteNo="0" devices="tripinfo_flow_route_77_duration_20250327_2010.4" vType="car" speedFactor="0.98" vaporized=""/>
    <tripinfo id="flow_route_90_duration_20250327_2010.0" depart="0.00" departLane="380585338#0_0" departPos="118.71" departSpeed="0.00" departDelay="0.00" arrival="99.00" arrivalLane="136617981_0" arrivalPos="211.18" arrivalSpeed="14.15" duration="99.00" routeLength="279.54" waitingTime="58.00" waitingCount="1" stopTime="0.00" timeLoss="77.96" rerouteNo="0" devices="tripinfo_flow_route_90_duration_20250327_2010.0" vType="car" speedFactor="0.86" vaporized=""/>
    <tripinfo id="flow_route_89_duration_20250327_2010.5" depart="23.00" departLane="380585338#0_0" departPos="67.68" departSpeed="0.00" departDelay="5.36" arrival="100.00" arrivalLane="380593307#0_2" arrivalPos="161.13" arrivalSpeed="16.16" duration="77.00" routeLength="303.72" waitingTime="34.00" waitingCount="1" stopTime="0.00" timeLoss="57.98" rerouteNo="0" devices="tripinfo_flow_route_89_duration_20250327_2010.5" vType="car" speedFactor="1.01" vaporized=""/>
    <tripinfo id="flow_route_89_duration_20250327_2010.9" depart="33.00" departLane="380585338#0_0" departPos="17.86" departSpeed="0.00" departDelay="1.24" arrival="100.00" arrivalLane="380593307#0_1" arrivalPos="102.27" arrivalSpeed="16.15" duration="67.00" routeLength="294.68" waitingTime="24.00" waitingCount="1" stopTime="0.00" timeLoss="48.34" rerouteNo="0" devices="tripinfo_flow_route_89_duration_20250327_2010.9" vType="car" speedFactor="1.00" vaporized=""/>
    <tripinfo id="flow_route_89_duration_20250327_2010.12" depart="45.00" departLane="380585338#0_0" departPos="39.55" departSpeed="0.00" departDelay="2.65" arrival="100.00" arrivalLane="380593307#0_2" arrivalPos="77.19" arrivalSpeed="14.64" duration="55.00" routeLength="247.91" waitingTime="15.00" waitingCount="1" stopTime="0.00" timeLoss="39.35" rerouteNo="0" devices="tripinfo_flow_route_89_duration_20250327_2010.12" vType="car" speedFactor="1.02" vaporized=""/>
    <tripinfo id="flow_route_89_duration_20250327_2010.16" depart="65.00" departLane="380585338#0_0" departPos="6.87" departSpeed="0.00" departDelay="8.54" arrival="101.00" arrivalLane="380593307#0_2" arrivalPos="45.88" arrivalSpeed="13.48" duration="36.00" routeLength="249.29" waitingTime="0.00" waitingCount="0" stopTime="0.00" timeLoss="20.48" rerouteNo="0" devices="tripinfo_flow_route_89_duration_20250327_2010.16" vType="car" speedFactor="1.02" vaporized=""/>
    <tripinfo id="flow_route_90_duration_20250327_2010.1" depart="6.00" departLane="380585338#0_0" departPos="94.52" departSpeed="0.00" departDelay="1.00" arrival="102.00" arrivalLane="136617981_0" arrivalPos="233.63" arrivalSpeed="16.59" duration="96.00" routeLength="326.18" waitingTime="54.00" waitingCount="1" stopTime="0.00" timeLoss="74.96" rerouteNo="0" devices="tripinfo_flow_route_90_duration_20250327_2010.1" vType="car" speedFactor="1.12" vaporized=""/>
    <tripinfo id="flow_route_89_duration_20250327_2010.10" depart="41.00" departLane="380585338#0_0" departPos="80.38" departSpeed="0.00" departDelay="5.71" arrival="103.00" arrivalLane="380593307#0_2" arrivalPos="154.03" arrivalSpeed="16.34" duration="62.00" routeLength="283.92" waitingTime="20.00" waitingCount="1" stopTime="0.00" timeLoss="44.47" rerouteNo="0" devices="tripinfo_flow_route_89_duration_20250327_2010.10" vType="car" speedFactor="1.08" vaporized=""/>
    <tripinfo id="flow_route_90_duration_20250327_2010.4" depart="29.00" departLane="380585338#0_0" departPos="114.92" departSpeed="0.00" departDelay="9.00" arrival="104.00" arrivalLane="136617981_0" arrivalPos="160.74" arrivalSpeed="16.45" duration="75.00" routeLength="232.89" waitingTime="38.00" waitingCount="1" stopTime="0.00" timeLoss="60.05" rerouteNo="0" devices="tripinfo_flow_route_90_duration_20250327_2010.4" vType="car" speedFactor="1.02" vaporized=""/>
    <tripinfo id="flow_route_90_duration_20250327_2010.3" depart="16.00" departLane="380585338#0_0" departPos="4.83" departSpeed="0.00" departDelay="1.00" arrival="106.00" arrivalLane="136617981_0" arrivalPos="139.60" arrivalSpeed="15.47" duration="90.00" routeLength="321.84" waitingTime="38.00" waitingCount="1" stopTime="0.00" timeLoss="67.65" rerouteNo="0" devices="tripinfo_flow_route_90_duration_20250327_2010.3" vType="car" speedFactor="0.93" vaporized=""/>
    <tripinfo id="flow_route_90_duration_20250327_2010.6" depart="32.00" departLane="380585338#0_0" departPos="65.89" departSpeed="0.00" departDelay="2.00" arrival="106.00" arrivalLane="136617981_0" arrivalPos="110.72" arrivalSpeed="15.25" duration="74.00" routeLength="231.90" waitingTime="36.00" waitingCount="1" stopTime="0.00" timeLoss="58.27" rerouteNo="0" devices="tripinfo_flow_route_90_duration_20250327_2010.6" vType="car" speedFactor="1.02" vaporized=""/>
    <tripinfo id="flow_route_89_duration_20250327_2010.13" depart="50.00" departLane="380585338#0_0" departPos="20.74" departSpeed="0.00" departDelay="4.12" arrival="107.00" arrivalLane="380593307#0_1" arrivalPos="147.70" arrivalSpeed="16.30" duration="57.00" routeLength="337.23" waitingTime="11.00" waitingCount="1" stopTime="0.00" timeLoss="36.29" rerouteNo="0" devices="tripinfo_flow_route_89_duration_20250327_2010.13" vType="car" speedFactor="0.98" vaporized=""/>
    <tripinfo id="flow_route_78_duration_20250327_2010.0" depart="0.00" departLane="133342692#0_0" departPos="79.92" departSpeed="0.00" departDelay="0.00" arrival="108.00" arrivalLane="136617981_2" arrivalPos="12.89" arrivalSpeed="7.31" duration="108.00" routeLength="138.43" waitingTime="73.00" waitingCount="2" stopTime="0.00" timeLoss="98.91" rerouteNo="0" devices="tripinfo_flow_route_78_duration_20250327_2010.0" vType="car" speedFactor="1.01" vaporized=""/>
    <tripinfo id="flow_route_90_duration_20250327_2010.9" depart="45.00" departLane="380585338#0_0" departPos="55.71" departSpeed="0.00" departDelay="0.00" arrival="108.00" arrivalLane="136617981_0" arrivalPos="64.05" arrivalSpeed="11.58" duration="63.00" routeLength="195.40" waitingTime="24.00" waitingCount="1" stopTime="0.00" timeLoss="50.10" rerouteNo="0" devices="tripinfo_flow_route_90_duration_20250327_2010.9" vType="car" speedFactor="1.06" vaporized=""/>
    <tripinfo id="flow_route_89_duration_20250327_2010.14" depart="60.00" departLane="380585338#0_0" departPos="2.31" departSpeed="0.00" departDelay="10.59" arrival="108.00" arrivalLane="380593307#0_1" arrivalPos="128.66" arrivalSpeed="16.26" duration="48.00" routeLength="336.62" waitingTime="0.00" waitingCount="0" stopTime="0.00" timeLoss="26.97" rerouteNo="0" devices="tripinfo_flow_route_89_duration_20250327_2010.14" vType="car" speedFactor="1.00" vaporized=""/>
    <tripinfo id="flow_route_78_duration_20250327_2010.2" depart="9.00" departLane="133342692#0_0" departPos="117.46" departSpeed="0.00" departDelay="0.43" arrival="110.00" arrivalLane="136617981_2" arrivalPos="8.45" arrivalSpeed="8.10" duration="101.00" routeLength="96.46" waitingTime="69.00" waitingCount="2" stopTime="0.00" timeLoss="93.92" rerouteNo="0" devices="tripinfo_flow_route_78_duration_20250327_2010.2" vType="car" speedFactor="0.94" vaporized=""/>
    <tripinfo id="flow_route_90_duration_20250327_2010.7" depart="40.00" departLane="380585338#0_0" departPos="68.33" departSpeed="0.00" departDelay="5.00" arrival="113.00" arrivalLane="136617981_0" arrivalPos="181.71" arrivalSpeed="14.54" duration="73.00" routeLength="300.45" waitingTime="26.00" waitingCount="1" stopTime="0.00" timeLoss="51.43" rerouteNo="0" devices="tripinfo_flow_route_90_duration_20250327_2010.7" vType="car" speedFactor="0.90" vaporized=""/>
    <tripinfo id="flow_route_76_duration_20250327_2010.4" depart="49.00" departLane="133342692#0_0" departPos="14.50" departSpeed="0.00" departDelay="1.00" arrival="117.00" arrivalLane="133000063_0" arrivalPos="162.03" arrivalSpeed="16.52" duration="68.00" routeLength="354.45" waitingTime="12.00" waitingCount="2" stopTime="0.00" timeLoss="46.29" rerouteNo="0" devices="tripinfo_flow_route_76_duration_20250327_2010.4" vType="car" speedFactor="1.03" vaporized=""/>
    <tripinfo id="flow_route_90_duration_20250327_2010.8" depart="44.00" departLane="380585338#0_0" departPos="22.49" departSpeed="0.00" departDelay="4.00" arrival="122.00" arrivalLane="136617981_0" arrivalPos="232.22" arrivalSpeed="14.92" duration="78.00" routeLength="396.80" waitingTime="22.00" waitingCount="1" stopTime="0.00" timeLoss="50.21" rerouteNo="0" devices="tripinfo_flow_route_90_duration_20250327_2010.8" vType="car" speedFactor="0.91" vaporized=""/>