<?xml version="1.0" encoding="UTF-8"?>

<!-- generated on 2025-05-06 21:01:13 by Eclipse SUMO sumo Version 1.20.0
<configuration xmlns:xsi="http://www.w3.org/2001/XMLSchema-instance" xsi:noNamespaceSchemaLocation="http://sumo.dlr.de/xsd/sumoConfiguration.xsd">

    <input>
        <net-file value="osm.net.xml"/>
        <route-files value="xml/routes_sac2_cluster3839130731_cluster_11644940326_11644940327_11648561426.rou.xml"/>
    </input>

    <output>
        <tripinfo-output value="xml/tripinfo_9779.xml"/>
    </output>

    <traci_server>
        <remote-port value="39215"/>
    </traci_server>

</configuration>
-->

<tripinfos xmlns:xsi="http://www.w3.org/2001/XMLSchema-instance" xsi:noNamespaceSchemaLocation="http://sumo.dlr.de/xsd/tripinfo_file.xsd">
    <tripinfo id="flow_route_111_duration_20250327_2030.0" depart="0.00" departLane="1253188486#8_0" departPos="138.93" departSpeed="0.00" departDelay="0.00" arrival="19.00" arrivalLane="1254519229#0_1" arrivalPos="3.47" arrivalSpeed="14.51" duration="19.00" routeLength="140.76" waitingTime="0.00" waitingCount="0" stopTime="0.00" timeLoss="10.40" rerouteNo="0" devices="tripinfo_flow_route_111_duration_20250327_2030.0" vType="car" speedFactor="0.83" vaporized=""/>
    <tripinfo id="flow_route_124_duration_20250327_2030.0" depart="0.00" departLane="189240000#0-AddedOnRampEdge_0" departPos="82.66" departSpeed="0.00" departDelay="0.00" arrival="23.00" arrivalLane="1254519225#0.109_3" arrivalPos="34.02" arrivalSpeed="15.38" duration="23.00" routeLength="196.39" waitingTime="0.00" waitingCount="0" stopTime="0.00" timeLoss="8.58" rerouteNo="0" devices="tripinfo_flow_route_124_duration_20250327_2030.0" vType="car" speedFactor="0.94" vaporized=""/>
    <tripinfo id="flow_route_111_duration_20250327_2030.1" depart="4.00" departLane="1253188486#8_0" departPos="230.38" departSpeed="0.00" departDelay="0.67" arrival="26.00" arrivalLane="1254519229#0_0" arrivalPos="40.82" arrivalSpeed="10.07" duration="22.00" routeLength="86.65" waitingTime="1.00" waitingCount="1" stopTime="0.00" timeLoss="16.46" rerouteNo="0" devices="tripinfo_flow_route_111_duration_20250327_2030.1" vType="car" speedFactor="1.09" vaporized=""/>
    <tripinfo id="flow_route_104_duration_20250327_2030.0" depart="0.00" departLane="189240001_0" departPos="36.52" departSpeed="0.00" departDelay="0.00" arrival="32.00" arrivalLane="1254519225#0.109_0" arrivalPos="30.66" arrivalSpeed="15.52" duration="32.00" routeLength="198.30" waitingTime="0.00" waitingCount="0" stopTime="0.00" timeLoss="19.71" rerouteNo="0" devices="tripinfo_flow_route_104_duration_20250327_2030.0" vType="car" speedFactor="1.08" vaporized=""/>
    <tripinfo id="flow_route_104_duration_20250327_2030.1" depart="9.00" departLane="189240001_0" departPos="9.82" departSpeed="0.00" departDelay="0.43" arrival="34.00" arrivalLane="1254519225#0.109_0" arrivalPos="20.67" arrivalSpeed="15.48" duration="25.00" routeLength="215.01" waitingTime="0.00" waitingCount="0" stopTime="0.00" timeLoss="10.40" rerouteNo="0" devices="tripinfo_flow_route_104_duration_20250327_2030.1" vType="car" speedFactor="0.94" vaporized=""/>
    <tripinfo id="flow_route_123_duration_20250327_2030.0" depart="0.00" departLane="189240000#0-AddedOnRampEdge_0" departPos="5.69" departSpeed="0.00" departDelay="0.00" arrival="40.00" arrivalLane="1254519229#0_1" arrivalPos="19.69" arrivalSpeed="8.38" duration="40.00" routeLength="159.84" waitingTime="7.00" waitingCount="1" stopTime="0.00" timeLoss="28.56" rerouteNo="0" devices="tripinfo_flow_route_123_duration_20250327_2030.0" vType="car" speedFactor="0.89" vaporized=""/>
    <tripinfo id="flow_route_123_duration_20250327_2030.1" depart="7.00" departLane="189240000#0-AddedOnRampEdge_0" departPos="90.31" departSpeed="0.00" departDelay="0.33" arrival="40.00" arrivalLane="1254519229#0_0" arrivalPos="24.01" arrivalSpeed="7.83" duration="33.00" routeLength="76.03" waitingTime="13.00" waitingCount="1" stopTime="0.00" timeLoss="27.62" rerouteNo="0" devices="tripinfo_flow_route_123_duration_20250327_2030.1" vType="car" speedFactor="0.93" vaporized=""/>
    <tripinfo id="flow_route_96_duration_20250327_2030.0" depart="0.00" departLane="1341093416#0_0" departPos="184.53" departSpeed="0.00" departDelay="0.00" arrival="44.00" arrivalLane="1254519229#0_1" arrivalPos="3.62" arrivalSpeed="3.20" duration="44.00" routeLength="114.10" waitingTime="15.00" waitingCount="2" stopTime="0.00" timeLoss="36.08" rerouteNo="0" devices="tripinfo_flow_route_96_duration_20250327_2030.0" vType="car" speedFactor="1.01" vaporized=""/>
    <tripinfo id="flow_route_112_duration_20250327_2030.0" depart="0.00" departLane="1253188486#8_0" departPos="64.90" departSpeed="0.00" departDelay="0.00" arrival="46.00" arrivalLane="799091563#0_0" arrivalPos="282.23" arrivalSpeed="16.46" duration="46.00" routeLength="472.04" waitingTime="0.00" waitingCount="0" stopTime="0.00" timeLoss="16.16" rerouteNo="0" devices="tripinfo_flow_route_112_duration_20250327_2030.0" vType="car" speedFactor="1.05" vaporized=""/>
    <tripinfo id="flow_route_123_duration_20250327_2030.2" depart="14.00" departLane="189240000#0-AddedOnRampEdge_0" departPos="88.28" departSpeed="0.00" departDelay="0.67" arrival="46.00" arrivalLane="1254519229#0_1" arrivalPos="56.94" arrivalSpeed="11.82" duration="32.00" routeLength="114.50" waitingTime="7.00" waitingCount="1" stopTime="0.00" timeLoss="23.10" rerouteNo="0" devices="tripinfo_flow_route_123_duration_20250327_2030.2" vType="car" speedFactor="0.83" vaporized=""/>
    <tripinfo id="flow_route_105_duration_20250327_2030.0" depart="1.00" departLane="189240001_0" departPos="25.23" departSpeed="0.00" departDelay="1.00" arrival="47.00" arrivalLane="799091563#0_2" arrivalPos="224.02" arrivalSpeed="16.14" duration="46.00" routeLength="308.35" waitingTime="6.00" waitingCount="1" stopTime="0.00" timeLoss="27.16" rerouteNo="0" devices="tripinfo_flow_route_105_duration_20250327_2030.0" vType="car" speedFactor="1.03" vaporized=""/>
    <tripinfo id="flow_route_95_duration_20250327_2030.6" depart="18.00" departLane="1341093416#0_0" departPos="254.48" departSpeed="0.00" departDelay="0.86" arrival="48.00" arrivalLane="1254519225#0.109_0" arrivalPos="1.74" arrivalSpeed="12.78" duration="30.00" routeLength="129.63" waitingTime="5.00" waitingCount="1" stopTime="0.00" timeLoss="20.72" rerouteNo="0" devices="tripinfo_flow_route_95_duration_20250327_2030.6" vType="car" speedFactor="0.93" vaporized=""/>
    <tripinfo id="flow_route_95_duration_20250327_2030.4" depart="12.00" departLane="1341093416#0_0" departPos="222.56" departSpeed="0.00" departDelay="0.57" arrival="52.00" arrivalLane="1254519225#0.109_0" arrivalPos="35.66" arrivalSpeed="15.11" duration="40.00" routeLength="195.47" waitingTime="6.00" waitingCount="1" stopTime="0.00" timeLoss="27.41" rerouteNo="0" devices="tripinfo_flow_route_95_duration_20250327_2030.4" vType="car" speedFactor="1.01" vaporized=""/>
    <tripinfo id="flow_route_111_duration_20250327_2030.2" depart="7.00" departLane="1253188486#8_0" departPos="39.04" departSpeed="0.00" departDelay="0.33" arrival="54.00" arrivalLane="1254519229#0_1" arrivalPos="2.58" arrivalSpeed="7.17" duration="47.00" routeLength="239.76" waitingTime="9.00" waitingCount="1" stopTime="0.00" timeLoss="32.44" rerouteNo="0" devices="tripinfo_flow_route_111_duration_20250327_2030.2" vType="car" speedFactor="0.99" vaporized=""/>
    <tripinfo id="flow_route_124_duration_20250327_2030.1" depart="4.00" departLane="189240000#0-AddedOnRampEdge_0" departPos="77.82" departSpeed="0.00" departDelay="0.67" arrival="56.00" arrivalLane="1254519225#0.109_3" arrivalPos="19.16" arrivalSpeed="15.00" duration="52.00" routeLength="186.36" waitingTime="16.00" waitingCount="2" stopTime="0.00" timeLoss="39.23" rerouteNo="0" devices="tripinfo_flow_route_124_duration_20250327_2030.1" vType="car" speedFactor="1.03" vaporized=""/>
    <tripinfo id="flow_route_111_duration_20250327_2030.8" depart="27.00" departLane="1253188486#8_0" departPos="226.92" departSpeed="0.00" departDelay="0.34" arrival="56.00" arrivalLane="1254519229#0_0" arrivalPos="24.09" arrivalSpeed="8.63" duration="29.00" routeLength="73.39" waitingTime="6.00" waitingCount="1" stopTime="0.00" timeLoss="24.53" rerouteNo="0" devices="tripinfo_flow_route_111_duration_20250327_2030.8" vType="car" speedFactor="1.09" vaporized=""/>
    <tripinfo id="flow_route_124_duration_20250327_2030.2" depart="7.00" departLane="189240000#0-AddedOnRampEdge_0" departPos="2.82" departSpeed="0.00" departDelay="0.33" arrival="61.00" arrivalLane="1254519225#0.109_3" arrivalPos="47.70" arrivalSpeed="14.50" duration="54.00" routeLength="289.91" waitingTime="6.00" waitingCount="2" stopTime="0.00" timeLoss="32.58" rerouteNo="0" devices="tripinfo_flow_route_124_duration_20250327_2030.2" vType="car" speedFactor="0.88" vaporized=""/>
    <tripinfo id="flow_route_111_duration_20250327_2030.11" depart="37.00" departLane="1253188486#8_0" departPos="201.45" departSpeed="0.00" departDelay="0.34" arrival="61.00" arrivalLane="1254519229#0_0" arrivalPos="8.19" arrivalSpeed="9.14" duration="24.00" routeLength="82.96" waitingTime="0.00" waitingCount="0" stopTime="0.00" timeLoss="18.69" rerouteNo="0" devices="tripinfo_flow_route_111_duration_20250327_2030.11" vType="car" speedFactor="1.02" vaporized=""/>
    <tripinfo id="flow_route_94_duration_20250327_2030.0" depart="0.00" departLane="1341093416#0_0" departPos="204.30" departSpeed="0.00" departDelay="0.00" arrival="62.00" arrivalLane="799091563#0_0" arrivalPos="338.33" arrivalSpeed="16.30" duration="62.00" routeLength="440.38" waitingTime="14.00" waitingCount="1" stopTime="0.00" timeLoss="35.44" rerouteNo="0" devices="tripinfo_flow_route_94_duration_20250327_2030.0" vType="car" speedFactor="1.06" vaporized=""/>
    <tripinfo id="flow_route_111_duration_20250327_2030.3" depart="10.00" departLane="1253188486#8_0" departPos="54.74" departSpeed="0.00" departDelay="0.00" arrival="62.00" arrivalLane="1254519229#0_1" arrivalPos="32.73" arrivalSpeed="10.90" duration="52.00" routeLength="254.21" waitingTime="7.00" waitingCount="1" stopTime="0.00" timeLoss="36.09" rerouteNo="0" devices="tripinfo_flow_route_111_duration_20250327_2030.3" vType="car" speedFactor="1.16" vaporized=""/>
    <tripinfo id="flow_route_111_duration_20250327_2030.4" depart="15.00" departLane="1253188486#8_0" departPos="120.85" departSpeed="0.00" departDelay="1.67" arrival="62.00" arrivalLane="1254519229#0_1" arrivalPos="53.16" arrivalSpeed="12.28" duration="47.00" routeLength="208.54" waitingTime="9.00" waitingCount="1" stopTime="0.00" timeLoss="33.80" rerouteNo="0" devices="tripinfo_flow_route_111_duration_20250327_2030.4" vType="car" speedFactor="0.89" vaporized=""/>
    <tripinfo id="flow_route_111_duration_20250327_2030.7" depart="24.00" departLane="1253188486#8_0" departPos="125.82" departSpeed="0.00" departDelay="0.67" arrival="62.00" arrivalLane="1254519229#0_0" arrivalPos="33.68" arrivalSpeed="10.58" duration="38.00" routeLength="184.08" waitingTime="2.00" waitingCount="1" stopTime="0.00" timeLoss="26.33" rerouteNo="0" devices="tripinfo_flow_route_111_duration_20250327_2030.7" vType="car" speedFactor="1.18" vaporized=""/>
    <tripinfo id="flow_route_104_duration_20250327_2030.3" depart="26.00" departLane="189240001_0" departPos="1.87" departSpeed="0.00" departDelay="0.29" arrival="62.00" arrivalLane="1254519225#0.109_2" arrivalPos="22.78" arrivalSpeed="15.91" duration="36.00" routeLength="225.07" waitingTime="2.00" waitingCount="1" stopTime="0.00" timeLoss="20.96" rerouteNo="0" devices="tripinfo_flow_route_104_duration_20250327_2030.3" vType="car" speedFactor="0.96" vaporized=""/>
    <tripinfo id="flow_route_112_duration_20250327_2030.5" depart="31.00" departLane="1253188486#8_0" departPos="175.00" departSpeed="0.00" departDelay="1.00" arrival="62.00" arrivalLane="799091563#0_0" arrivalPos="38.55" arrivalSpeed="9.29" duration="31.00" routeLength="118.27" waitingTime="0.00" waitingCount="0" stopTime="0.00" timeLoss="21.59" rerouteNo="0" devices="tripinfo_flow_route_112_duration_20250327_2030.5" vType="car" speedFactor="0.85" vaporized=""/>
    <tripinfo id="flow_route_111_duration_20250327_2030.5" depart="17.00" departLane="1253188486#8_0" departPos="157.42" departSpeed="0.00" departDelay="0.34" arrival="63.00" arrivalLane="1254519229#0_0" arrivalPos="75.98" arrivalSpeed="12.96" duration="46.00" routeLength="194.78" waitingTime="5.00" waitingCount="1" stopTime="0.00" timeLoss="34.07" rerouteNo="0" devices="tripinfo_flow_route_111_duration_20250327_2030.5" vType="car" speedFactor="0.95" vaporized=""/>
    <tripinfo id="flow_route_104_duration_20250327_2030.2" depart="18.00" departLane="189240001_0" departPos="5.25" departSpeed="0.00" departDelay="0.86" arrival="63.00" arrivalLane="1254519225#0.109_0" arrivalPos="17.40" arrivalSpeed="15.00" duration="45.00" routeLength="216.31" waitingTime="9.00" waitingCount="1" stopTime="0.00" timeLoss="31.26" rerouteNo="0" devices="tripinfo_flow_route_104_duration_20250327_2030.2" vType="car" speedFactor="1.18" vaporized=""/>
    <tripinfo id="flow_route_111_duration_20250327_2030.6" depart="21.00" departLane="1253188486#8_0" departPos="86.32" departSpeed="0.00" departDelay="1.00" arrival="63.00" arrivalLane="1254519229#0_1" arrivalPos="26.98" arrivalSpeed="10.91" duration="42.00" routeLength="216.87" waitingTime="2.00" waitingCount="1" stopTime="0.00" timeLoss="28.81" rerouteNo="0" devices="tripinfo_flow_route_111_duration_20250327_2030.6" vType="car" speedFactor="1.17" vaporized=""/>
    <tripinfo id="flow_route_104_duration_20250327_2030.5" depart="43.00" departLane="189240001_0" departPos="30.83" departSpeed="0.00" departDelay="0.15" arrival="65.00" arrivalLane="1254519225#0.109_0" arrivalPos="7.13" arrivalSpeed="14.61" duration="22.00" routeLength="180.47" waitingTime="0.00" waitingCount="0" stopTime="0.00" timeLoss="10.08" rerouteNo="0" devices="tripinfo_flow_route_104_duration_20250327_2030.5" vType="car" speedFactor="0.91" vaporized=""/>
    <tripinfo id="flow_route_112_duration_20250327_2030.1" depart="6.00" departLane="1253188486#8_0" departPos="58.08" departSpeed="0.00" departDelay="0.00" arrival="66.00" arrivalLane="799091563#0_0" arrivalPos="150.59" arrivalSpeed="15.94" duration="60.00" routeLength="347.22" waitingTime="5.00" waitingCount="1" stopTime="0.00" timeLoss="38.06" rerouteNo="0" devices="tripinfo_flow_route_112_duration_20250327_2030.1" vType="car" speedFactor="1.12" vaporized=""/>
    <tripinfo id="flow_route_104_duration_20250327_2030.4" depart="35.00" departLane="189240001_0" departPos="29.73" departSpeed="0.00" departDelay="0.72" arrival="66.00" arrivalLane="1254519225#0.109_0" arrivalPos="41.38" arrivalSpeed="14.51" duration="31.00" routeLength="215.81" waitingTime="0.00" waitingCount="0" stopTime="0.00" timeLoss="16.22" rerouteNo="0" devices="tripinfo_flow_route_104_duration_20250327_2030.4" vType="car" speedFactor="0.90" vaporized=""/>
    <tripinfo id="flow_route_112_duration_20250327_2030.4" depart="24.00" departLane="1253188486#8_0" departPos="202.54" departSpeed="0.00" departDelay="0.00" arrival="67.00" arrivalLane="799091563#0_0" arrivalPos="233.57" arrivalSpeed="16.36" duration="43.00" routeLength="285.75" waitingTime="6.00" waitingCount="1" stopTime="0.00" timeLoss="24.46" rerouteNo="0" devices="tripinfo_flow_route_112_duration_20250327_2030.4" vType="car" speedFactor="1.10" vaporized=""/>
    <tripinfo id="flow_route_112_duration_20250327_2030.3" depart="21.00" departLane="1253188486#8_0" departPos="177.10" departSpeed="0.00" departDelay="3.00" arrival="68.00" arrivalLane="799091563#0_0" arrivalPos="207.62" arrivalSpeed="16.20" duration="47.00" routeLength="285.22" waitingTime="5.00" waitingCount="1" stopTime="0.00" timeLoss="28.10" rerouteNo="0" devices="tripinfo_flow_route_112_duration_20250327_2030.3" vType="car" speedFactor="1.15" vaporized=""/>
    <tripinfo id="flow_route_123_duration_20250327_2030.3" depart="20.00" departLane="189240000#0-AddedOnRampEdge_0" departPos="4.42" departSpeed="0.00" departDelay="0.00" arrival="68.00" arrivalLane="1254519229#0_0" arrivalPos="6.84" arrivalSpeed="6.35" duration="48.00" routeLength="144.75" waitingTime="12.00" waitingCount="2" stopTime="0.00" timeLoss="38.72" rerouteNo="0" devices="tripinfo_flow_route_123_duration_20250327_2030.3" vType="car" speedFactor="0.99" vaporized=""/>
    <tripinfo id="flow_route_123_duration_20250327_2030.4" depart="27.00" departLane="189240000#0-AddedOnRampEdge_0" departPos="46.51" departSpeed="0.00" departDelay="0.34" arrival="69.00" arrivalLane="1254519229#0_1" arrivalPos="8.33" arrivalSpeed="7.88" duration="42.00" routeLength="107.66" waitingTime="10.00" waitingCount="2" stopTime="0.00" timeLoss="34.71" rerouteNo="0" devices="tripinfo_flow_route_123_duration_20250327_2030.4" vType="car" speedFactor="1.04" vaporized=""/>
    <tripinfo id="flow_route_96_duration_20250327_2030.1" depart="38.00" departLane="1341093416#0_0" departPos="4.01" departSpeed="0.00" departDelay="8.00" arrival="77.00" arrivalLane="1254519229#0_1" arrivalPos="27.28" arrivalSpeed="6.64" duration="39.00" routeLength="318.28" waitingTime="0.00" waitingCount="0" stopTime="0.00" timeLoss="18.41" rerouteNo="0" devices="tripinfo_flow_route_96_duration_20250327_2030.1" vType="car" speedFactor="0.90" vaporized=""/>
    <tripinfo id="flow_route_95_duration_20250327_2030.1" depart="4.00" departLane="1341093416#0_0" departPos="173.69" departSpeed="0.00" departDelay="1.14" arrival="79.00" arrivalLane="1254519225#0.109_0" arrivalPos="42.65" arrivalSpeed="14.18" duration="75.00" routeLength="251.33" waitingTime="21.00" waitingCount="2" stopTime="0.00" timeLoss="56.71" rerouteNo="0" devices="tripinfo_flow_route_95_duration_20250327_2030.1" vType="car" speedFactor="0.86" vaporized=""/>
    <tripinfo id="flow_route_95_duration_20250327_2030.8" depart="23.00" departLane="1341093416#0_0" departPos="186.09" departSpeed="0.00" departDelay="0.14" arrival="81.00" arrivalLane="1254519225#0.109_0" arrivalPos="13.25" arrivalSpeed="14.20" duration="58.00" routeLength="209.53" waitingTime="17.00" waitingCount="1" stopTime="0.00" timeLoss="43.80" rerouteNo="0" devices="tripinfo_flow_route_95_duration_20250327_2030.8" vType="car" speedFactor="0.97" vaporized=""/>
    <tripinfo id="flow_route_94_duration_20250327_2030.1" depart="35.00" departLane="1341093416#0_0" departPos="118.14" departSpeed="0.00" departDelay="5.00" arrival="81.00" arrivalLane="799091563#0_0" arrivalPos="156.10" arrivalSpeed="16.38" duration="46.00" routeLength="344.31" waitingTime="2.00" waitingCount="1" stopTime="0.00" timeLoss="25.09" rerouteNo="0" devices="tripinfo_flow_route_94_duration_20250327_2030.1" vType="car" speedFactor="1.00" vaporized=""/>
    <tripinfo id="flow_route_95_duration_20250327_2030.2" depart="6.00" departLane="1341093416#0_0" departPos="149.25" departSpeed="0.00" departDelay="0.29" arrival="82.00" arrivalLane="1254519225#0.109_0" arrivalPos="55.38" arrivalSpeed="15.61" duration="76.00" routeLength="288.50" waitingTime="20.00" waitingCount="2" stopTime="0.00" timeLoss="57.37" rerouteNo="0" devices="tripinfo_flow_route_95_duration_20250327_2030.2" vType="car" speedFactor="1.05" vaporized=""/>
    <tripinfo id="flow_route_111_duration_20250327_2030.10" depart="35.00" departLane="1253188486#8_0" departPos="68.03" departSpeed="0.00" departDelay="1.67" arrival="86.00" arrivalLane="1254519229#0_1" arrivalPos="3.39" arrivalSpeed="7.19" duration="51.00" routeLength="211.58" waitingTime="10.00" waitingCount="1" stopTime="0.00" timeLoss="38.19" rerouteNo="0" devices="tripinfo_flow_route_111_duration_20250327_2030.10" vType="car" speedFactor="1.02" vaporized=""/>
    <tripinfo id="flow_route_111_duration_20250327_2030.15" depart="51.00" departLane="1253188486#8_0" departPos="194.56" departSpeed="0.00" departDelay="1.01" arrival="86.00" arrivalLane="1254519229#0_0" arrivalPos="15.16" arrivalSpeed="8.36" duration="35.00" routeLength="96.82" waitingTime="10.00" waitingCount="1" stopTime="0.00" timeLoss="29.07" rerouteNo="0" devices="tripinfo_flow_route_111_duration_20250327_2030.15" vType="car" speedFactor="1.03" vaporized=""/>
    <tripinfo id="flow_route_124_duration_20250327_2030.4" depart="15.00" departLane="189240000#0-AddedOnRampEdge_0" departPos="54.76" departSpeed="0.00" departDelay="1.67" arrival="87.00" arrivalLane="1254519225#0.109_3" arrivalPos="37.20" arrivalSpeed="14.44" duration="72.00" routeLength="227.46" waitingTime="23.00" waitingCount="4" stopTime="0.00" timeLoss="55.02" rerouteNo="0" devices="tripinfo_flow_route_124_duration_20250327_2030.4" vType="car" speedFactor="0.87" vaporized=""/>
    <tripinfo id="flow_route_112_duration_20250327_2030.2" depart="12.00" departLane="1253188486#8_0" departPos="21.84" departSpeed="0.00" departDelay="0.00" arrival="88.00" arrivalLane="799091563#0_0" arrivalPos="91.66" arrivalSpeed="12.85" duration="76.00" routeLength="324.53" waitingTime="15.00" waitingCount="1" stopTime="0.00" timeLoss="55.07" rerouteNo="0" devices="tripinfo_flow_route_112_duration_20250327_2030.2" vType="car" speedFactor="0.97" vaporized=""/>
    <tripinfo id="flow_route_111_duration_20250327_2030.9" depart="31.00" departLane="1253188486#8_0" departPos="30.50" departSpeed="0.00" departDelay="1.00" arrival="90.00" arrivalLane="1254519229#0_1" arrivalPos="55.66" arrivalSpeed="11.08" duration="59.00" routeLength="301.38" waitingTime="12.00" waitingCount="1" stopTime="0.00" timeLoss="40.49" rerouteNo="0" devices="tripinfo_flow_route_111_duration_20250327_2030.9" vType="car" speedFactor="0.88" vaporized=""/>
    <tripinfo id="flow_route_111_duration_20250327_2030.12" depart="40.00" departLane="1253188486#8_0" departPos="115.38" departSpeed="0.00" departDelay="0.00" arrival="90.00" arrivalLane="1254519229#0_0" arrivalPos="71.88" arrivalSpeed="12.12" duration="50.00" routeLength="232.72" waitingTime="11.00" waitingCount="1" stopTime="0.00" timeLoss="35.58" rerouteNo="0" devices="tripinfo_flow_route_111_duration_20250327_2030.12" vType="car" speedFactor="1.02" vaporized=""/>
    <tripinfo id="flow_route_104_duration_20250327_2030.6" depart="52.00" departLane="189240001_0" departPos="2.71" departSpeed="0.00" departDelay="0.57" arrival="90.00" arrivalLane="1254519225#0.109_0" arrivalPos="5.28" arrivalSpeed="14.04" duration="38.00" routeLength="206.72" waitingTime="4.00" waitingCount="1" stopTime="0.00" timeLoss="25.38" rerouteNo="0" devices="tripinfo_flow_route_104_duration_20250327_2030.6" vType="car" speedFactor="1.09" vaporized=""/>
    <tripinfo id="flow_route_124_duration_20250327_2030.3" depart="10.00" departLane="189240000#0-AddedOnRampEdge_0" departPos="15.86" departSpeed="0.00" departDelay="0.00" arrival="91.00" arrivalLane="1254519225#0.109_3" arrivalPos="60.18" arrivalSpeed="16.38" duration="81.00" routeLength="289.35" waitingTime="21.00" waitingCount="4" stopTime="0.00" timeLoss="61.74" rerouteNo="0" devices="tripinfo_flow_route_124_duration_20250327_2030.3" vType="car" speedFactor="1.02" vaporized=""/>
    <tripinfo id="flow_route_111_duration_20250327_2030.14" depart="49.00" departLane="1253188486#8_0" departPos="78.71" departSpeed="0.00" departDelay="2.34" arrival="93.00" arrivalLane="1254519229#0_1" arrivalPos="35.38" arrivalSpeed="11.47" duration="44.00" routeLength="232.88" waitingTime="0.00" waitingCount="0" stopTime="0.00" timeLoss="29.86" rerouteNo="0" devices="tripinfo_flow_route_111_duration_20250327_2030.14" vType="car" speedFactor="0.97" vaporized=""/>
    <tripinfo id="flow_route_111_duration_20250327_2030.17" depart="58.00" departLane="1253188486#8_0" departPos="129.62" departSpeed="0.00" departDelay="1.34" arrival="93.00" arrivalLane="1254519229#0_0" arrivalPos="48.10" arrivalSpeed="11.49" duration="35.00" routeLength="194.70" waitingTime="0.00" waitingCount="0" stopTime="0.00" timeLoss="23.23" rerouteNo="0" devices="tripinfo_flow_route_111_duration_20250327_2030.17" vType="car" speedFactor="0.98" vaporized=""/>
    <tripinfo id="flow_route_111_duration_20250327_2030.13" depart="45.00" departLane="1253188486#8_0" departPos="50.91" departSpeed="0.00" departDelay="1.67" arrival="94.00" arrivalLane="1254519229#0_0" arrivalPos="79.31" arrivalSpeed="13.16" duration="49.00" routeLength="304.62" waitingTime="5.00" waitingCount="1" stopTime="0.00" timeLoss="30.43" rerouteNo="0" devices="tripinfo_flow_route_111_duration_20250327_2030.13" vType="car" speedFactor="1.04" vaporized=""/>
    <tripinfo id="flow_route_111_duration_20250327_2030.16" depart="55.00" departLane="1253188486#8_0" departPos="105.56" departSpeed="0.00" departDelay="1.67" arrival="94.00" arrivalLane="1254519229#0_1" arrivalPos="59.64" arrivalSpeed="13.56" duration="39.00" routeLength="230.30" waitingTime="0.00" waitingCount="0" stopTime="0.00" timeLoss="24.39" rerouteNo="0" devices="tripinfo_flow_route_111_duration_20250327_2030.16" vType="car" speedFactor="1.03" vaporized=""/>
    <tripinfo id="flow_route_112_duration_20250327_2030.8" depart="51.00" departLane="1253188486#8_0" departPos="139.50" departSpeed="0.00" departDelay="3.00" arrival="96.00" arrivalLane="799091563#0_0" arrivalPos="85.81" arrivalSpeed="13.03" duration="45.00" routeLength="201.02" waitingTime="7.00" waitingCount="1" stopTime="0.00" timeLoss="30.65" rerouteNo="0" devices="tripinfo_flow_route_112_duration_20250327_2030.8" vType="car" speedFactor="0.96" vaporized=""/>
    <tripinfo id="flow_route_112_duration_20250327_2030.6" depart="36.00" departLane="1253188486#8_0" departPos="140.66" departSpeed="0.00" departDelay="0.00" arrival="100.00" arrivalLane="799091563#0_0" arrivalPos="258.53" arrivalSpeed="16.28" duration="64.00" routeLength="372.58" waitingTime="14.00" waitingCount="1" stopTime="0.00" timeLoss="40.57" rerouteNo="0" devices="tripinfo_flow_route_112_duration_20250327_2030.6" vType="car" speedFactor="1.14" vaporized=""/>
    <tripinfo id="flow_route_112_duration_20250327_2030.9" depart="55.00" departLane="1253188486#8_0" departPos="194.52" departSpeed="0.00" departDelay="1.00" arrival="105.00" arrivalLane="799091563#0_0" arrivalPos="281.40" arrivalSpeed="16.24" duration="50.00" routeLength="341.60" waitingTime="7.00" waitingCount="1" stopTime="0.00" timeLoss="27.89" rerouteNo="0" devices="tripinfo_flow_route_112_duration_20250327_2030.9" vType="car" speedFactor="1.00" vaporized=""/>
    <tripinfo id="flow_route_95_duration_20250327_2030.3" depart="10.00" departLane="1341093416#0_0" departPos="72.41" departSpeed="0.00" departDelay="1.43" arrival="109.00" arrivalLane="1254519225#0.109_0" arrivalPos="42.74" arrivalSpeed="15.00" duration="99.00" routeLength="352.71" waitingTime="33.00" waitingCount="2" stopTime="0.00" timeLoss="76.10" rerouteNo="0" devices="tripinfo_flow_route_95_duration_20250327_2030.3" vType="car" speedFactor="0.94" vaporized=""/>
    <tripinfo id="flow_route_124_duration_20250327_2030.5" depart="17.00" departLane="189240000#0-AddedOnRampEdge_0" departPos="14.33" departSpeed="0.00" departDelay="0.34" arrival="110.00" arrivalLane="1254519225#0.109_3" arrivalPos="11.44" arrivalSpeed="14.24" duration="93.00" routeLength="242.14" waitingTime="36.00" waitingCount="7" stopTime="0.00" timeLoss="77.30" rerouteNo="0" devices="tripinfo_flow_route_124_duration_20250327_2030.5" vType="car" speedFactor="1.13" vaporized=""/>
    <tripinfo id="flow_route_95_duration_20250327_2030.0" depart="0.00" departLane="1341093416#0_0" departPos="1.65" departSpeed="0.00" departDelay="0.00" arrival="111.00" arrivalLane="1254519225#0.109_0" arrivalPos="44.45" arrivalSpeed="15.61" duration="111.00" routeLength="425.17" waitingTime="32.00" waitingCount="2" stopTime="0.00" timeLoss="83.91" rerouteNo="0" devices="tripinfo_flow_route_95_duration_20250327_2030.0" vType="car" speedFactor="0.94" vaporized=""/>
    <tripinfo id="flow_route_124_duration_20250327_2030.8" depart="29.00" departLane="189240000#0-AddedOnRampEdge_0" departPos="91.72" departSpeed="0.00" departDelay="2.34" arrival="111.00" arrivalLane="1254519225#0.109_3" arrivalPos="54.62" arrivalSpeed="16.19" duration="82.00" routeLength="207.94" waitingTime="38.00" waitingCount="4" stopTime="0.00" timeLoss="67.85" rerouteNo="0" devices="tripinfo_flow_route_124_duration_20250327_2030.8" vType="car" speedFactor="1.04" vaporized=""/>
    <tripinfo id="flow_route_95_duration_20250327_2030.9" depart="29.00" departLane="1341093416#0_0" departPos="157.29" departSpeed="0.00" departDelay="3.29" arrival="112.00" arrivalLane="1254519225#0.109_0" arrivalPos="26.03" arrivalSpeed="14.63" duration="83.00" routeLength="251.11" waitingTime="31.00" waitingCount="2" stopTime="0.00" timeLoss="66.52" rerouteNo="0" devices="tripinfo_flow_route_95_duration_20250327_2030.9" vType="car" speedFactor="1.03" vaporized=""/>
    <tripinfo id="flow_route_124_duration_20250327_2030.7" depart="24.00" departLane="189240000#0-AddedOnRampEdge_0" departPos="55.23" departSpeed="0.00" departDelay="0.67" arrival="114.00" arrivalLane="1254519225#0.109_3" arrivalPos="24.32" arrivalSpeed="14.65" duration="90.00" routeLength="214.12" waitingTime="31.00" waitingCount="4" stopTime="0.00" timeLoss="73.64" rerouteNo="0" devices="tripinfo_flow_route_124_duration_20250327_2030.7" vType="car" speedFactor="0.90" vaporized=""/>
    <tripinfo id="flow_route_112_duration_20250327_2030.7" depart="45.00" departLane="1253188486#8_0" departPos="81.66" departSpeed="0.00" departDelay="3.00" arrival="117.00" arrivalLane="799091563#0_0" arrivalPos="348.82" arrivalSpeed="14.48" duration="72.00" routeLength="521.88" waitingTime="6.00" waitingCount="1" stopTime="0.00" timeLoss="36.22" rerouteNo="0" devices="tripinfo_flow_route_112_duration_20250327_2030.7" vType="car" speedFactor="0.88" vaporized=""/>