<?xml version="1.0" encoding="UTF-8"?>

<!-- generated on 2025-05-06 21:08:01 by Eclipse SUMO sumo Version 1.20.0
<configuration xmlns:xsi="http://www.w3.org/2001/XMLSchema-instance" xsi:noNamespaceSchemaLocation="http://sumo.dlr.de/xsd/sumoConfiguration.xsd">

    <input>
        <net-file value="osm.net.xml"/>
        <route-files value="xml/route_rl_cluster_356722183_3828703848_2.rou.xml"/>
    </input>

    <output>
        <tripinfo-output value="xml/tripinfo_rl_cluster_356722183_3828703848_2.xml"/>
    </output>

    <traci_server>
        <remote-port value="59821"/>
    </traci_server>

</configuration>
-->

<tripinfos xmlns:xsi="http://www.w3.org/2001/XMLSchema-instance" xsi:noNamespaceSchemaLocation="http://sumo.dlr.de/xsd/tripinfo_file.xsd">
    <tripinfo id="flow_route_18_duration_20250327_1920.0" depart="0.00" departLane="133126040#0_0" departPos="80.59" departSpeed="0.00" departDelay="0.00" arrival="13.00" arrivalLane="1318893695#0_0" arrivalPos="9.11" arrivalSpeed="9.61" duration="13.00" routeLength="59.37" waitingTime="0.00" waitingCount="0" stopTime="0.00" timeLoss="9.12" rerouteNo="0" devices="tripinfo_flow_route_18_duration_20250327_1920.0" vType="car" speedFactor="1.01" vaporized=""/>
    <tripinfo id="flow_route_1_duration_20250327_1920.0" depart="4.00" departLane="1318793176#1_0" departPos="2.21" departSpeed="0.00" departDelay="4.00" arrival="28.00" arrivalLane="1318793173#0_1" arrivalPos="77.00" arrivalSpeed="15.48" duration="24.00" routeLength="198.69" waitingTime="0.00" waitingCount="0" stopTime="0.00" timeLoss="10.54" rerouteNo="0" devices="tripinfo_flow_route_1_duration_20250327_1920.0" vType="car" speedFactor="0.94" vaporized=""/>
    <tripinfo id="flow_route_0_duration_20250327_1920.0" depart="0.00" departLane="1318793176#1_0" departPos="2.64" departSpeed="0.00" departDelay="0.00" arrival="36.00" arrivalLane="133126031#0_0" arrivalPos="296.30" arrivalSpeed="16.51" duration="36.00" routeLength="414.08" waitingTime="0.00" waitingCount="0" stopTime="0.00" timeLoss="10.51" rerouteNo="0" devices="tripinfo_flow_route_0_duration_20250327_1920.0" vType="car" speedFactor="1.06" vaporized=""/>
    <tripinfo id="flow_route_0_duration_20250327_1920.1" depart="9.00" departLane="1318793176#1_0" departPos="5.19" departSpeed="0.00" departDelay="8.88" arrival="39.00" arrivalLane="133126031#0_0" arrivalPos="150.35" arrivalSpeed="16.45" duration="30.00" routeLength="265.57" waitingTime="0.00" waitingCount="0" stopTime="0.00" timeLoss="11.61" rerouteNo="0" devices="tripinfo_flow_route_0_duration_20250327_1920.1" vType="car" speedFactor="0.89" vaporized=""/>
    <tripinfo id="flow_route_0_duration_20250327_1920.4" depart="22.00" departLane="1318793176#1_0" departPos="1.49" departSpeed="0.00" departDelay="21.52" arrival="42.00" arrivalLane="133126031#0_0" arrivalPos="20.04" arrivalSpeed="11.18" duration="20.00" routeLength="138.97" waitingTime="0.00" waitingCount="0" stopTime="0.00" timeLoss="11.11" rerouteNo="0" devices="tripinfo_flow_route_0_duration_20250327_1920.4" vType="car" speedFactor="1.09" vaporized=""/>
    <tripinfo id="flow_route_19_duration_20250327_1920.8" depart="24.00" departLane="133126040#0_0" departPos="93.78" departSpeed="0.00" departDelay="0.00" arrival="43.00" arrivalLane="133126031#0_1" arrivalPos="36.28" arrivalSpeed="10.18" duration="19.00" routeLength="71.37" waitingTime="3.00" waitingCount="1" stopTime="0.00" timeLoss="13.23" rerouteNo="0" devices="tripinfo_flow_route_19_duration_20250327_1920.8" vType="car" speedFactor="1.02" vaporized=""/>
    <tripinfo id="flow_route_19_duration_20250327_1920.0" depart="0.00" departLane="133126040#0_0" departPos="0.65" departSpeed="0.00" departDelay="0.00" arrival="46.00" arrivalLane="133126031#0_1" arrivalPos="163.43" arrivalSpeed="16.36" duration="46.00" routeLength="291.65" waitingTime="1.00" waitingCount="1" stopTime="0.00" timeLoss="27.44" rerouteNo="0" devices="tripinfo_flow_route_19_duration_20250327_1920.0" vType="car" speedFactor="1.08" vaporized=""/>
    <tripinfo id="flow_route_0_duration_20250327_1920.2" depart="14.00" departLane="1318793176#1_0" departPos="0.14" departSpeed="0.00" departDelay="13.76" arrival="46.00" arrivalLane="133126031#0_0" arrivalPos="188.31" arrivalSpeed="16.51" duration="32.00" routeLength="308.59" waitingTime="0.00" waitingCount="0" stopTime="0.00" timeLoss="11.48" rerouteNo="0" devices="tripinfo_flow_route_0_duration_20250327_1920.2" vType="car" speedFactor="0.94" vaporized=""/>
    <tripinfo id="flow_route_0_duration_20250327_1920.3" depart="21.00" departLane="1318793176#1_0" departPos="10.58" departSpeed="0.00" departDelay="20.64" arrival="46.00" arrivalLane="133126031#0_0" arrivalPos="87.96" arrivalSpeed="15.42" duration="25.00" routeLength="197.81" waitingTime="0.00" waitingCount="0" stopTime="0.00" timeLoss="10.68" rerouteNo="0" devices="tripinfo_flow_route_0_duration_20250327_1920.3" vType="car" speedFactor="0.86" vaporized=""/>
    <tripinfo id="flow_route_19_duration_20250327_1920.1" depart="3.00" departLane="133126040#0_0" departPos="19.83" departSpeed="0.00" departDelay="0.00" arrival="54.00" arrivalLane="133126031#0_1" arrivalPos="310.95" arrivalSpeed="16.38" duration="51.00" routeLength="419.99" waitingTime="3.00" waitingCount="1" stopTime="0.00" timeLoss="23.79" rerouteNo="0" devices="tripinfo_flow_route_19_duration_20250327_1920.1" vType="car" speedFactor="1.04" vaporized=""/>
    <tripinfo id="flow_route_19_duration_20250327_1920.11" depart="33.00" departLane="133126040#0_0" departPos="104.05" departSpeed="0.00" departDelay="0.00" arrival="54.00" arrivalLane="133126031#0_1" arrivalPos="104.29" arrivalSpeed="14.33" duration="21.00" routeLength="129.11" waitingTime="1.00" waitingCount="1" stopTime="0.00" timeLoss="11.78" rerouteNo="0" devices="tripinfo_flow_route_19_duration_20250327_1920.11" vType="car" speedFactor="1.16" vaporized=""/>
    <tripinfo id="flow_route_0_duration_20250327_1920.6" depart="32.00" departLane="1318793176#1_0" departPos="3.58" departSpeed="0.00" departDelay="31.29" arrival="57.00" arrivalLane="133126031#0_0" arrivalPos="107.07" arrivalSpeed="16.47" duration="25.00" routeLength="223.91" waitingTime="0.00" waitingCount="0" stopTime="0.00" timeLoss="10.43" rerouteNo="0" devices="tripinfo_flow_route_0_duration_20250327_1920.6" vType="car" speedFactor="1.05" vaporized=""/>
    <tripinfo id="flow_route_19_duration_20250327_1920.2" depart="6.00" departLane="133126040#0_0" departPos="10.98" departSpeed="0.00" departDelay="0.00" arrival="58.00" arrivalLane="133126031#0_1" arrivalPos="323.07" arrivalSpeed="16.19" duration="52.00" routeLength="440.96" waitingTime="0.00" waitingCount="0" stopTime="0.00" timeLoss="23.50" rerouteNo="0" devices="tripinfo_flow_route_19_duration_20250327_1920.2" vType="car" speedFactor="0.98" vaporized=""/>
    <tripinfo id="flow_route_19_duration_20250327_1920.10" depart="30.00" departLane="133126040#0_0" departPos="83.05" departSpeed="0.00" departDelay="0.00" arrival="60.00" arrivalLane="133126031#0_1" arrivalPos="123.86" arrivalSpeed="15.24" duration="30.00" routeLength="169.67" waitingTime="3.00" waitingCount="2" stopTime="0.00" timeLoss="18.44" rerouteNo="0" devices="tripinfo_flow_route_19_duration_20250327_1920.10" vType="car" speedFactor="1.05" vaporized=""/>
    <tripinfo id="flow_route_0_duration_20250327_1920.8" depart="42.00" departLane="1318793176#1_0" departPos="4.79" departSpeed="0.00" departDelay="41.05" arrival="61.00" arrivalLane="133126031#0_0" arrivalPos="15.36" arrivalSpeed="11.84" duration="19.00" routeLength="130.99" waitingTime="0.00" waitingCount="0" stopTime="0.00" timeLoss="10.37" rerouteNo="0" devices="tripinfo_flow_route_0_duration_20250327_1920.8" vType="car" speedFactor="0.99" vaporized=""/>
    <tripinfo id="flow_route_0_duration_20250327_1920.5" depart="28.00" departLane="1318793176#1_0" departPos="9.27" departSpeed="0.00" departDelay="27.41" arrival="64.00" arrivalLane="133126031#0_0" arrivalPos="291.18" arrivalSpeed="16.56" duration="36.00" routeLength="402.32" waitingTime="0.00" waitingCount="0" stopTime="0.00" timeLoss="11.12" rerouteNo="0" devices="tripinfo_flow_route_0_duration_20250327_1920.5" vType="car" speedFactor="1.03" vaporized=""/>
    <tripinfo id="flow_route_0_duration_20250327_1920.7" depart="37.00" departLane="1318793176#1_0" departPos="2.33" departSpeed="0.00" departDelay="36.17" arrival="69.00" arrivalLane="133126031#0_0" arrivalPos="227.33" arrivalSpeed="16.54" duration="32.00" routeLength="345.43" waitingTime="0.00" waitingCount="0" stopTime="0.00" timeLoss="10.40" rerouteNo="0" devices="tripinfo_flow_route_0_duration_20250327_1920.7" vType="car" speedFactor="1.12" vaporized=""/>
    <tripinfo id="flow_route_19_duration_20250327_1920.5" depart="15.00" departLane="133126040#0_0" departPos="36.92" departSpeed="0.00" departDelay="0.00" arrival="69.00" arrivalLane="133126031#0_1" arrivalPos="158.38" arrivalSpeed="16.40" duration="54.00" routeLength="250.32" waitingTime="6.00" waitingCount="3" stopTime="0.00" timeLoss="37.63" rerouteNo="0" devices="tripinfo_flow_route_19_duration_20250327_1920.5" vType="car" speedFactor="1.00" vaporized=""/>
    <tripinfo id="flow_route_19_duration_20250327_1920.7" depart="21.00" departLane="133126040#0_0" departPos="66.63" departSpeed="0.00" departDelay="0.00" arrival="70.00" arrivalLane="133126031#0_1" arrivalPos="322.85" arrivalSpeed="16.23" duration="49.00" routeLength="385.09" waitingTime="1.00" waitingCount="1" stopTime="0.00" timeLoss="24.33" rerouteNo="0" devices="tripinfo_flow_route_19_duration_20250327_1920.7" vType="car" speedFactor="0.96" vaporized=""/>
    <tripinfo id="flow_route_19_duration_20250327_1920.3" depart="9.00" departLane="133126040#0_0" departPos="12.37" departSpeed="0.00" departDelay="0.00" arrival="74.00" arrivalLane="133126031#0_1" arrivalPos="0.28" arrivalSpeed="6.50" duration="65.00" routeLength="116.79" waitingTime="9.00" waitingCount="3" stopTime="0.00" timeLoss="54.81" rerouteNo="0" devices="tripinfo_flow_route_19_duration_20250327_1920.3" vType="car" speedFactor="0.82" vaporized=""/>
    <tripinfo id="flow_route_19_duration_20250327_1920.14" depart="42.00" departLane="133126040#0_0" departPos="51.02" departSpeed="0.00" departDelay="0.00" arrival="77.00" arrivalLane="133126031#0_1" arrivalPos="206.23" arrivalSpeed="16.59" duration="35.00" routeLength="284.08" waitingTime="0.00" waitingCount="0" stopTime="0.00" timeLoss="16.06" rerouteNo="0" devices="tripinfo_flow_route_19_duration_20250327_1920.14" vType="car" speedFactor="0.95" vaporized=""/>
    <tripinfo id="flow_route_19_duration_20250327_1920.13" depart="39.00" departLane="133126040#0_0" departPos="93.44" departSpeed="0.00" departDelay="0.00" arrival="78.00" arrivalLane="133126031#0_0" arrivalPos="327.39" arrivalSpeed="16.59" duration="39.00" routeLength="362.82" waitingTime="1.00" waitingCount="1" stopTime="0.00" timeLoss="15.25" rerouteNo="0" devices="tripinfo_flow_route_19_duration_20250327_1920.13" vType="car" speedFactor="0.98" vaporized=""/>
    <tripinfo id="flow_route_19_duration_20250327_1920.9" depart="27.00" departLane="133126040#0_0" departPos="62.44" departSpeed="0.00" departDelay="0.00" arrival="81.00" arrivalLane="133126031#0_1" arrivalPos="212.84" arrivalSpeed="16.12" duration="54.00" routeLength="279.28" waitingTime="7.00" waitingCount="3" stopTime="0.00" timeLoss="34.79" rerouteNo="0" devices="tripinfo_flow_route_19_duration_20250327_1920.9" vType="car" speedFactor="0.84" vaporized=""/>
    <tripinfo id="flow_route_19_duration_20250327_1920.6" depart="18.00" departLane="133126040#0_0" departPos="37.74" departSpeed="0.00" departDelay="0.00" arrival="82.00" arrivalLane="133126031#0_0" arrivalPos="318.47" arrivalSpeed="16.59" duration="64.00" routeLength="409.60" waitingTime="3.00" waitingCount="2" stopTime="0.00" timeLoss="36.53" rerouteNo="0" devices="tripinfo_flow_route_19_duration_20250327_1920.6" vType="car" speedFactor="0.88" vaporized=""/>
    <tripinfo id="flow_route_19_duration_20250327_1920.17" depart="51.00" departLane="133126040#0_0" departPos="76.99" departSpeed="0.00" departDelay="0.00" arrival="83.00" arrivalLane="133126031#0_1" arrivalPos="131.56" arrivalSpeed="14.99" duration="32.00" routeLength="183.44" waitingTime="4.00" waitingCount="2" stopTime="0.00" timeLoss="19.38" rerouteNo="0" devices="tripinfo_flow_route_19_duration_20250327_1920.17" vType="car" speedFactor="0.99" vaporized=""/>
    <tripinfo id="flow_route_19_duration_20250327_1920.19" depart="57.00" departLane="133126040#0_0" departPos="95.73" departSpeed="0.00" departDelay="0.00" arrival="83.00" arrivalLane="133126031#0_1" arrivalPos="161.90" arrivalSpeed="16.22" duration="26.00" routeLength="195.05" waitingTime="0.00" waitingCount="0" stopTime="0.00" timeLoss="12.17" rerouteNo="0" devices="tripinfo_flow_route_19_duration_20250327_1920.19" vType="car" speedFactor="0.95" vaporized=""/>
    <tripinfo id="flow_route_48_duration_20250327_1920.0" depart="3.00" departLane="380351865#0_0" departPos="2.87" departSpeed="0.00" departDelay="3.00" arrival="84.00" arrivalLane="133126031#0_0" arrivalPos="14.50" arrivalSpeed="8.69" duration="81.00" routeLength="178.80" waitingTime="49.00" waitingCount="1" stopTime="0.00" timeLoss="63.23" rerouteNo="0" devices="tripinfo_flow_route_48_duration_20250327_1920.0" vType="car" speedFactor="0.83" vaporized=""/>
    <tripinfo id="flow_route_47_duration_20250327_1920.0" depart="0.00" departLane="380351865#0_0" departPos="11.49" departSpeed="0.00" departDelay="0.00" arrival="88.00" arrivalLane="1318793173#0_1" arrivalPos="63.76" arrivalSpeed="11.81" duration="88.00" routeLength="213.71" waitingTime="54.00" waitingCount="1" stopTime="0.00" timeLoss="71.34" rerouteNo="0" devices="tripinfo_flow_route_47_duration_20250327_1920.0" vType="car" speedFactor="1.03" vaporized=""/>
    <tripinfo id="flow_route_0_duration_20250327_1920.9" depart="58.00" departLane="1318793176#1_0" departPos="0.58" departSpeed="0.00" departDelay="56.93" arrival="89.00" arrivalLane="133126031#0_0" arrivalPos="131.88" arrivalSpeed="16.23" duration="31.00" routeLength="251.72" waitingTime="0.00" waitingCount="0" stopTime="0.00" timeLoss="14.71" rerouteNo="0" devices="tripinfo_flow_route_0_duration_20250327_1920.9" vType="car" speedFactor="1.16" vaporized=""/>
    <tripinfo id="flow_route_48_duration_20250327_1920.2" depart="18.00" departLane="380351865#0_0" departPos="1.34" departSpeed="0.00" departDelay="16.54" arrival="93.00" arrivalLane="133126031#0_0" arrivalPos="43.02" arrivalSpeed="9.34" duration="75.00" routeLength="208.86" waitingTime="38.00" waitingCount="1" stopTime="0.00" timeLoss="60.11" rerouteNo="0" devices="tripinfo_flow_route_48_duration_20250327_1920.2" vType="car" speedFactor="1.18" vaporized=""/>
    <tripinfo id="flow_route_49_duration_20250327_1920.0" depart="9.00" departLane="380351865#0_0" departPos="0.20" departSpeed="0.00" departDelay="9.00" arrival="95.00" arrivalLane="1318893695#0_0" arrivalPos="148.83" arrivalSpeed="15.76" duration="86.00" routeLength="292.51" waitingTime="46.00" waitingCount="1" stopTime="0.00" timeLoss="63.67" rerouteNo="0" devices="tripinfo_flow_route_49_duration_20250327_1920.0" vType="car" speedFactor="1.05" vaporized=""/>
    <tripinfo id="flow_route_47_duration_20250327_1920.1" depart="24.00" departLane="380351865#0_0" departPos="4.21" departSpeed="0.00" departDelay="21.69" arrival="95.00" arrivalLane="1318793173#0_1" arrivalPos="103.74" arrivalSpeed="15.05" duration="71.00" routeLength="260.97" waitingTime="32.00" waitingCount="1" stopTime="0.00" timeLoss="51.39" rerouteNo="0" devices="tripinfo_flow_route_47_duration_20250327_1920.1" vType="car" speedFactor="1.04" vaporized=""/>
    <tripinfo id="flow_route_48_duration_20250327_1920.5" depart="37.00" departLane="380351865#0_0" departPos="7.01" departSpeed="0.00" departDelay="33.35" arrival="95.00" arrivalLane="133126031#0_0" arrivalPos="28.61" arrivalSpeed="9.11" duration="58.00" routeLength="188.77" waitingTime="23.00" waitingCount="1" stopTime="0.00" timeLoss="43.14" rerouteNo="0" devices="tripinfo_flow_route_48_duration_20250327_1920.5" vType="car" speedFactor="1.02" vaporized=""/>
    <tripinfo id="flow_route_47_duration_20250327_1920.2" depart="46.00" departLane="380351865#0_0" departPos="13.53" departSpeed="0.00" departDelay="41.39" arrival="95.00" arrivalLane="1318793173#0_1" arrivalPos="45.08" arrivalSpeed="13.02" duration="49.00" routeLength="193.00" waitingTime="14.00" waitingCount="1" stopTime="0.00" timeLoss="31.87" rerouteNo="0" devices="tripinfo_flow_route_47_duration_20250327_1920.2" vType="car" speedFactor="0.94" vaporized=""/>
    <tripinfo id="flow_route_48_duration_20250327_1920.3" depart="30.00" departLane="380351865#0_0" departPos="0.21" departSpeed="0.00" departDelay="27.81" arrival="97.00" arrivalLane="133126031#0_1" arrivalPos="102.35" arrivalSpeed="14.67" duration="67.00" routeLength="269.31" waitingTime="27.00" waitingCount="1" stopTime="0.00" timeLoss="47.67" rerouteNo="0" devices="tripinfo_flow_route_48_duration_20250327_1920.3" vType="car" speedFactor="1.09" vaporized=""/>
    <tripinfo id="flow_route_47_duration_20250327_1920.3" depart="57.00" departLane="380351865#0_0" departPos="0.77" departSpeed="0.00" departDelay="50.08" arrival="98.00" arrivalLane="1318793173#0_1" arrivalPos="4.60" arrivalSpeed="11.04" duration="41.00" routeLength="165.27" waitingTime="5.00" waitingCount="1" stopTime="0.00" timeLoss="27.53" rerouteNo="0" devices="tripinfo_flow_route_47_duration_20250327_1920.3" vType="car" speedFactor="1.10" vaporized=""/>
    <tripinfo id="flow_route_0_duration_20250327_1920.10" depart="63.00" departLane="1318793176#1_0" departPos="2.94" departSpeed="0.00" departDelay="61.81" arrival="101.00" arrivalLane="133126031#0_0" arrivalPos="181.01" arrivalSpeed="16.13" duration="38.00" routeLength="298.49" waitingTime="0.00" waitingCount="0" stopTime="0.00" timeLoss="19.48" rerouteNo="0" devices="tripinfo_flow_route_0_duration_20250327_1920.10" vType="car" speedFactor="1.02" vaporized=""/>
    <tripinfo id="flow_route_48_duration_20250327_1920.6" depart="46.00" departLane="380351865#0_0" departPos="5.02" departSpeed="0.00" departDelay="41.61" arrival="102.00" arrivalLane="133126031#0_1" arrivalPos="121.44" arrivalSpeed="16.33" duration="56.00" routeLength="283.59" waitingTime="13.00" waitingCount="1" stopTime="0.00" timeLoss="35.21" rerouteNo="0" devices="tripinfo_flow_route_48_duration_20250327_1920.6" vType="car" speedFactor="1.06" vaporized=""/>
    <tripinfo id="flow_route_49_duration_20250327_1920.1" depart="39.00" departLane="380351865#0_0" departPos="1.03" departSpeed="0.00" departDelay="35.84" arrival="103.00" arrivalLane="1318893695#0_0" arrivalPos="113.57" arrivalSpeed="13.81" duration="64.00" routeLength="256.42" waitingTime="21.00" waitingCount="1" stopTime="0.00" timeLoss="43.32" rerouteNo="0" devices="tripinfo_flow_route_49_duration_20250327_1920.1" vType="car" speedFactor="0.97" vaporized=""/>
    <tripinfo id="flow_route_48_duration_20250327_1920.7" depart="51.00" departLane="380351865#0_0" departPos="0.30" departSpeed="0.00" departDelay="45.88" arrival="103.00" arrivalLane="133126031#0_1" arrivalPos="98.54" arrivalSpeed="16.30" duration="52.00" routeLength="265.41" waitingTime="8.00" waitingCount="1" stopTime="0.00" timeLoss="31.80" rerouteNo="0" devices="tripinfo_flow_route_48_duration_20250327_1920.7" vType="car" speedFactor="1.00" vaporized=""/>
    <tripinfo id="flow_route_48_duration_20250327_1920.4" depart="30.00" departLane="380351865#0_0" departPos="12.02" departSpeed="0.00" departDelay="27.08" arrival="104.00" arrivalLane="133126031#0_0" arrivalPos="163.80" arrivalSpeed="16.19" duration="74.00" routeLength="318.96" waitingTime="29.00" waitingCount="1" stopTime="0.00" timeLoss="50.48" rerouteNo="0" devices="tripinfo_flow_route_48_duration_20250327_1920.4" vType="car" speedFactor="1.00" vaporized=""/>
    <tripinfo id="flow_route_0_duration_20250327_1920.11" depart="68.00" departLane="1318793176#1_0" departPos="5.10" departSpeed="0.00" departDelay="66.69" arrival="106.00" arrivalLane="133126031#0_0" arrivalPos="78.72" arrivalSpeed="11.90" duration="38.00" routeLength="194.04" waitingTime="4.00" waitingCount="1" stopTime="0.00" timeLoss="25.89" rerouteNo="0" devices="tripinfo_flow_route_0_duration_20250327_1920.11" vType="car" speedFactor="1.01" vaporized=""/>
    <tripinfo id="flow_route_47_duration_20250327_1920.4" depart="81.00" departLane="380351865#0_0" departPos="3.48" departSpeed="0.00" departDelay="71.77" arrival="106.00" arrivalLane="1318793173#0_1" arrivalPos="48.26" arrivalSpeed="14.76" duration="25.00" routeLength="206.22" waitingTime="0.00" waitingCount="0" stopTime="0.00" timeLoss="7.30" rerouteNo="0" devices="tripinfo_flow_route_47_duration_20250327_1920.4" vType="car" speedFactor="0.94" vaporized=""/>
    <tripinfo id="flow_route_48_duration_20250327_1920.1" depart="15.00" departLane="380351865#0_0" departPos="8.18" departSpeed="0.00" departDelay="14.27" arrival="107.00" arrivalLane="133126031#0_0" arrivalPos="312.28" arrivalSpeed="16.30" duration="92.00" routeLength="471.27" waitingTime="39.00" waitingCount="1" stopTime="0.00" timeLoss="58.19" rerouteNo="0" devices="tripinfo_flow_route_48_duration_20250327_1920.1" vType="car" speedFactor="0.94" vaporized=""/>
    <tripinfo id="flow_route_48_duration_20250327_1920.8" depart="54.00" departLane="380351865#0_0" departPos="13.78" departSpeed="0.00" departDelay="48.15" arrival="112.00" arrivalLane="133126031#0_0" arrivalPos="136.70" arrivalSpeed="15.05" duration="58.00" routeLength="290.10" waitingTime="9.00" waitingCount="1" stopTime="0.00" timeLoss="37.39" rerouteNo="0" devices="tripinfo_flow_route_48_duration_20250327_1920.8" vType="car" speedFactor="1.04" vaporized=""/>
    <tripinfo id="flow_route_0_duration_20250327_1920.12" depart="71.00" departLane="1318793176#1_0" departPos="0.64" departSpeed="0.00" departDelay="69.57" arrival="113.00" arrivalLane="133126031#0_0" arrivalPos="10.78" arrivalSpeed="6.97" duration="42.00" routeLength="130.56" waitingTime="10.00" waitingCount="3" stopTime="0.00" timeLoss="33.41" rerouteNo="0" devices="tripinfo_flow_route_0_duration_20250327_1920.12" vType="car" speedFactor="0.97" vaporized=""/>
    <tripinfo id="flow_route_48_duration_20250327_1920.10" depart="66.00" departLane="380351865#0_0" departPos="9.53" departSpeed="0.00" departDelay="58.69" arrival="113.00" arrivalLane="133126031#0_1" arrivalPos="213.21" arrivalSpeed="16.26" duration="47.00" routeLength="370.84" waitingTime="0.00" waitingCount="0" stopTime="0.00" timeLoss="19.79" rerouteNo="0" devices="tripinfo_flow_route_48_duration_20250327_1920.10" vType="car" speedFactor="0.92" vaporized=""/>
    <tripinfo id="flow_route_48_duration_20250327_1920.13" depart="85.00" departLane="380351865#0_0" departPos="0.01" departSpeed="0.00" departDelay="75.50" arrival="113.00" arrivalLane="133126031#0_1" arrivalPos="107.56" arrivalSpeed="16.45" duration="28.00" routeLength="274.72" waitingTime="0.00" waitingCount="0" stopTime="0.00" timeLoss="8.79" rerouteNo="0" devices="tripinfo_flow_route_48_duration_20250327_1920.13" vType="car" speedFactor="1.13" vaporized=""/>
    <tripinfo id="flow_route_48_duration_20250327_1920.9" depart="58.00" departLane="380351865#0_0" departPos="10.59" departSpeed="0.00" departDelay="51.42" arrival="114.00" arrivalLane="133126031#0_0" arrivalPos="129.91" arrivalSpeed="15.85" duration="56.00" routeLength="286.49" waitingTime="8.00" waitingCount="1" stopTime="0.00" timeLoss="34.91" rerouteNo="0" devices="tripinfo_flow_route_48_duration_20250327_1920.9" vType="car" speedFactor="1.06" vaporized=""/>
    <tripinfo id="flow_route_49_duration_20250327_1920.2" depart="59.00" departLane="380351865#0_0" departPos="3.02" departSpeed="0.00" departDelay="52.69" arrival="114.00" arrivalLane="1318893695#0_0" arrivalPos="135.23" arrivalSpeed="15.23" duration="55.00" routeLength="276.08" waitingTime="7.00" waitingCount="1" stopTime="0.00" timeLoss="31.86" rerouteNo="0" devices="tripinfo_flow_route_49_duration_20250327_1920.2" vType="car" speedFactor="0.96" vaporized=""/>
    <tripinfo id="flow_route_48_duration_20250327_1920.12" depart="77.00" departLane="380351865#0_0" departPos="6.80" departSpeed="0.00" departDelay="68.23" arrival="121.00" arrivalLane="133126031#0_1" arrivalPos="305.49" arrivalSpeed="16.27" duration="44.00" routeLength="465.86" waitingTime="0.00" waitingCount="0" stopTime="0.00" timeLoss="11.62" rerouteNo="0" devices="tripinfo_flow_route_48_duration_20250327_1920.12" vType="car" speedFactor="1.01" vaporized=""/>
    <tripinfo id="flow_route_1_duration_20250327_1920.4" depart="95.00" departLane="1318793176#1_0" departPos="5.36" departSpeed="0.00" departDelay="93.72" arrival="122.00" arrivalLane="1318793173#0_2" arrivalPos="3.22" arrivalSpeed="6.88" duration="27.00" routeLength="121.76" waitingTime="0.00" waitingCount="0" stopTime="0.00" timeLoss="19.01" rerouteNo="0" devices="tripinfo_flow_route_1_duration_20250327_1920.4" vType="car" speedFactor="0.95" vaporized=""/>
    <tripinfo id="flow_route_48_duration_20250327_1920.11" depart="71.00" departLane="380351865#0_0" departPos="4.15" departSpeed="0.00" departDelay="62.96" arrival="122.00" arrivalLane="133126031#0_0" arrivalPos="219.03" arrivalSpeed="16.36" duration="51.00" routeLength="382.05" waitingTime="0.00" waitingCount="0" stopTime="0.00" timeLoss="25.36" rerouteNo="0" devices="tripinfo_flow_route_48_duration_20250327_1920.11" vType="car" speedFactor="1.12" vaporized=""/>
    <tripinfo id="flow_route_1_duration_20250327_1920.2" depart="49.00" departLane="1318793176#1_0" departPos="0.04" departSpeed="0.00" departDelay="48.36" arrival="124.00" arrivalLane="1318793173#0_2" arrivalPos="33.18" arrivalSpeed="9.05" duration="75.00" routeLength="157.04" waitingTime="43.00" waitingCount="1" stopTime="0.00" timeLoss="63.71" rerouteNo="0" devices="tripinfo_flow_route_1_duration_20250327_1920.2" vType="car" speedFactor="0.88" vaporized=""/>
    <tripinfo id="flow_route_0_duration_20250327_1920.13" depart="77.00" departLane="1318793176#1_0" departPos="6.84" departSpeed="0.00" departDelay="75.45" arrival="124.00" arrivalLane="133126031#0_0" arrivalPos="100.35" arrivalSpeed="14.06" duration="47.00" routeLength="213.93" waitingTime="6.00" waitingCount="2" stopTime="0.00" timeLoss="32.09" rerouteNo="0" devices="tripinfo_flow_route_0_duration_20250327_1920.13" vType="car" speedFactor="0.89" vaporized=""/>
    <tripinfo id="flow_route_49_duration_20250327_1920.3" depart="85.00" departLane="380351865#0_0" departPos="15.03" departSpeed="0.00" departDelay="75.53" arrival="124.00" arrivalLane="1318893695#0_0" arrivalPos="144.80" arrivalSpeed="11.74" duration="39.00" routeLength="273.65" waitingTime="0.00" waitingCount="0" stopTime="0.00" timeLoss="9.41" rerouteNo="0" devices="tripinfo_flow_route_49_duration_20250327_1920.3" vType="car" speedFactor="0.73" vaporized=""/>
    <tripinfo id="flow_route_1_duration_20250327_1920.1" depart="47.00" departLane="1318793176#1_0" departPos="5.48" departSpeed="0.00" departDelay="46.68" arrival="125.00" arrivalLane="1318793173#0_1" arrivalPos="55.44" arrivalSpeed="10.59" duration="78.00" routeLength="173.85" waitingTime="47.00" waitingCount="1" stopTime="0.00" timeLoss="66.65" rerouteNo="0" devices="tripinfo_flow_route_1_duration_20250327_1920.1" vType="car" speedFactor="0.93" vaporized=""/>
    <tripinfo id="flow_route_0_duration_20250327_1920.15" depart="84.00" departLane="1318793176#1_0" departPos="1.10" departSpeed="0.00" departDelay="82.22" arrival="125.00" arrivalLane="133126031#0_0" arrivalPos="52.91" arrivalSpeed="12.32" duration="41.00" routeLength="172.23" waitingTime="4.00" waitingCount="2" stopTime="0.00" timeLoss="28.68" rerouteNo="0" devices="tripinfo_flow_route_0_duration_20250327_1920.15" vType="car" speedFactor="0.87" vaporized=""/>
    <tripinfo id="flow_route_1_duration_20250327_1920.6" depart="103.00" departLane="1318793176#1_0" departPos="7.35" departSpeed="0.00" departDelay="101.08" arrival="127.00" arrivalLane="1318793173#0_2" arrivalPos="35.80" arrivalSpeed="10.23" duration="24.00" routeLength="152.35" waitingTime="0.00" waitingCount="0" stopTime="0.00" timeLoss="14.13" rerouteNo="0" devices="tripinfo_flow_route_1_duration_20250327_1920.6" vType="car" speedFactor="0.93" vaporized=""/>
    <tripinfo id="flow_route_1_duration_20250327_1920.3" depart="55.00" departLane="1318793176#1_0" departPos="6.03" departSpeed="0.00" departDelay="54.04" arrival="129.00" arrivalLane="1318793173#0_1" arrivalPos="68.46" arrivalSpeed="12.47" duration="74.00" routeLength="186.33" waitingTime="40.00" waitingCount="1" stopTime="0.00" timeLoss="61.61" rerouteNo="0" devices="tripinfo_flow_route_1_duration_20250327_1920.3" vType="car" speedFactor="0.94" vaporized=""/>
    <tripinfo id="flow_route_1_duration_20250327_1920.5" depart="100.00" departLane="1318793176#1_0" departPos="6.57" departSpeed="0.00" departDelay="98.40" arrival="131.00" arrivalLane="1318793173#0_1" arrivalPos="74.04" arrivalSpeed="13.03" duration="31.00" routeLength="191.37" waitingTime="0.00" waitingCount="0" stopTime="0.00" timeLoss="19.07" rerouteNo="0" devices="tripinfo_flow_route_1_duration_20250327_1920.5" vType="car" speedFactor="1.13" vaporized=""/>
    <tripinfo id="flow_route_0_duration_20250327_1920.18" depart="110.00" departLane="1318793176#1_0" departPos="2.52" departSpeed="0.00" departDelay="107.86" arrival="135.00" arrivalLane="133126031#0_0" arrivalPos="87.82" arrivalSpeed="15.99" duration="25.00" routeLength="205.72" waitingTime="0.00" waitingCount="0" stopTime="0.00" timeLoss="11.56" rerouteNo="0" devices="tripinfo_flow_route_0_duration_20250327_1920.18" vType="car" speedFactor="1.01" vaporized=""/>