<?xml version="1.0" encoding="UTF-8"?>

<!-- generated on 2025-05-06 21:09:17 by Eclipse SUMO sumo Version 1.20.0
<configuration xmlns:xsi="http://www.w3.org/2001/XMLSchema-instance" xsi:noNamespaceSchemaLocation="http://sumo.dlr.de/xsd/sumoConfiguration.xsd">

    <input>
        <net-file value="osm.net.xml"/>
        <route-files value="xml/route_static_cluster_2271368471_4779869278_9.rou.xml"/>
    </input>

    <output>
        <tripinfo-output value="xml/tripinfo_static_cluster_2271368471_4779869278_9.xml"/>
    </output>

    <traci_server>
        <remote-port value="47431"/>
    </traci_server>

</configuration>
-->

<tripinfos xmlns:xsi="http://www.w3.org/2001/XMLSchema-instance" xsi:noNamespaceSchemaLocation="http://sumo.dlr.de/xsd/tripinfo_file.xsd">
    <tripinfo id="flow_route_36_duration_20250327_2000.0" depart="0.00" departLane="485211947#0_0" departPos="162.24" departSpeed="0.00" departDelay="0.00" arrival="23.00" arrivalLane="137415945#0_0" arrivalPos="6.94" arrivalSpeed="15.19" duration="23.00" routeLength="189.23" waitingTime="0.00" waitingCount="0" stopTime="0.00" timeLoss="10.30" rerouteNo="0" devices="tripinfo_flow_route_36_duration_20250327_2000.0" vType="car" speedFactor="0.94" vaporized=""/>
    <tripinfo id="flow_route_35_duration_20250327_2000.1" depart="3.00" departLane="485211947#0_0" departPos="152.74" departSpeed="0.00" departDelay="0.00" arrival="29.00" arrivalLane="1369578054_0" arrivalPos="189.81" arrivalSpeed="16.16" duration="26.00" routeLength="234.54" waitingTime="0.00" waitingCount="0" stopTime="0.00" timeLoss="10.90" rerouteNo="0" devices="tripinfo_flow_route_35_duration_20250327_2000.1" vType="car" speedFactor="1.03" vaporized=""/>
    <tripinfo id="flow_route_37_duration_20250327_2000.2" depart="10.00" departLane="485211947#0_0" departPos="118.89" departSpeed="0.00" departDelay="2.50" arrival="30.00" arrivalLane="-430406005#1_1" arrivalPos="29.99" arrivalSpeed="11.45" duration="20.00" routeLength="124.09" waitingTime="0.00" waitingCount="0" stopTime="0.00" timeLoss="11.36" rerouteNo="0" devices="tripinfo_flow_route_37_duration_20250327_2000.2" vType="car" speedFactor="1.02" vaporized=""/>
    <tripinfo id="flow_route_37_duration_20250327_2000.0" depart="0.00" departLane="485211947#0_0" departPos="59.66" departSpeed="0.00" departDelay="0.00" arrival="33.00" arrivalLane="-430406005#1_1" arrivalPos="133.07" arrivalSpeed="16.28" duration="33.00" routeLength="286.39" waitingTime="0.00" waitingCount="0" stopTime="0.00" timeLoss="12.94" rerouteNo="0" devices="tripinfo_flow_route_37_duration_20250327_2000.0" vType="car" speedFactor="0.86" vaporized=""/>
    <tripinfo id="flow_route_36_duration_20250327_2000.1" depart="4.00" departLane="485211947#0_0" departPos="43.86" departSpeed="0.00" departDelay="0.25" arrival="34.00" arrivalLane="137415945#0_1" arrivalPos="11.30" arrivalSpeed="16.23" duration="30.00" routeLength="311.97" waitingTime="0.00" waitingCount="0" stopTime="0.00" timeLoss="11.19" rerouteNo="0" devices="tripinfo_flow_route_36_duration_20250327_2000.1" vType="car" speedFactor="1.05" vaporized=""/>
    <tripinfo id="flow_route_35_duration_20250327_2000.0" depart="0.00" departLane="485211947#0_0" departPos="11.17" departSpeed="0.00" departDelay="0.00" arrival="36.00" arrivalLane="1369578054_0" arrivalPos="74.16" arrivalSpeed="12.92" duration="36.00" routeLength="260.46" waitingTime="0.00" waitingCount="0" stopTime="0.00" timeLoss="16.53" rerouteNo="0" devices="tripinfo_flow_route_35_duration_20250327_2000.0" vType="car" speedFactor="0.89" vaporized=""/>
    <tripinfo id="flow_route_36_duration_20250327_2000.3" depart="15.00" departLane="485211947#0_0" departPos="181.00" departSpeed="0.00" departDelay="3.75" arrival="36.00" arrivalLane="137415945#0_0" arrivalPos="12.63" arrivalSpeed="15.52" duration="21.00" routeLength="176.17" waitingTime="0.00" waitingCount="0" stopTime="0.00" timeLoss="9.31" rerouteNo="0" devices="tripinfo_flow_route_36_duration_20250327_2000.3" vType="car" speedFactor="0.93" vaporized=""/>
    <tripinfo id="flow_route_37_duration_20250327_2000.1" depart="4.00" departLane="485211947#0_0" departPos="6.01" departSpeed="0.00" departDelay="0.25" arrival="37.00" arrivalLane="-430406005#1_1" arrivalPos="70.82" arrivalSpeed="13.53" duration="33.00" routeLength="277.80" waitingTime="0.00" waitingCount="0" stopTime="0.00" timeLoss="15.12" rerouteNo="0" devices="tripinfo_flow_route_37_duration_20250327_2000.1" vType="car" speedFactor="1.12" vaporized=""/>
    <tripinfo id="flow_route_35_duration_20250327_2000.2" depart="9.00" departLane="485211947#0_0" departPos="128.15" departSpeed="0.00" departDelay="3.00" arrival="40.00" arrivalLane="1369578054_0" arrivalPos="205.27" arrivalSpeed="15.58" duration="31.00" routeLength="274.59" waitingTime="0.00" waitingCount="0" stopTime="0.00" timeLoss="11.72" rerouteNo="0" devices="tripinfo_flow_route_35_duration_20250327_2000.2" vType="car" speedFactor="0.94" vaporized=""/>
    <tripinfo id="flow_route_36_duration_20250327_2000.2" depart="10.00" departLane="485211947#0_0" departPos="33.97" departSpeed="0.00" departDelay="2.50" arrival="40.00" arrivalLane="137415945#0_1" arrivalPos="2.84" arrivalSpeed="16.16" duration="30.00" routeLength="313.40" waitingTime="0.00" waitingCount="0" stopTime="0.00" timeLoss="10.56" rerouteNo="0" devices="tripinfo_flow_route_36_duration_20250327_2000.2" vType="car" speedFactor="1.16" vaporized=""/>
    <tripinfo id="flow_route_37_duration_20250327_2000.3" depart="15.00" departLane="485211947#0_0" departPos="4.42" departSpeed="0.00" departDelay="3.75" arrival="44.00" arrivalLane="-430406005#1_1" arrivalPos="56.05" arrivalSpeed="13.83" duration="29.00" routeLength="264.61" waitingTime="0.00" waitingCount="0" stopTime="0.00" timeLoss="12.39" rerouteNo="0" devices="tripinfo_flow_route_37_duration_20250327_2000.3" vType="car" speedFactor="1.18" vaporized=""/>
    <tripinfo id="flow_route_36_duration_20250327_2000.5" depart="24.00" departLane="485211947#0_0" departPos="118.79" departSpeed="0.00" departDelay="5.25" arrival="49.00" arrivalLane="137415945#0_1" arrivalPos="4.36" arrivalSpeed="16.51" duration="25.00" routeLength="230.10" waitingTime="0.00" waitingCount="0" stopTime="0.00" timeLoss="10.48" rerouteNo="0" devices="tripinfo_flow_route_36_duration_20250327_2000.5" vType="car" speedFactor="1.04" vaporized=""/>
    <tripinfo id="flow_route_35_duration_20250327_2000.5" depart="21.00" departLane="485211947#0_0" departPos="125.13" departSpeed="0.00" departDelay="6.00" arrival="50.00" arrivalLane="1369578054_0" arrivalPos="153.66" arrivalSpeed="16.05" duration="29.00" routeLength="225.99" waitingTime="0.00" waitingCount="0" stopTime="0.00" timeLoss="13.15" rerouteNo="0" devices="tripinfo_flow_route_35_duration_20250327_2000.5" vType="car" speedFactor="0.97" vaporized=""/>
    <tripinfo id="flow_route_36_duration_20250327_2000.4" depart="23.00" departLane="485211947#0_0" departPos="51.38" departSpeed="0.00" departDelay="8.00" arrival="53.00" arrivalLane="137415945#0_1" arrivalPos="10.51" arrivalSpeed="16.38" duration="30.00" routeLength="303.66" waitingTime="0.00" waitingCount="0" stopTime="0.00" timeLoss="11.30" rerouteNo="0" devices="tripinfo_flow_route_36_duration_20250327_2000.4" vType="car" speedFactor="1.18" vaporized=""/>
    <tripinfo id="flow_route_35_duration_20250327_2000.6" depart="24.00" departLane="485211947#0_0" departPos="158.71" departSpeed="0.00" departDelay="6.00" arrival="53.00" arrivalLane="1369578054_0" arrivalPos="261.83" arrivalSpeed="16.56" duration="29.00" routeLength="300.58" waitingTime="0.00" waitingCount="0" stopTime="0.00" timeLoss="10.07" rerouteNo="0" devices="tripinfo_flow_route_35_duration_20250327_2000.6" vType="car" speedFactor="1.09" vaporized=""/>
    <tripinfo id="flow_route_30_duration_20250327_2000.0" depart="0.00" departLane="1235147073.116_0" departPos="7.14" departSpeed="0.00" departDelay="0.00" arrival="56.00" arrivalLane="133126030#0_0" arrivalPos="8.43" arrivalSpeed="7.29" duration="56.00" routeLength="175.81" waitingTime="25.00" waitingCount="1" stopTime="0.00" timeLoss="45.10" rerouteNo="0" devices="tripinfo_flow_route_30_duration_20250327_2000.0" vType="car" speedFactor="1.01" vaporized=""/>
    <tripinfo id="flow_route_30_duration_20250327_2000.1" depart="30.00" departLane="1235147073.116_0" departPos="5.61" departSpeed="0.00" departDelay="15.00" arrival="56.00" arrivalLane="133126030#0_1" arrivalPos="78.42" arrivalSpeed="16.15" duration="26.00" routeLength="247.33" waitingTime="0.00" waitingCount="0" stopTime="0.00" timeLoss="10.60" rerouteNo="0" devices="tripinfo_flow_route_30_duration_20250327_2000.1" vType="car" speedFactor="1.17" vaporized=""/>
    <tripinfo id="flow_route_35_duration_20250327_2000.8" depart="33.00" departLane="485211947#0_0" departPos="157.64" departSpeed="0.00" departDelay="9.00" arrival="57.00" arrivalLane="1369578054_0" arrivalPos="177.59" arrivalSpeed="16.26" duration="24.00" routeLength="217.41" waitingTime="0.00" waitingCount="0" stopTime="0.00" timeLoss="9.58" rerouteNo="0" devices="tripinfo_flow_route_35_duration_20250327_2000.8" vType="car" speedFactor="1.10" vaporized=""/>
    <tripinfo id="flow_route_31_duration_20250327_2000.0" depart="2.00" departLane="1235147073.116_0" departPos="0.71" departSpeed="0.00" departDelay="2.00" arrival="64.00" arrivalLane="-430406005#1_0" arrivalPos="87.77" arrivalSpeed="12.45" duration="62.00" routeLength="250.02" waitingTime="25.00" waitingCount="1" stopTime="0.00" timeLoss="46.07" rerouteNo="0" devices="tripinfo_flow_route_31_duration_20250327_2000.0" vType="car" speedFactor="1.08" vaporized=""/>
    <tripinfo id="flow_route_32_duration_20250327_2000.1" depart="11.00" departLane="1235147073.116_0" departPos="4.27" departSpeed="0.00" departDelay="8.50" arrival="66.00" arrivalLane="1369578054_1" arrivalPos="92.01" arrivalSpeed="13.92" duration="55.00" routeLength="267.47" waitingTime="15.00" waitingCount="1" stopTime="0.00" timeLoss="37.98" rerouteNo="0" devices="tripinfo_flow_route_32_duration_20250327_2000.1" vType="car" speedFactor="1.09" vaporized=""/>
    <tripinfo id="flow_route_32_duration_20250327_2000.2" depart="19.00" departLane="1235147073.116_0" departPos="1.55" departSpeed="0.00" departDelay="14.00" arrival="66.00" arrivalLane="1369578054_1" arrivalPos="47.67" arrivalSpeed="12.07" duration="47.00" routeLength="225.85" waitingTime="5.00" waitingCount="1" stopTime="0.00" timeLoss="30.26" rerouteNo="0" devices="tripinfo_flow_route_32_duration_20250327_2000.2" vType="car" speedFactor="0.88" vaporized=""/>
    <tripinfo id="flow_route_32_duration_20250327_2000.3" depart="20.00" departLane="1235147073.116_0" departPos="10.92" departSpeed="0.00" departDelay="12.50" arrival="67.00" arrivalLane="1369578054_1" arrivalPos="79.13" arrivalSpeed="13.18" duration="47.00" routeLength="247.94" waitingTime="8.00" waitingCount="1" stopTime="0.00" timeLoss="29.79" rerouteNo="0" devices="tripinfo_flow_route_32_duration_20250327_2000.3" vType="car" speedFactor="0.94" vaporized=""/>
    <tripinfo id="flow_route_32_duration_20250327_2000.0" depart="9.00" departLane="1235147073.116_0" departPos="10.96" departSpeed="0.00" departDelay="9.00" arrival="69.00" arrivalLane="1369578054_1" arrivalPos="176.77" arrivalSpeed="16.23" duration="60.00" routeLength="345.55" waitingTime="16.00" waitingCount="1" stopTime="0.00" timeLoss="38.41" rerouteNo="0" devices="tripinfo_flow_route_32_duration_20250327_2000.0" vType="car" speedFactor="1.03" vaporized=""/>
    <tripinfo id="flow_route_31_duration_20250327_2000.1" depart="15.00" departLane="1235147073.116_0" departPos="6.39" departSpeed="0.00" departDelay="10.00" arrival="69.00" arrivalLane="-430406005#1_0" arrivalPos="136.53" arrivalSpeed="15.52" duration="54.00" routeLength="293.11" waitingTime="14.00" waitingCount="1" stopTime="0.00" timeLoss="34.74" rerouteNo="0" devices="tripinfo_flow_route_31_duration_20250327_2000.1" vType="car" speedFactor="0.93" vaporized=""/>
    <tripinfo id="flow_route_31_duration_20250327_2000.2" depart="21.00" departLane="1235147073.116_0" departPos="0.65" departSpeed="0.00" departDelay="11.00" arrival="69.00" arrivalLane="-430406005#1_0" arrivalPos="103.59" arrivalSpeed="14.27" duration="48.00" routeLength="265.90" waitingTime="6.00" waitingCount="1" stopTime="0.00" timeLoss="29.40" rerouteNo="0" devices="tripinfo_flow_route_31_duration_20250327_2000.2" vType="car" speedFactor="0.87" vaporized=""/>
    <tripinfo id="flow_route_32_duration_20250327_2000.5" depart="28.00" departLane="1235147073.116_0" departPos="15.26" departSpeed="0.00" departDelay="15.50" arrival="69.00" arrivalLane="1369578054_1" arrivalPos="54.13" arrivalSpeed="12.52" duration="41.00" routeLength="218.60" waitingTime="3.00" waitingCount="1" stopTime="0.00" timeLoss="27.29" rerouteNo="0" devices="tripinfo_flow_route_32_duration_20250327_2000.5" vType="car" speedFactor="1.15" vaporized=""/>
    <tripinfo id="flow_route_32_duration_20250327_2000.4" depart="27.00" departLane="1235147073.116_0" departPos="6.31" departSpeed="0.00" departDelay="17.00" arrival="71.00" arrivalLane="1369578054_1" arrivalPos="50.46" arrivalSpeed="12.74" duration="44.00" routeLength="223.88" waitingTime="1.00" waitingCount="1" stopTime="0.00" timeLoss="27.89" rerouteNo="0" devices="tripinfo_flow_route_32_duration_20250327_2000.4" vType="car" speedFactor="0.92" vaporized=""/>
    <tripinfo id="flow_route_31_duration_20250327_2000.3" depart="35.00" departLane="1235147073.116_0" departPos="8.72" departSpeed="0.00" departDelay="20.00" arrival="71.00" arrivalLane="-430406005#1_0" arrivalPos="109.85" arrivalSpeed="14.97" duration="36.00" routeLength="264.09" waitingTime="0.00" waitingCount="0" stopTime="0.00" timeLoss="19.14" rerouteNo="0" devices="tripinfo_flow_route_31_duration_20250327_2000.3" vType="car" speedFactor="0.99" vaporized=""/>
    <tripinfo id="flow_route_31_duration_20250327_2000.5" depart="48.00" departLane="1235147073.116_0" departPos="0.41" departSpeed="0.00" departDelay="23.00" arrival="74.00" arrivalLane="-430406005#1_0" arrivalPos="2.61" arrivalSpeed="8.15" duration="26.00" routeLength="165.16" waitingTime="0.00" waitingCount="0" stopTime="0.00" timeLoss="15.11" rerouteNo="0" devices="tripinfo_flow_route_31_duration_20250327_2000.5" vType="car" speedFactor="1.00" vaporized=""/>
    <tripinfo id="flow_route_31_duration_20250327_2000.4" depart="41.00" departLane="1235147073.116_0" departPos="11.65" departSpeed="0.00" departDelay="21.00" arrival="75.00" arrivalLane="-430406005#1_0" arrivalPos="127.19" arrivalSpeed="16.22" duration="34.00" routeLength="278.50" waitingTime="0.00" waitingCount="0" stopTime="0.00" timeLoss="15.36" rerouteNo="0" devices="tripinfo_flow_route_31_duration_20250327_2000.4" vType="car" speedFactor="1.00" vaporized=""/>
    <tripinfo id="flow_route_32_duration_20250327_2000.8" depart="43.00" departLane="1235147073.116_0" departPos="4.36" departSpeed="0.00" departDelay="23.00" arrival="78.00" arrivalLane="1369578054_1" arrivalPos="37.24" arrivalSpeed="11.51" duration="35.00" routeLength="212.62" waitingTime="0.00" waitingCount="0" stopTime="0.00" timeLoss="19.79" rerouteNo="0" devices="tripinfo_flow_route_32_duration_20250327_2000.8" vType="car" speedFactor="0.90" vaporized=""/>
    <tripinfo id="flow_route_32_duration_20250327_2000.6" depart="35.00" departLane="1235147073.116_0" departPos="0.53" departSpeed="0.00" departDelay="20.00" arrival="80.00" arrivalLane="1369578054_1" arrivalPos="116.78" arrivalSpeed="15.68" duration="45.00" routeLength="295.98" waitingTime="0.00" waitingCount="0" stopTime="0.00" timeLoss="26.11" rerouteNo="0" devices="tripinfo_flow_route_32_duration_20250327_2000.6" vType="car" speedFactor="1.02" vaporized=""/>
    <tripinfo id="flow_route_30_duration_20250327_2000.2" depart="57.00" departLane="1235147073.116_0" departPos="4.20" departSpeed="0.00" departDelay="27.00" arrival="81.00" arrivalLane="133126030#0_0" arrivalPos="38.45" arrivalSpeed="15.29" duration="24.00" routeLength="208.77" waitingTime="0.00" waitingCount="0" stopTime="0.00" timeLoss="10.44" rerouteNo="0" devices="tripinfo_flow_route_30_duration_20250327_2000.2" vType="car" speedFactor="0.94" vaporized=""/>
    <tripinfo id="flow_route_32_duration_20250327_2000.9" depart="45.00" departLane="1235147073.116_0" departPos="10.00" departSpeed="0.00" departDelay="22.50" arrival="85.00" arrivalLane="1369578054_1" arrivalPos="103.24" arrivalSpeed="13.92" duration="40.00" routeLength="272.97" waitingTime="0.00" waitingCount="0" stopTime="0.00" timeLoss="19.17" rerouteNo="0" devices="tripinfo_flow_route_32_duration_20250327_2000.9" vType="car" speedFactor="0.85" vaporized=""/>
    <tripinfo id="flow_route_32_duration_20250327_2000.7" depart="37.00" departLane="1235147073.116_0" departPos="2.92" departSpeed="0.00" departDelay="19.50" arrival="88.00" arrivalLane="1369578054_1" arrivalPos="212.97" arrivalSpeed="16.19" duration="51.00" routeLength="389.78" waitingTime="0.00" waitingCount="0" stopTime="0.00" timeLoss="26.37" rerouteNo="0" devices="tripinfo_flow_route_32_duration_20250327_2000.7" vType="car" speedFactor="1.03" vaporized=""/>
    <tripinfo id="flow_route_31_duration_20250327_2000.6" depart="61.00" departLane="1235147073.116_0" departPos="4.11" departSpeed="0.00" departDelay="31.00" arrival="88.00" arrivalLane="-430406005#1_0" arrivalPos="27.39" arrivalSpeed="10.44" duration="27.00" routeLength="186.24" waitingTime="0.00" waitingCount="0" stopTime="0.00" timeLoss="13.00" rerouteNo="0" devices="tripinfo_flow_route_31_duration_20250327_2000.6" vType="car" speedFactor="0.88" vaporized=""/>
    <tripinfo id="flow_route_32_duration_20250327_2000.11" depart="54.00" departLane="1235147073.116_0" departPos="0.87" departSpeed="0.00" departDelay="26.50" arrival="92.00" arrivalLane="1369578054_1" arrivalPos="117.90" arrivalSpeed="15.44" duration="38.00" routeLength="296.76" waitingTime="0.00" waitingCount="0" stopTime="0.00" timeLoss="18.73" rerouteNo="0" devices="tripinfo_flow_route_32_duration_20250327_2000.11" vType="car" speedFactor="1.02" vaporized=""/>
    <tripinfo id="flow_route_32_duration_20250327_2000.12" depart="67.00" departLane="1235147073.116_0" departPos="2.24" departSpeed="0.00" departDelay="37.00" arrival="101.00" arrivalLane="1369578054_1" arrivalPos="133.80" arrivalSpeed="15.03" duration="34.00" routeLength="311.29" waitingTime="0.00" waitingCount="0" stopTime="0.00" timeLoss="12.19" rerouteNo="0" devices="tripinfo_flow_route_32_duration_20250327_2000.12" vType="car" speedFactor="0.91" vaporized=""/>
    <tripinfo id="flow_route_32_duration_20250327_2000.10" depart="49.00" departLane="1235147073.116_0" departPos="12.91" departSpeed="0.00" departDelay="24.00" arrival="102.00" arrivalLane="1369578054_1" arrivalPos="293.93" arrivalSpeed="14.95" duration="53.00" routeLength="460.75" waitingTime="2.00" waitingCount="1" stopTime="0.00" timeLoss="20.93" rerouteNo="0" devices="tripinfo_flow_route_32_duration_20250327_2000.10" vType="car" speedFactor="0.90" vaporized=""/>
    <tripinfo id="flow_route_31_duration_20250327_2000.7" depart="71.00" departLane="1235147073.116_0" departPos="14.55" departSpeed="0.00" departDelay="36.00" arrival="103.00" arrivalLane="-430406005#1_0" arrivalPos="141.62" arrivalSpeed="16.32" duration="32.00" routeLength="290.03" waitingTime="0.00" waitingCount="0" stopTime="0.00" timeLoss="13.17" rerouteNo="0" devices="tripinfo_flow_route_31_duration_20250327_2000.7" vType="car" speedFactor="1.03" vaporized=""/>
    <tripinfo id="flow_route_33_duration_20250327_2000.0" depart="0.00" departLane="133126008#0_0" departPos="101.07" departSpeed="0.00" departDelay="0.00" arrival="104.00" arrivalLane="1369578054_0" arrivalPos="13.07" arrivalSpeed="8.94" duration="104.00" routeLength="125.36" waitingTime="77.00" waitingCount="1" stopTime="0.00" timeLoss="95.61" rerouteNo="0" devices="tripinfo_flow_route_33_duration_20250327_2000.0" vType="car" speedFactor="0.83" vaporized=""/>
    <tripinfo id="flow_route_33_duration_20250327_2000.1" depart="13.00" departLane="133126008#0_0" departPos="14.28" departSpeed="0.00" departDelay="1.00" arrival="104.00" arrivalLane="1369578054_1" arrivalPos="20.07" arrivalSpeed="9.61" duration="91.00" routeLength="219.15" waitingTime="57.00" waitingCount="1" stopTime="0.00" timeLoss="77.58" rerouteNo="0" devices="tripinfo_flow_route_33_duration_20250327_2000.1" vType="car" speedFactor="0.95" vaporized=""/>
    <tripinfo id="flow_route_34_duration_20250327_2000.1" depart="9.00" departLane="133126008#0_0" departPos="54.93" departSpeed="0.00" departDelay="0.43" arrival="105.00" arrivalLane="133126030#0_0" arrivalPos="16.49" arrivalSpeed="7.26" duration="96.00" routeLength="149.08" waitingTime="67.00" waitingCount="1" stopTime="0.00" timeLoss="85.68" rerouteNo="0" devices="tripinfo_flow_route_34_duration_20250327_2000.1" vType="car" speedFactor="0.97" vaporized=""/>
    <tripinfo id="flow_route_28_duration_20250327_2000.2" depart="19.00" departLane="-422986370#2_0" departPos="233.95" departSpeed="0.00" departDelay="1.86" arrival="111.00" arrivalLane="-430406005#1_1" arrivalPos="75.92" arrivalSpeed="12.79" duration="92.00" routeLength="176.40" waitingTime="59.00" waitingCount="1" stopTime="0.00" timeLoss="80.74" rerouteNo="0" devices="tripinfo_flow_route_28_duration_20250327_2000.2" vType="car" speedFactor="0.90" vaporized=""/>
    <tripinfo id="flow_route_28_duration_20250327_2000.3" depart="26.00" departLane="-422986370#2_0" departPos="197.29" departSpeed="0.00" departDelay="0.29" arrival="112.00" arrivalLane="-430406005#1_1" arrivalPos="61.76" arrivalSpeed="12.62" duration="86.00" routeLength="198.90" waitingTime="52.00" waitingCount="1" stopTime="0.00" timeLoss="73.49" rerouteNo="0" devices="tripinfo_flow_route_28_duration_20250327_2000.3" vType="car" speedFactor="1.14" vaporized=""/>
    <tripinfo id="flow_route_34_duration_20250327_2000.0" depart="0.00" departLane="133126008#0_0" departPos="47.21" departSpeed="0.00" departDelay="0.00" arrival="113.00" arrivalLane="133126030#0_0" arrivalPos="137.72" arrivalSpeed="14.92" duration="113.00" routeLength="278.03" waitingTime="72.00" waitingCount="1" stopTime="0.00" timeLoss="95.43" rerouteNo="0" devices="tripinfo_flow_route_34_duration_20250327_2000.0" vType="car" speedFactor="1.05" vaporized=""/>
    <tripinfo id="flow_route_28_duration_20250327_2000.1" depart="9.00" departLane="-422986370#2_0" departPos="287.55" departSpeed="0.00" departDelay="0.43" arrival="114.00" arrivalLane="-430406005#1_0" arrivalPos="144.96" arrivalSpeed="16.40" duration="105.00" routeLength="191.84" waitingTime="77.00" waitingCount="1" stopTime="0.00" timeLoss="93.32" rerouteNo="0" devices="tripinfo_flow_route_28_duration_20250327_2000.1" vType="car" speedFactor="1.01" vaporized=""/>
    <tripinfo id="flow_route_28_duration_20250327_2000.0" depart="0.00" departLane="-422986370#2_0" departPos="1.81" departSpeed="0.00" departDelay="0.00" arrival="115.00" arrivalLane="-430406005#1_0" arrivalPos="159.13" arrivalSpeed="16.54" duration="115.00" routeLength="491.75" waitingTime="61.00" waitingCount="1" stopTime="0.00" timeLoss="84.45" rerouteNo="0" devices="tripinfo_flow_route_28_duration_20250327_2000.0" vType="car" speedFactor="1.06" vaporized=""/>
    <tripinfo id="flow_route_29_duration_20250327_2000.0" depart="0.00" departLane="-422986370#2_0" departPos="201.60" departSpeed="0.00" departDelay="0.00" arrival="115.00" arrivalLane="137415945#0_0" arrivalPos="9.07" arrivalSpeed="14.66" duration="115.00" routeLength="253.29" waitingTime="76.00" waitingCount="1" stopTime="0.00" timeLoss="97.55" rerouteNo="0" devices="tripinfo_flow_route_29_duration_20250327_2000.0" vType="car" speedFactor="0.94" vaporized=""/>
    <tripinfo id="flow_route_34_duration_20250327_2000.4" depart="35.00" departLane="133126008#0_0" departPos="21.32" departSpeed="0.00" departDelay="0.72" arrival="115.00" arrivalLane="133126030#0_0" arrivalPos="15.67" arrivalSpeed="7.80" duration="80.00" routeLength="181.88" waitingTime="42.00" waitingCount="1" stopTime="0.00" timeLoss="67.63" rerouteNo="0" devices="tripinfo_flow_route_34_duration_20250327_2000.4" vType="car" speedFactor="1.01" vaporized=""/>
    <tripinfo id="flow_route_33_duration_20250327_2000.3" depart="36.00" departLane="133126008#0_0" departPos="107.90" departSpeed="0.00" departDelay="0.00" arrival="115.00" arrivalLane="1369578054_1" arrivalPos="136.55" arrivalSpeed="16.36" duration="79.00" routeLength="242.01" waitingTime="42.00" waitingCount="1" stopTime="0.00" timeLoss="64.02" rerouteNo="0" devices="tripinfo_flow_route_33_duration_20250327_2000.3" vType="car" speedFactor="1.09" vaporized=""/>
    <tripinfo id="flow_route_34_duration_20250327_2000.2" depart="18.00" departLane="133126008#0_0" departPos="73.37" departSpeed="0.00" departDelay="0.86" arrival="117.00" arrivalLane="133126030#0_0" arrivalPos="84.45" arrivalSpeed="11.96" duration="99.00" routeLength="198.60" waitingTime="62.00" waitingCount="1" stopTime="0.00" timeLoss="86.06" rerouteNo="0" devices="tripinfo_flow_route_34_duration_20250327_2000.2" vType="car" speedFactor="0.96" vaporized=""/>
    <tripinfo id="flow_route_29_duration_20250327_2000.4" depart="21.00" departLane="-422986370#2_0" departPos="253.27" departSpeed="0.00" departDelay="1.00" arrival="117.00" arrivalLane="137415945#0_0" arrivalPos="3.58" arrivalSpeed="15.40" duration="96.00" routeLength="196.13" waitingTime="64.00" waitingCount="1" stopTime="0.00" timeLoss="82.59" rerouteNo="0" devices="tripinfo_flow_route_29_duration_20250327_2000.4" vType="car" speedFactor="1.09" vaporized=""/>
    <tripinfo id="flow_route_34_duration_20250327_2000.5" depart="43.00" departLane="133126008#0_0" departPos="90.48" departSpeed="0.00" departDelay="0.15" arrival="118.00" arrivalLane="133126030#0_0" arrivalPos="63.54" arrivalSpeed="11.89" duration="75.00" routeLength="160.58" waitingTime="42.00" waitingCount="1" stopTime="0.00" timeLoss="63.63" rerouteNo="0" devices="tripinfo_flow_route_34_duration_20250327_2000.5" vType="car" speedFactor="0.92" vaporized=""/>
    <tripinfo id="flow_route_29_duration_20250327_2000.3" depart="15.00" departLane="-422986370#2_0" departPos="90.69" departSpeed="0.00" departDelay="0.00" arrival="119.00" arrivalLane="137415945#0_0" arrivalPos="8.64" arrivalSpeed="16.09" duration="104.00" routeLength="363.77" waitingTime="51.00" waitingCount="1" stopTime="0.00" timeLoss="80.43" rerouteNo="0" devices="tripinfo_flow_route_29_duration_20250327_2000.3" vType="car" speedFactor="1.01" vaporized=""/>
    <tripinfo id="flow_route_34_duration_20250327_2000.3" depart="27.00" departLane="133126008#0_0" departPos="146.24" departSpeed="0.00" departDelay="1.29" arrival="119.00" arrivalLane="133126030#0_0" arrivalPos="147.85" arrivalSpeed="15.79" duration="92.00" routeLength="189.14" waitingTime="64.00" waitingCount="1" stopTime="0.00" timeLoss="79.08" rerouteNo="0" devices="tripinfo_flow_route_34_duration_20250327_2000.3" vType="car" speedFactor="1.02" vaporized=""/>
    <tripinfo id="flow_route_29_duration_20250327_2000.1" depart="6.00" departLane="-422986370#2_0" departPos="38.75" departSpeed="0.00" departDelay="1.00" arrival="121.00" arrivalLane="137415945#0_0" arrivalPos="3.84" arrivalSpeed="16.00" duration="115.00" routeLength="410.91" waitingTime="51.00" waitingCount="1" stopTime="0.00" timeLoss="88.32" rerouteNo="0" devices="tripinfo_flow_route_29_duration_20250327_2000.1" vType="car" speedFactor="0.99" vaporized=""/>
    <tripinfo id="flow_route_28_duration_20250327_2000.5" depart="46.00" departLane="-422986370#2_0" departPos="221.47" departSpeed="0.00" departDelay="3.15" arrival="121.00" arrivalLane="-430406005#1_1" arrivalPos="164.00" arrivalSpeed="16.52" duration="75.00" routeLength="276.96" waitingTime="36.00" waitingCount="1" stopTime="0.00" timeLoss="56.84" rerouteNo="0" devices="tripinfo_flow_route_28_duration_20250327_2000.5" vType="car" speedFactor="0.89" vaporized=""/>
    <tripinfo id="flow_route_33_duration_20250327_2000.2" depart="26.00" departLane="133126008#0_0" departPos="0.15" departSpeed="0.00" departDelay="2.00" arrival="122.00" arrivalLane="1369578054_1" arrivalPos="204.01" arrivalSpeed="16.49" duration="96.00" routeLength="417.22" waitingTime="39.00" waitingCount="2" stopTime="0.00" timeLoss="70.36" rerouteNo="0" devices="tripinfo_flow_route_33_duration_20250327_2000.2" vType="car" speedFactor="1.02" vaporized=""/>
    <tripinfo id="flow_route_28_duration_20250327_2000.4" depart="37.00" departLane="-422986370#2_0" departPos="32.85" departSpeed="0.00" departDelay="2.72" arrival="122.00" arrivalLane="-430406005#1_1" arrivalPos="163.95" arrivalSpeed="16.19" duration="85.00" routeLength="465.53" waitingTime="32.00" waitingCount="1" stopTime="0.00" timeLoss="56.14" rerouteNo="0" devices="tripinfo_flow_route_28_duration_20250327_2000.4" vType="car" speedFactor="0.96" vaporized=""/>
    <tripinfo id="flow_route_29_duration_20250327_2000.2" depart="10.00" departLane="-422986370#2_0" departPos="8.34" departSpeed="0.00" departDelay="0.00" arrival="125.00" arrivalLane="137415945#0_0" arrivalPos="6.27" arrivalSpeed="13.48" duration="115.00" routeLength="443.75" waitingTime="51.00" waitingCount="1" stopTime="0.00" timeLoss="81.22" rerouteNo="0" devices="tripinfo_flow_route_29_duration_20250327_2000.2" vType="car" speedFactor="0.83" vaporized=""/>
    <tripinfo id="flow_route_33_duration_20250327_2000.4" depart="48.00" departLane="133126008#0_0" departPos="70.80" departSpeed="0.00" departDelay="0.00" arrival="125.00" arrivalLane="1369578054_1" arrivalPos="221.80" arrivalSpeed="15.95" duration="77.00" routeLength="364.36" waitingTime="30.00" waitingCount="1" stopTime="0.00" timeLoss="54.00" rerouteNo="0" devices="tripinfo_flow_route_33_duration_20250327_2000.4" vType="car" speedFactor="0.97" vaporized=""/>