<?xml version="1.0" encoding="UTF-8"?>

<!-- generated on 2025-05-06 21:07:41 by Eclipse SUMO sumo Version 1.20.0
<configuration xmlns:xsi="http://www.w3.org/2001/XMLSchema-instance" xsi:noNamespaceSchemaLocation="http://sumo.dlr.de/xsd/sumoConfiguration.xsd">

    <input>
        <net-file value="osm.net.xml"/>
        <route-files value="xml/route_rl_cluster3839130731_cluster_11644940326_11644940327_11648561426_0.rou.xml"/>
    </input>

    <output>
        <tripinfo-output value="xml/tripinfo_rl_cluster3839130731_cluster_11644940326_11644940327_11648561426_0.xml"/>
    </output>

    <traci_server>
        <remote-port value="40091"/>
    </traci_server>

</configuration>
-->

<tripinfos xmlns:xsi="http://www.w3.org/2001/XMLSchema-instance" xsi:noNamespaceSchemaLocation="http://sumo.dlr.de/xsd/tripinfo_file.xsd">
    <tripinfo id="flow_route_96_duration_20250327_2200.0" depart="0.00" departLane="1341093416#0_0" departPos="184.53" departSpeed="0.00" departDelay="0.00" arrival="20.00" arrivalLane="1254519229#0_1" arrivalPos="3.62" arrivalSpeed="5.63" duration="20.00" routeLength="114.10" waitingTime="0.00" waitingCount="0" stopTime="0.00" timeLoss="11.88" rerouteNo="0" devices="tripinfo_flow_route_96_duration_20250327_2200.0" vType="car" speedFactor="1.01" vaporized=""/>
    <tripinfo id="flow_route_123_duration_20250327_2200.0" depart="0.00" departLane="189240000#0-AddedOnRampEdge_0" departPos="5.69" departSpeed="0.00" departDelay="0.00" arrival="22.00" arrivalLane="1254519229#0_0" arrivalPos="19.69" arrivalSpeed="11.80" duration="22.00" routeLength="156.33" waitingTime="0.00" waitingCount="0" stopTime="0.00" timeLoss="10.54" rerouteNo="0" devices="tripinfo_flow_route_123_duration_20250327_2200.0" vType="car" speedFactor="0.89" vaporized=""/>
    <tripinfo id="flow_route_123_duration_20250327_2200.1" depart="15.00" departLane="189240000#0-AddedOnRampEdge_0" departPos="12.21" departSpeed="0.00" departDelay="0.00" arrival="35.00" arrivalLane="1254519229#0_0" arrivalPos="2.37" arrivalSpeed="10.42" duration="20.00" routeLength="132.49" waitingTime="0.00" waitingCount="0" stopTime="0.00" timeLoss="10.18" rerouteNo="0" devices="tripinfo_flow_route_123_duration_20250327_2200.1" vType="car" speedFactor="0.94" vaporized=""/>
    <tripinfo id="flow_route_124_duration_20250327_2200.0" depart="0.00" departLane="189240000#0-AddedOnRampEdge_0" departPos="82.66" departSpeed="0.00" departDelay="0.00" arrival="36.00" arrivalLane="1254519225#0.109_3" arrivalPos="34.02" arrivalSpeed="15.19" duration="36.00" routeLength="196.39" waitingTime="4.00" waitingCount="1" stopTime="0.00" timeLoss="21.42" rerouteNo="0" devices="tripinfo_flow_route_124_duration_20250327_2200.0" vType="car" speedFactor="0.94" vaporized=""/>
    <tripinfo id="flow_route_96_duration_20250327_2200.1" depart="15.00" departLane="1341093416#0_0" departPos="187.84" departSpeed="0.00" departDelay="0.00" arrival="36.00" arrivalLane="1254519229#0_1" arrivalPos="12.66" arrivalSpeed="5.46" duration="21.00" routeLength="119.83" waitingTime="0.00" waitingCount="0" stopTime="0.00" timeLoss="12.43" rerouteNo="0" devices="tripinfo_flow_route_96_duration_20250327_2200.1" vType="car" speedFactor="0.88" vaporized=""/>
    <tripinfo id="flow_route_94_duration_20250327_2200.0" depart="0.00" departLane="1341093416#0_0" departPos="204.30" departSpeed="0.00" departDelay="0.00" arrival="37.00" arrivalLane="799091563#0_0" arrivalPos="338.33" arrivalSpeed="16.50" duration="37.00" routeLength="440.38" waitingTime="0.00" waitingCount="0" stopTime="0.00" timeLoss="10.30" rerouteNo="0" devices="tripinfo_flow_route_94_duration_20250327_2200.0" vType="car" speedFactor="1.06" vaporized=""/>
    <tripinfo id="flow_route_124_duration_20250327_2200.1" depart="7.00" departLane="189240000#0-AddedOnRampEdge_0" departPos="88.65" departSpeed="0.00" departDelay="0.33" arrival="38.00" arrivalLane="1254519225#0.109_3" arrivalPos="39.52" arrivalSpeed="16.18" duration="31.00" routeLength="195.90" waitingTime="0.00" waitingCount="0" stopTime="0.00" timeLoss="17.32" rerouteNo="0" devices="tripinfo_flow_route_124_duration_20250327_2200.1" vType="car" speedFactor="1.03" vaporized=""/>
    <tripinfo id="flow_route_124_duration_20250327_2200.2" depart="14.00" departLane="189240000#0-AddedOnRampEdge_0" departPos="72.18" departSpeed="0.00" departDelay="0.67" arrival="40.00" arrivalLane="1254519225#0.109_3" arrivalPos="18.83" arrivalSpeed="15.07" duration="26.00" routeLength="191.68" waitingTime="0.00" waitingCount="0" stopTime="0.00" timeLoss="11.80" rerouteNo="0" devices="tripinfo_flow_route_124_duration_20250327_2200.2" vType="car" speedFactor="0.93" vaporized=""/>
    <tripinfo id="flow_route_95_duration_20250327_2200.1" depart="6.00" departLane="1341093416#0_0" departPos="84.19" departSpeed="0.00" departDelay="0.00" arrival="41.00" arrivalLane="1254519225#0.109_0" arrivalPos="32.00" arrivalSpeed="16.32" duration="35.00" routeLength="330.18" waitingTime="0.00" waitingCount="0" stopTime="0.00" timeLoss="13.82" rerouteNo="0" devices="tripinfo_flow_route_95_duration_20250327_2200.1" vType="car" speedFactor="1.09" vaporized=""/>
    <tripinfo id="flow_route_95_duration_20250327_2200.0" depart="0.00" departLane="1341093416#0_0" departPos="1.65" departSpeed="0.00" departDelay="0.00" arrival="45.00" arrivalLane="1254519225#0.109_0" arrivalPos="44.45" arrivalSpeed="15.17" duration="45.00" routeLength="425.17" waitingTime="0.00" waitingCount="0" stopTime="0.00" timeLoss="17.38" rerouteNo="0" devices="tripinfo_flow_route_95_duration_20250327_2200.0" vType="car" speedFactor="0.94" vaporized=""/>
    <tripinfo id="flow_route_111_duration_20250327_2200.0" depart="0.00" departLane="1253188486#8_0" departPos="138.93" departSpeed="0.00" departDelay="0.00" arrival="46.00" arrivalLane="1254519229#0_0" arrivalPos="3.47" arrivalSpeed="6.76" duration="46.00" routeLength="140.76" waitingTime="18.00" waitingCount="1" stopTime="0.00" timeLoss="37.32" rerouteNo="0" devices="tripinfo_flow_route_111_duration_20250327_2200.0" vType="car" speedFactor="0.83" vaporized=""/>
    <tripinfo id="flow_route_111_duration_20250327_2200.4" depart="20.00" departLane="1253188486#8_0" departPos="140.24" departSpeed="0.00" departDelay="0.00" arrival="50.00" arrivalLane="1254519229#0_1" arrivalPos="21.01" arrivalSpeed="9.82" duration="30.00" routeLength="156.99" waitingTime="0.00" waitingCount="0" stopTime="0.00" timeLoss="20.16" rerouteNo="0" devices="tripinfo_flow_route_111_duration_20250327_2200.4" vType="car" speedFactor="1.01" vaporized=""/>
    <tripinfo id="flow_route_111_duration_20250327_2200.2" depart="10.00" departLane="1253188486#8_0" departPos="133.54" departSpeed="0.00" departDelay="0.00" arrival="52.00" arrivalLane="1254519229#0_1" arrivalPos="70.63" arrivalSpeed="12.25" duration="42.00" routeLength="213.31" waitingTime="8.00" waitingCount="1" stopTime="0.00" timeLoss="29.12" rerouteNo="0" devices="tripinfo_flow_route_111_duration_20250327_2200.2" vType="car" speedFactor="1.12" vaporized=""/>
    <tripinfo id="flow_route_111_duration_20250327_2200.1" depart="5.00" departLane="1253188486#8_0" departPos="11.33" departSpeed="0.00" departDelay="0.00" arrival="54.00" arrivalLane="1254519229#0_0" arrivalPos="54.39" arrivalSpeed="11.55" duration="49.00" routeLength="319.28" waitingTime="5.00" waitingCount="1" stopTime="0.00" timeLoss="29.17" rerouteNo="0" devices="tripinfo_flow_route_111_duration_20250327_2200.1" vType="car" speedFactor="0.86" vaporized=""/>
    <tripinfo id="flow_route_111_duration_20250327_2200.5" depart="25.00" departLane="1253188486#8_0" departPos="175.56" departSpeed="0.00" departDelay="0.00" arrival="55.00" arrivalLane="1254519229#0_0" arrivalPos="53.16" arrivalSpeed="11.38" duration="30.00" routeLength="153.83" waitingTime="0.00" waitingCount="0" stopTime="0.00" timeLoss="20.64" rerouteNo="0" devices="tripinfo_flow_route_111_duration_20250327_2200.5" vType="car" speedFactor="0.83" vaporized=""/>
    <tripinfo id="flow_route_104_duration_20250327_2200.0" depart="0.00" departLane="189240001_0" departPos="36.52" departSpeed="0.00" departDelay="0.00" arrival="56.00" arrivalLane="1254519225#0.109_0" arrivalPos="30.66" arrivalSpeed="15.13" duration="56.00" routeLength="198.30" waitingTime="25.00" waitingCount="1" stopTime="0.00" timeLoss="43.57" rerouteNo="0" devices="tripinfo_flow_route_104_duration_20250327_2200.0" vType="car" speedFactor="1.08" vaporized=""/>
    <tripinfo id="flow_route_111_duration_20250327_2200.3" depart="15.00" departLane="1253188486#8_0" departPos="81.28" departSpeed="0.00" departDelay="0.00" arrival="57.00" arrivalLane="1254519229#0_1" arrivalPos="76.12" arrivalSpeed="14.04" duration="42.00" routeLength="271.05" waitingTime="0.00" waitingCount="0" stopTime="0.00" timeLoss="24.95" rerouteNo="0" devices="tripinfo_flow_route_111_duration_20250327_2200.3" vType="car" speedFactor="0.94" vaporized=""/>
    <tripinfo id="flow_route_111_duration_20250327_2200.6" depart="30.00" departLane="1253188486#8_0" departPos="37.25" departSpeed="0.00" departDelay="0.00" arrival="58.00" arrivalLane="1254519229#0_1" arrivalPos="39.19" arrivalSpeed="16.34" duration="28.00" routeLength="278.16" waitingTime="0.00" waitingCount="0" stopTime="0.00" timeLoss="10.92" rerouteNo="0" devices="tripinfo_flow_route_111_duration_20250327_2200.6" vType="car" speedFactor="0.93" vaporized=""/>
    <tripinfo id="flow_route_104_duration_20250327_2200.1" depart="10.00" departLane="189240001_0" departPos="31.07" departSpeed="0.00" departDelay="0.00" arrival="60.00" arrivalLane="1254519225#0.109_0" arrivalPos="51.43" arrivalSpeed="16.50" duration="50.00" routeLength="224.52" waitingTime="16.00" waitingCount="1" stopTime="0.00" timeLoss="36.07" rerouteNo="0" devices="tripinfo_flow_route_104_duration_20250327_2200.1" vType="car" speedFactor="1.05" vaporized=""/>
    <tripinfo id="flow_route_104_duration_20250327_2200.3" depart="30.00" departLane="189240001_0" departPos="50.27" departSpeed="0.00" departDelay="0.00" arrival="60.00" arrivalLane="1254519225#0.109_0" arrivalPos="19.20" arrivalSpeed="15.21" duration="30.00" routeLength="173.09" waitingTime="1.00" waitingCount="1" stopTime="0.00" timeLoss="19.33" rerouteNo="0" devices="tripinfo_flow_route_104_duration_20250327_2200.3" vType="car" speedFactor="1.13" vaporized=""/>
    <tripinfo id="flow_route_111_duration_20250327_2200.7" depart="35.00" departLane="1253188486#8_0" departPos="77.00" departSpeed="0.00" departDelay="0.00" arrival="63.00" arrivalLane="1254519229#0_1" arrivalPos="78.95" arrivalSpeed="16.16" duration="28.00" routeLength="278.17" waitingTime="0.00" waitingCount="0" stopTime="0.00" timeLoss="11.01" rerouteNo="0" devices="tripinfo_flow_route_111_duration_20250327_2200.7" vType="car" speedFactor="1.17" vaporized=""/>
    <tripinfo id="flow_route_112_duration_20250327_2200.0" depart="0.00" departLane="1253188486#8_0" departPos="64.90" departSpeed="0.00" departDelay="0.00" arrival="64.00" arrivalLane="799091563#0_0" arrivalPos="282.23" arrivalSpeed="16.33" duration="64.00" routeLength="472.04" waitingTime="6.00" waitingCount="1" stopTime="0.00" timeLoss="34.31" rerouteNo="0" devices="tripinfo_flow_route_112_duration_20250327_2200.0" vType="car" speedFactor="1.05" vaporized=""/>
    <tripinfo id="flow_route_104_duration_20250327_2200.4" depart="40.00" departLane="189240001_0" departPos="3.67" departSpeed="0.00" departDelay="0.00" arrival="64.00" arrivalLane="1254519225#0.109_0" arrivalPos="35.38" arrivalSpeed="16.47" duration="24.00" routeLength="235.87" waitingTime="0.00" waitingCount="0" stopTime="0.00" timeLoss="9.75" rerouteNo="0" devices="tripinfo_flow_route_104_duration_20250327_2200.4" vType="car" speedFactor="1.02" vaporized=""/>
    <tripinfo id="flow_route_111_duration_20250327_2200.9" depart="46.00" departLane="1253188486#8_0" departPos="202.54" departSpeed="0.00" departDelay="1.00" arrival="65.00" arrivalLane="1254519229#0_0" arrivalPos="54.00" arrivalSpeed="14.30" duration="19.00" routeLength="127.69" waitingTime="0.00" waitingCount="0" stopTime="0.00" timeLoss="10.55" rerouteNo="0" devices="tripinfo_flow_route_111_duration_20250327_2200.9" vType="car" speedFactor="1.03" vaporized=""/>
    <tripinfo id="flow_route_111_duration_20250327_2200.8" depart="40.00" departLane="1253188486#8_0" departPos="19.63" departSpeed="0.00" departDelay="0.00" arrival="68.00" arrivalLane="1254519229#0_0" arrivalPos="16.48" arrivalSpeed="16.16" duration="28.00" routeLength="273.08" waitingTime="0.00" waitingCount="0" stopTime="0.00" timeLoss="10.67" rerouteNo="0" devices="tripinfo_flow_route_111_duration_20250327_2200.8" vType="car" speedFactor="0.97" vaporized=""/>
    <tripinfo id="flow_route_111_duration_20250327_2200.10" depart="51.00" departLane="1253188486#8_0" departPos="120.87" departSpeed="0.00" departDelay="1.00" arrival="72.00" arrivalLane="1254519229#0_0" arrivalPos="8.33" arrivalSpeed="16.46" duration="21.00" routeLength="163.68" waitingTime="0.00" waitingCount="0" stopTime="0.00" timeLoss="10.40" rerouteNo="0" devices="tripinfo_flow_route_111_duration_20250327_2200.10" vType="car" speedFactor="1.09" vaporized=""/>
    <tripinfo id="flow_route_112_duration_20250327_2200.1" depart="30.00" departLane="1253188486#8_0" departPos="6.83" departSpeed="0.00" departDelay="0.00" arrival="76.00" arrivalLane="799091563#0_0" arrivalPos="220.26" arrivalSpeed="16.17" duration="46.00" routeLength="468.14" waitingTime="0.00" waitingCount="0" stopTime="0.00" timeLoss="16.30" rerouteNo="0" devices="tripinfo_flow_route_112_duration_20250327_2200.1" vType="car" speedFactor="1.18" vaporized=""/>
    <tripinfo id="flow_route_104_duration_20250327_2200.2" depart="20.00" departLane="189240001_0" departPos="13.16" departSpeed="0.00" departDelay="0.00" arrival="82.00" arrivalLane="1254519225#0.109_0" arrivalPos="60.18" arrivalSpeed="16.14" duration="62.00" routeLength="251.18" waitingTime="21.00" waitingCount="2" stopTime="0.00" timeLoss="46.87" rerouteNo="0" devices="tripinfo_flow_route_104_duration_20250327_2200.2" vType="car" speedFactor="1.02" vaporized=""/>
    <tripinfo id="flow_route_123_duration_20250327_2200.2" depart="30.00" departLane="189240000#0-AddedOnRampEdge_0" departPos="26.33" departSpeed="0.00" departDelay="0.00" arrival="83.00" arrivalLane="1254519229#0_1" arrivalPos="13.40" arrivalSpeed="7.27" duration="53.00" routeLength="132.91" waitingTime="25.00" waitingCount="1" stopTime="0.00" timeLoss="44.74" rerouteNo="0" devices="tripinfo_flow_route_123_duration_20250327_2200.2" vType="car" speedFactor="1.15" vaporized=""/>
    <tripinfo id="flow_route_123_duration_20250327_2200.3" depart="45.00" departLane="189240000#0-AddedOnRampEdge_0" departPos="48.42" departSpeed="0.00" departDelay="0.00" arrival="85.00" arrivalLane="1254519229#0_0" arrivalPos="33.68" arrivalSpeed="8.91" duration="40.00" routeLength="127.59" waitingTime="13.00" waitingCount="1" stopTime="0.00" timeLoss="31.45" rerouteNo="0" devices="tripinfo_flow_route_123_duration_20250327_2200.3" vType="car" speedFactor="0.96" vaporized=""/>
    <tripinfo id="flow_route_96_duration_20250327_2200.3" depart="45.00" departLane="1341093416#0_0" departPos="168.66" departSpeed="0.00" departDelay="0.00" arrival="92.00" arrivalLane="1254519229#0_1" arrivalPos="16.90" arrivalSpeed="6.65" duration="47.00" routeLength="143.25" waitingTime="12.00" waitingCount="1" stopTime="0.00" timeLoss="36.84" rerouteNo="0" devices="tripinfo_flow_route_96_duration_20250327_2200.3" vType="car" speedFactor="0.90" vaporized=""/>
    <tripinfo id="flow_route_95_duration_20250327_2200.3" depart="18.00" departLane="1341093416#0_0" departPos="112.79" departSpeed="0.00" departDelay="0.00" arrival="93.00" arrivalLane="1254519225#0.109_0" arrivalPos="7.82" arrivalSpeed="13.65" duration="75.00" routeLength="277.41" waitingTime="34.00" waitingCount="1" stopTime="0.00" timeLoss="56.87" rerouteNo="0" devices="tripinfo_flow_route_95_duration_20250327_2200.3" vType="car" speedFactor="1.16" vaporized=""/>
    <tripinfo id="flow_route_95_duration_20250327_2200.5" depart="30.00" departLane="1341093416#0_0" departPos="261.83" departSpeed="0.00" departDelay="0.00" arrival="94.00" arrivalLane="1254519225#0.109_0" arrivalPos="58.34" arrivalSpeed="15.03" duration="64.00" routeLength="178.88" waitingTime="36.00" waitingCount="1" stopTime="0.00" timeLoss="51.57" rerouteNo="0" devices="tripinfo_flow_route_95_duration_20250327_2200.5" vType="car" speedFactor="0.92" vaporized=""/>
    <tripinfo id="flow_route_95_duration_20250327_2200.2" depart="12.00" departLane="1341093416#0_0" departPos="8.89" departSpeed="0.00" departDelay="0.00" arrival="95.00" arrivalLane="1254519225#0.109_0" arrivalPos="14.77" arrivalSpeed="14.54" duration="83.00" routeLength="388.25" waitingTime="33.00" waitingCount="1" stopTime="0.00" timeLoss="58.48" rerouteNo="0" devices="tripinfo_flow_route_95_duration_20250327_2200.2" vType="car" speedFactor="0.99" vaporized=""/>
    <tripinfo id="flow_route_96_duration_20250327_2200.2" depart="32.00" departLane="1341093416#0_0" departPos="254.48" departSpeed="0.00" departDelay="2.00" arrival="96.00" arrivalLane="1254519229#0_1" arrivalPos="76.38" arrivalSpeed="11.56" duration="64.00" routeLength="116.91" waitingTime="34.00" waitingCount="2" stopTime="0.00" timeLoss="55.47" rerouteNo="0" devices="tripinfo_flow_route_96_duration_20250327_2200.2" vType="car" speedFactor="0.95" vaporized=""/>
    <tripinfo id="flow_route_105_duration_20250327_2200.0" depart="1.00" departLane="189240001_0" departPos="25.23" departSpeed="0.00" departDelay="1.00" arrival="97.00" arrivalLane="799091563#0_2" arrivalPos="224.02" arrivalSpeed="16.14" duration="96.00" routeLength="308.35" waitingTime="51.00" waitingCount="2" stopTime="0.00" timeLoss="77.17" rerouteNo="0" devices="tripinfo_flow_route_105_duration_20250327_2200.0" vType="car" speedFactor="1.03" vaporized=""/>
    <tripinfo id="flow_route_124_duration_20250327_2200.4" depart="27.00" departLane="189240000#0-AddedOnRampEdge_0" departPos="65.29" departSpeed="0.00" departDelay="0.34" arrival="99.00" arrivalLane="1254519225#0.109_3" arrivalPos="37.20" arrivalSpeed="14.53" duration="72.00" routeLength="216.93" waitingTime="33.00" waitingCount="2" stopTime="0.00" timeLoss="55.49" rerouteNo="0" devices="tripinfo_flow_route_124_duration_20250327_2200.4" vType="car" speedFactor="0.87" vaporized=""/>
    <tripinfo id="flow_route_124_duration_20250327_2200.3" depart="20.00" departLane="189240000#0-AddedOnRampEdge_0" departPos="22.79" departSpeed="0.00" departDelay="0.00" arrival="100.00" arrivalLane="1254519225#0.109_3" arrivalPos="13.92" arrivalSpeed="14.36" duration="80.00" routeLength="236.16" waitingTime="32.00" waitingCount="2" stopTime="0.00" timeLoss="63.65" rerouteNo="0" devices="tripinfo_flow_route_124_duration_20250327_2200.3" vType="car" speedFactor="0.97" vaporized=""/>
    <tripinfo id="flow_route_95_duration_20250327_2200.4" depart="24.00" departLane="1341093416#0_0" departPos="24.41" departSpeed="0.00" departDelay="0.00" arrival="100.00" arrivalLane="1254519225#0.109_0" arrivalPos="50.64" arrivalSpeed="14.61" duration="76.00" routeLength="408.60" waitingTime="26.00" waitingCount="1" stopTime="0.00" timeLoss="48.63" rerouteNo="0" devices="tripinfo_flow_route_95_duration_20250327_2200.4" vType="car" speedFactor="0.89" vaporized=""/>
    <tripinfo id="flow_route_124_duration_20250327_2200.6" depart="40.00" departLane="189240000#0-AddedOnRampEdge_0" departPos="68.15" departSpeed="0.00" departDelay="0.00" arrival="101.00" arrivalLane="1254519225#0.109_3" arrivalPos="11.27" arrivalSpeed="14.50" duration="61.00" routeLength="188.15" waitingTime="24.00" waitingCount="1" stopTime="0.00" timeLoss="48.67" rerouteNo="0" devices="tripinfo_flow_route_124_duration_20250327_2200.6" vType="car" speedFactor="1.18" vaporized=""/>
    <tripinfo id="flow_route_95_duration_20250327_2200.7" depart="42.00" departLane="1341093416#0_0" departPos="79.53" departSpeed="0.00" departDelay="0.00" arrival="101.00" arrivalLane="1254519225#0.109_0" arrivalPos="21.95" arrivalSpeed="15.06" duration="59.00" routeLength="324.80" waitingTime="13.00" waitingCount="1" stopTime="0.00" timeLoss="38.61" rerouteNo="0" devices="tripinfo_flow_route_95_duration_20250327_2200.7" vType="car" speedFactor="1.10" vaporized=""/>
    <tripinfo id="flow_route_95_duration_20250327_2200.9" depart="54.00" departLane="1341093416#0_0" departPos="239.60" departSpeed="0.00" departDelay="0.00" arrival="101.00" arrivalLane="1254519225#0.109_0" arrivalPos="44.34" arrivalSpeed="15.37" duration="47.00" routeLength="187.12" waitingTime="20.00" waitingCount="1" stopTime="0.00" timeLoss="34.34" rerouteNo="0" devices="tripinfo_flow_route_95_duration_20250327_2200.9" vType="car" speedFactor="1.00" vaporized=""/>
    <tripinfo id="flow_route_124_duration_20250327_2200.5" depart="34.00" departLane="189240000#0-AddedOnRampEdge_0" departPos="16.90" departSpeed="0.00" departDelay="0.67" arrival="103.00" arrivalLane="1254519225#0.109_3" arrivalPos="4.18" arrivalSpeed="14.29" duration="69.00" routeLength="232.31" waitingTime="25.00" waitingCount="1" stopTime="0.00" timeLoss="53.84" rerouteNo="0" devices="tripinfo_flow_route_124_duration_20250327_2200.5" vType="car" speedFactor="1.01" vaporized=""/>
    <tripinfo id="flow_route_95_duration_20250327_2200.6" depart="36.00" departLane="1341093416#0_0" departPos="23.59" departSpeed="0.00" departDelay="0.00" arrival="104.00" arrivalLane="1254519225#0.109_0" arrivalPos="21.15" arrivalSpeed="15.14" duration="68.00" routeLength="379.94" waitingTime="13.00" waitingCount="1" stopTime="0.00" timeLoss="43.58" rerouteNo="0" devices="tripinfo_flow_route_95_duration_20250327_2200.6" vType="car" speedFactor="0.99" vaporized=""/>
    <tripinfo id="flow_route_95_duration_20250327_2200.8" depart="49.00" departLane="1341093416#0_0" departPos="6.54" departSpeed="0.00" departDelay="1.00" arrival="106.00" arrivalLane="1254519225#0.109_0" arrivalPos="22.78" arrivalSpeed="15.20" duration="57.00" routeLength="398.62" waitingTime="6.00" waitingCount="1" stopTime="0.00" timeLoss="31.70" rerouteNo="0" devices="tripinfo_flow_route_95_duration_20250327_2200.8" vType="car" speedFactor="1.04" vaporized=""/>
    <tripinfo id="flow_route_124_duration_20250327_2200.7" depart="47.00" departLane="189240000#0-AddedOnRampEdge_0" departPos="39.39" departSpeed="0.00" departDelay="0.34" arrival="107.00" arrivalLane="1254519225#0.109_3" arrivalPos="36.50" arrivalSpeed="16.11" duration="60.00" routeLength="242.14" waitingTime="18.00" waitingCount="1" stopTime="0.00" timeLoss="44.23" rerouteNo="0" devices="tripinfo_flow_route_124_duration_20250327_2200.7" vType="car" speedFactor="1.09" vaporized=""/>
    <tripinfo id="flow_route_124_duration_20250327_2200.8" depart="54.00" departLane="189240000#0-AddedOnRampEdge_0" departPos="54.16" departSpeed="0.00" departDelay="0.67" arrival="109.00" arrivalLane="1254519225#0.109_3" arrivalPos="28.44" arrivalSpeed="14.89" duration="55.00" routeLength="219.31" waitingTime="15.00" waitingCount="1" stopTime="0.00" timeLoss="38.44" rerouteNo="0" devices="tripinfo_flow_route_124_duration_20250327_2200.8" vType="car" speedFactor="0.90" vaporized=""/>
    <tripinfo id="flow_route_111_duration_20250327_2200.11" depart="55.00" departLane="1253188486#8_0" departPos="72.70" departSpeed="0.00" departDelay="0.00" arrival="128.00" arrivalLane="1254519229#0_0" arrivalPos="77.30" arrivalSpeed="12.33" duration="73.00" routeLength="280.82" waitingTime="32.00" waitingCount="1" stopTime="0.00" timeLoss="55.49" rerouteNo="0" devices="tripinfo_flow_route_111_duration_20250327_2200.11" vType="car" speedFactor="0.88" vaporized=""/>
    <tripinfo id="flow_route_104_duration_20250327_2200.5" depart="52.00" departLane="189240001_0" departPos="33.31" departSpeed="0.00" departDelay="2.00" arrival="130.00" arrivalLane="1254519225#0.109_0" arrivalPos="18.89" arrivalSpeed="14.04" duration="78.00" routeLength="189.74" waitingTime="46.00" waitingCount="1" stopTime="0.00" timeLoss="66.19" rerouteNo="0" devices="tripinfo_flow_route_104_duration_20250327_2200.5" vType="car" speedFactor="1.04" vaporized=""/>
</tripinfos>
