<?xml version="1.0" encoding="UTF-8"?>

<!-- generated on 2025-05-06 21:07:43 by Eclipse SUMO sumo Version 1.20.0
<configuration xmlns:xsi="http://www.w3.org/2001/XMLSchema-instance" xsi:noNamespaceSchemaLocation="http://sumo.dlr.de/xsd/sumoConfiguration.xsd">

    <input>
        <net-file value="osm.net.xml"/>
        <route-files value="xml/route_static_GS_cluster_4854142864_4854142865_0.rou.xml"/>
    </input>

    <output>
        <tripinfo-output value="xml/tripinfo_static_GS_cluster_4854142864_4854142865_0.xml"/>
    </output>

    <traci_server>
        <remote-port value="58603"/>
    </traci_server>

</configuration>
-->

<tripinfos xmlns:xsi="http://www.w3.org/2001/XMLSchema-instance" xsi:noNamespaceSchemaLocation="http://sumo.dlr.de/xsd/tripinfo_file.xsd">
    <tripinfo id="flow_route_39_duration_20250327_2030.0" depart="0.00" departLane="133126030#0_0" departPos="101.03" departSpeed="0.00" departDelay="0.00" arrival="29.00" arrivalLane="1328664748#0_0" arrivalPos="158.52" arrivalSpeed="15.14" duration="29.00" routeLength="263.70" waitingTime="0.00" waitingCount="0" stopTime="0.00" timeLoss="11.27" rerouteNo="0" devices="tripinfo_flow_route_39_duration_20250327_2030.0" vType="car" speedFactor="0.94" vaporized=""/>
    <tripinfo id="flow_route_38_duration_20250327_2030.0" depart="0.00" departLane="133126030#0_0" departPos="45.86" departSpeed="0.00" departDelay="0.00" arrival="34.00" arrivalLane="134193294#0_0" arrivalPos="152.84" arrivalSpeed="16.03" duration="34.00" routeLength="301.86" waitingTime="0.00" waitingCount="0" stopTime="0.00" timeLoss="15.00" rerouteNo="0" devices="tripinfo_flow_route_38_duration_20250327_2030.0" vType="car" speedFactor="1.06" vaporized=""/>
    <tripinfo id="flow_route_38_duration_20250327_2030.1" depart="20.00" departLane="133126030#0_0" departPos="101.31" departSpeed="0.00" departDelay="0.00" arrival="53.00" arrivalLane="134193294#0_0" arrivalPos="163.80" arrivalSpeed="14.29" duration="33.00" routeLength="257.37" waitingTime="0.00" waitingCount="0" stopTime="0.00" timeLoss="13.30" rerouteNo="0" devices="tripinfo_flow_route_38_duration_20250327_2030.1" vType="car" speedFactor="0.87" vaporized=""/>
    <tripinfo id="flow_route_43_duration_20250327_2030.1" depart="6.00" departLane="1328664744#0_0" departPos="208.33" departSpeed="0.00" departDelay="0.55" arrival="56.00" arrivalLane="134193294#0_3" arrivalPos="87.99" arrivalSpeed="12.65" duration="50.00" routeLength="119.74" waitingTime="27.00" waitingCount="1" stopTime="0.00" timeLoss="42.04" rerouteNo="0" devices="tripinfo_flow_route_43_duration_20250327_2030.1" vType="car" speedFactor="1.09" vaporized=""/>
    <tripinfo id="flow_route_43_duration_20250327_2030.4" depart="22.00" departLane="1328664744#0_0" departPos="69.63" departSpeed="0.00" departDelay="0.18" arrival="62.00" arrivalLane="134193294#0_3" arrivalPos="11.49" arrivalSpeed="8.96" duration="40.00" routeLength="181.93" waitingTime="1.00" waitingCount="1" stopTime="0.00" timeLoss="27.08" rerouteNo="0" devices="tripinfo_flow_route_43_duration_20250327_2030.4" vType="car" speedFactor="0.93" vaporized=""/>
    <tripinfo id="flow_route_43_duration_20250327_2030.0" depart="0.00" departLane="1328664744#0_0" departPos="1.34" departSpeed="0.00" departDelay="0.00" arrival="64.00" arrivalLane="134193294#0_3" arrivalPos="84.30" arrivalSpeed="12.98" duration="64.00" routeLength="323.03" waitingTime="16.00" waitingCount="2" stopTime="0.00" timeLoss="43.34" rerouteNo="0" devices="tripinfo_flow_route_43_duration_20250327_2030.0" vType="car" speedFactor="1.08" vaporized=""/>
    <tripinfo id="flow_route_43_duration_20250327_2030.2" depart="11.00" departLane="1328664744#0_0" departPos="151.98" departSpeed="0.00" departDelay="0.09" arrival="64.00" arrivalLane="134193294#0_3" arrivalPos="164.09" arrivalSpeed="14.39" duration="53.00" routeLength="252.18" waitingTime="15.00" waitingCount="1" stopTime="0.00" timeLoss="34.23" rerouteNo="0" devices="tripinfo_flow_route_43_duration_20250327_2030.2" vType="car" speedFactor="0.88" vaporized=""/>
    <tripinfo id="flow_route_43_duration_20250327_2030.3" depart="17.00" departLane="1328664744#0_0" departPos="212.96" departSpeed="0.00" departDelay="0.64" arrival="64.00" arrivalLane="134193294#0_3" arrivalPos="114.61" arrivalSpeed="14.29" duration="47.00" routeLength="141.72" waitingTime="25.00" waitingCount="2" stopTime="0.00" timeLoss="37.00" rerouteNo="0" devices="tripinfo_flow_route_43_duration_20250327_2030.3" vType="car" speedFactor="0.97" vaporized=""/>
    <tripinfo id="flow_route_43_duration_20250327_2030.5" depart="28.00" departLane="1328664744#0_0" departPos="113.77" departSpeed="0.00" departDelay="0.73" arrival="65.00" arrivalLane="134193294#0_3" arrivalPos="72.60" arrivalSpeed="13.01" duration="37.00" routeLength="198.90" waitingTime="2.00" waitingCount="1" stopTime="0.00" timeLoss="23.41" rerouteNo="0" devices="tripinfo_flow_route_43_duration_20250327_2030.5" vType="car" speedFactor="1.02" vaporized=""/>
    <tripinfo id="flow_route_43_duration_20250327_2030.6" depart="33.00" departLane="1328664744#0_0" departPos="101.11" departSpeed="0.00" departDelay="0.28" arrival="72.00" arrivalLane="134193294#0_3" arrivalPos="107.25" arrivalSpeed="14.60" duration="39.00" routeLength="246.21" waitingTime="0.00" waitingCount="0" stopTime="0.00" timeLoss="21.92" rerouteNo="0" devices="tripinfo_flow_route_43_duration_20250327_2030.6" vType="car" speedFactor="0.96" vaporized=""/>
    <tripinfo id="flow_route_43_duration_20250327_2030.8" depart="44.00" departLane="1328664744#0_0" departPos="131.49" departSpeed="0.00" departDelay="0.37" arrival="73.00" arrivalLane="134193294#0_3" arrivalPos="101.05" arrivalSpeed="14.99" duration="29.00" routeLength="209.64" waitingTime="0.00" waitingCount="0" stopTime="0.00" timeLoss="14.82" rerouteNo="0" devices="tripinfo_flow_route_43_duration_20250327_2030.8" vType="car" speedFactor="1.00" vaporized=""/>
    <tripinfo id="flow_route_43_duration_20250327_2030.10" depart="55.00" departLane="1328664744#0_0" departPos="181.77" departSpeed="0.00" departDelay="0.46" arrival="76.00" arrivalLane="134193294#0_3" arrivalPos="83.44" arrivalSpeed="13.48" duration="21.00" routeLength="141.74" waitingTime="0.00" waitingCount="0" stopTime="0.00" timeLoss="10.21" rerouteNo="0" devices="tripinfo_flow_route_43_duration_20250327_2030.10" vType="car" speedFactor="0.88" vaporized=""/>
    <tripinfo id="flow_route_43_duration_20250327_2030.7" depart="39.00" departLane="1328664744#0_0" departPos="31.32" departSpeed="0.00" departDelay="0.82" arrival="81.00" arrivalLane="134193294#0_3" arrivalPos="122.17" arrivalSpeed="14.78" duration="42.00" routeLength="330.93" waitingTime="0.00" waitingCount="0" stopTime="0.00" timeLoss="18.61" rerouteNo="0" devices="tripinfo_flow_route_43_duration_20250327_2030.7" vType="car" speedFactor="0.90" vaporized=""/>
    <tripinfo id="flow_route_43_duration_20250327_2030.9" depart="50.00" departLane="1328664744#0_0" departPos="76.72" departSpeed="0.00" departDelay="0.91" arrival="88.00" arrivalLane="134193294#0_3" arrivalPos="152.19" arrivalSpeed="16.22" duration="38.00" routeLength="315.54" waitingTime="0.00" waitingCount="0" stopTime="0.00" timeLoss="18.10" rerouteNo="0" devices="tripinfo_flow_route_43_duration_20250327_2030.9" vType="car" speedFactor="1.08" vaporized=""/>
    <tripinfo id="flow_route_45_duration_20250327_2030.0" depart="0.00" departLane="791826085_0" departPos="152.03" departSpeed="0.00" departDelay="0.00" arrival="95.00" arrivalLane="485211947#0_0" arrivalPos="8.08" arrivalSpeed="5.64" duration="95.00" routeLength="191.81" waitingTime="61.00" waitingCount="1" stopTime="0.00" timeLoss="79.95" rerouteNo="0" devices="tripinfo_flow_route_45_duration_20250327_2030.0" vType="car" speedFactor="0.83" vaporized=""/>
    <tripinfo id="flow_route_44_duration_20250327_2030.1" depart="3.00" departLane="791826085_0" departPos="285.55" departSpeed="0.00" departDelay="0.14" arrival="96.00" arrivalLane="134193294#0_0" arrivalPos="45.37" arrivalSpeed="10.96" duration="93.00" routeLength="114.19" waitingTime="68.00" waitingCount="1" stopTime="0.00" timeLoss="84.65" rerouteNo="0" devices="tripinfo_flow_route_44_duration_20250327_2030.1" vType="car" speedFactor="0.89" vaporized=""/>
    <tripinfo id="flow_route_44_duration_20250327_2030.4" depart="14.00" departLane="791826085_0" departPos="72.77" departSpeed="0.00" departDelay="2.57" arrival="97.00" arrivalLane="134193294#0_1" arrivalPos="22.19" arrivalSpeed="9.84" duration="83.00" routeLength="303.79" waitingTime="42.00" waitingCount="1" stopTime="0.00" timeLoss="63.49" rerouteNo="0" devices="tripinfo_flow_route_44_duration_20250327_2030.4" vType="car" speedFactor="0.94" vaporized=""/>
    <tripinfo id="flow_route_44_duration_20250327_2030.2" depart="6.00" departLane="791826085_0" departPos="268.83" departSpeed="0.00" departDelay="0.29" arrival="98.00" arrivalLane="134193294#0_0" arrivalPos="52.67" arrivalSpeed="11.43" duration="92.00" routeLength="138.21" waitingTime="65.00" waitingCount="1" stopTime="0.00" timeLoss="83.59" rerouteNo="0" devices="tripinfo_flow_route_44_duration_20250327_2030.2" vType="car" speedFactor="1.03" vaporized=""/>
    <tripinfo id="flow_route_46_duration_20250327_2030.3" depart="17.00" departLane="791826085_0" departPos="304.95" departSpeed="0.00" departDelay="2.00" arrival="99.00" arrivalLane="1328664748#0_1" arrivalPos="53.71" arrivalSpeed="11.58" duration="82.00" routeLength="97.55" waitingTime="59.00" waitingCount="1" stopTime="0.00" timeLoss="74.61" rerouteNo="0" devices="tripinfo_flow_route_46_duration_20250327_2030.3" vType="car" speedFactor="1.01" vaporized=""/>
    <tripinfo id="flow_route_44_duration_20250327_2030.0" depart="0.00" departLane="791826085_0" departPos="219.49" departSpeed="0.00" departDelay="0.00" arrival="100.00" arrivalLane="134193294#0_1" arrivalPos="101.20" arrivalSpeed="14.52" duration="100.00" routeLength="236.08" waitingTime="63.00" waitingCount="1" stopTime="0.00" timeLoss="85.38" rerouteNo="0" devices="tripinfo_flow_route_44_duration_20250327_2030.0" vType="car" speedFactor="1.03" vaporized=""/>
    <tripinfo id="flow_route_44_duration_20250327_2030.5" depart="17.00" departLane="791826085_0" departPos="225.55" departSpeed="0.00" departDelay="2.72" arrival="101.00" arrivalLane="134193294#0_1" arrivalPos="98.05" arrivalSpeed="14.65" duration="84.00" routeLength="226.87" waitingTime="49.00" waitingCount="1" stopTime="0.00" timeLoss="70.28" rerouteNo="0" devices="tripinfo_flow_route_44_duration_20250327_2030.5" vType="car" speedFactor="1.02" vaporized=""/>
    <tripinfo id="flow_route_45_duration_20250327_2030.1" depart="3.00" departLane="791826085_0" departPos="105.00" departSpeed="0.00" departDelay="0.27" arrival="103.00" arrivalLane="485211947#0_0" arrivalPos="11.17" arrivalSpeed="7.88" duration="100.00" routeLength="241.92" waitingTime="49.00" waitingCount="1" stopTime="0.00" timeLoss="82.95" rerouteNo="0" devices="tripinfo_flow_route_45_duration_20250327_2030.1" vType="car" speedFactor="0.94" vaporized=""/>
    <tripinfo id="flow_route_46_duration_20250327_2030.0" depart="1.00" departLane="791826085_0" departPos="184.68" departSpeed="0.00" departDelay="1.00" arrival="104.00" arrivalLane="1328664748#0_1" arrivalPos="165.37" arrivalSpeed="16.29" duration="103.00" routeLength="329.48" waitingTime="60.00" waitingCount="1" stopTime="0.00" timeLoss="81.91" rerouteNo="0" devices="tripinfo_flow_route_46_duration_20250327_2030.0" vType="car" speedFactor="1.05" vaporized=""/>
    <tripinfo id="flow_route_44_duration_20250327_2030.7" depart="24.00" departLane="791826085_0" departPos="67.56" departSpeed="0.00" departDelay="4.00" arrival="104.00" arrivalLane="134193294#0_1" arrivalPos="31.45" arrivalSpeed="11.57" duration="80.00" routeLength="318.26" waitingTime="36.00" waitingCount="1" stopTime="0.00" timeLoss="58.77" rerouteNo="0" devices="tripinfo_flow_route_44_duration_20250327_2030.7" vType="car" speedFactor="0.92" vaporized=""/>
    <tripinfo id="flow_route_44_duration_20250327_2030.9" depart="38.00" departLane="791826085_0" departPos="254.71" departSpeed="0.00" departDelay="12.29" arrival="104.00" arrivalLane="134193294#0_1" arrivalPos="49.75" arrivalSpeed="12.49" duration="66.00" routeLength="149.42" waitingTime="37.00" waitingCount="1" stopTime="0.00" timeLoss="56.46" rerouteNo="0" devices="tripinfo_flow_route_44_duration_20250327_2030.9" vType="car" speedFactor="0.99" vaporized=""/>
    <tripinfo id="flow_route_44_duration_20250327_2030.3" depart="9.00" departLane="791826085_0" departPos="10.57" departSpeed="0.00" departDelay="0.43" arrival="105.00" arrivalLane="134193294#0_1" arrivalPos="93.37" arrivalSpeed="14.49" duration="96.00" routeLength="437.17" waitingTime="40.00" waitingCount="1" stopTime="0.00" timeLoss="69.48" rerouteNo="0" devices="tripinfo_flow_route_44_duration_20250327_2030.3" vType="car" speedFactor="1.12" vaporized=""/>
    <tripinfo id="flow_route_46_duration_20250327_2030.4" depart="31.00" departLane="791826085_0" departPos="7.78" departSpeed="0.00" departDelay="11.00" arrival="106.00" arrivalLane="1328664748#0_1" arrivalPos="33.78" arrivalSpeed="12.26" duration="75.00" routeLength="374.79" waitingTime="27.00" waitingCount="1" stopTime="0.00" timeLoss="51.85" rerouteNo="0" devices="tripinfo_flow_route_46_duration_20250327_2030.4" vType="car" speedFactor="1.13" vaporized=""/>
    <tripinfo id="flow_route_45_duration_20250327_2030.4" depart="14.00" departLane="791826085_0" departPos="86.12" departSpeed="0.00" departDelay="3.09" arrival="107.00" arrivalLane="485211947#0_0" arrivalPos="5.53" arrivalSpeed="6.62" duration="93.00" routeLength="255.16" waitingTime="49.00" waitingCount="1" stopTime="0.00" timeLoss="75.96" rerouteNo="0" devices="tripinfo_flow_route_45_duration_20250327_2030.4" vType="car" speedFactor="0.94" vaporized=""/>
    <tripinfo id="flow_route_44_duration_20250327_2030.8" depart="33.00" departLane="791826085_0" departPos="138.64" departSpeed="0.00" departDelay="10.14" arrival="107.00" arrivalLane="134193294#0_2" arrivalPos="58.15" arrivalSpeed="13.59" duration="74.00" routeLength="273.89" waitingTime="30.00" waitingCount="1" stopTime="0.00" timeLoss="56.92" rerouteNo="0" devices="tripinfo_flow_route_44_duration_20250327_2030.8" vType="car" speedFactor="1.15" vaporized=""/>
    <tripinfo id="flow_route_46_duration_20250327_2030.1" depart="5.00" departLane="791826085_0" departPos="15.07" departSpeed="0.00" departDelay="0.00" arrival="108.00" arrivalLane="1328664748#0_1" arrivalPos="152.10" arrivalSpeed="14.16" duration="103.00" routeLength="485.82" waitingTime="47.00" waitingCount="1" stopTime="0.00" timeLoss="67.43" rerouteNo="0" devices="tripinfo_flow_route_46_duration_20250327_2030.1" vType="car" speedFactor="0.86" vaporized=""/>
    <tripinfo id="flow_route_45_duration_20250327_2030.2" depart="7.00" departLane="791826085_0" departPos="129.34" departSpeed="0.00" departDelay="1.55" arrival="109.00" arrivalLane="485211947#0_0" arrivalPos="117.38" arrivalSpeed="13.90" duration="102.00" routeLength="323.80" waitingTime="50.00" waitingCount="1" stopTime="0.00" timeLoss="81.89" rerouteNo="0" devices="tripinfo_flow_route_45_duration_20250327_2030.2" vType="car" speedFactor="1.05" vaporized=""/>
    <tripinfo id="flow_route_45_duration_20250327_2030.3" depart="9.00" departLane="791826085_0" departPos="98.41" departSpeed="0.00" departDelay="0.82" arrival="109.00" arrivalLane="485211947#0_0" arrivalPos="43.86" arrivalSpeed="11.10" duration="100.00" routeLength="281.21" waitingTime="49.00" waitingCount="1" stopTime="0.00" timeLoss="81.77" rerouteNo="0" devices="tripinfo_flow_route_45_duration_20250327_2030.3" vType="car" speedFactor="0.99" vaporized=""/>
    <tripinfo id="flow_route_44_duration_20250327_2030.6" depart="23.00" departLane="791826085_0" departPos="28.05" departSpeed="0.00" departDelay="5.86" arrival="110.00" arrivalLane="134193294#0_1" arrivalPos="84.50" arrivalSpeed="13.68" duration="87.00" routeLength="410.81" waitingTime="34.00" waitingCount="1" stopTime="0.00" timeLoss="57.15" rerouteNo="0" devices="tripinfo_flow_route_44_duration_20250327_2030.6" vType="car" speedFactor="0.83" vaporized=""/>
    <tripinfo id="flow_route_46_duration_20250327_2030.2" depart="10.00" departLane="791826085_0" departPos="51.89" departSpeed="0.00" departDelay="0.00" arrival="111.00" arrivalLane="1328664748#0_1" arrivalPos="170.09" arrivalSpeed="15.18" duration="101.00" routeLength="466.99" waitingTime="42.00" waitingCount="1" stopTime="0.00" timeLoss="69.48" rerouteNo="0" devices="tripinfo_flow_route_46_duration_20250327_2030.2" vType="car" speedFactor="0.93" vaporized=""/>
    <tripinfo id="flow_route_45_duration_20250327_2030.5" depart="17.00" departLane="791826085_0" departPos="194.45" departSpeed="0.00" departDelay="3.37" arrival="111.00" arrivalLane="485211947#0_0" arrivalPos="178.72" arrivalSpeed="16.50" duration="94.00" routeLength="320.03" waitingTime="49.00" waitingCount="1" stopTime="0.00" timeLoss="73.48" rerouteNo="0" devices="tripinfo_flow_route_45_duration_20250327_2030.5" vType="car" speedFactor="1.16" vaporized=""/>
    <tripinfo id="flow_route_45_duration_20250327_2030.9" depart="37.00" departLane="791826085_0" departPos="228.12" departSpeed="0.00" departDelay="12.46" arrival="111.00" arrivalLane="485211947#0_0" arrivalPos="14.82" arrivalSpeed="7.91" duration="74.00" routeLength="122.46" waitingTime="44.00" waitingCount="1" stopTime="0.00" timeLoss="65.67" rerouteNo="0" devices="tripinfo_flow_route_45_duration_20250327_2030.9" vType="car" speedFactor="1.01" vaporized=""/>
    <tripinfo id="flow_route_44_duration_20250327_2030.11" depart="52.00" departLane="791826085_0" departPos="0.28" departSpeed="0.00" departDelay="20.57" arrival="111.00" arrivalLane="134193294#0_2" arrivalPos="17.96" arrivalSpeed="12.69" duration="59.00" routeLength="372.05" waitingTime="7.00" waitingCount="1" stopTime="0.00" timeLoss="36.21" rerouteNo="0" devices="tripinfo_flow_route_44_duration_20250327_2030.11" vType="car" speedFactor="1.03" vaporized=""/>
    <tripinfo id="flow_route_46_duration_20250327_2030.5" depart="38.00" departLane="791826085_0" departPos="215.84" departSpeed="0.00" departDelay="13.00" arrival="112.00" arrivalLane="1328664748#0_1" arrivalPos="160.61" arrivalSpeed="16.19" duration="74.00" routeLength="293.56" waitingTime="31.00" waitingCount="1" stopTime="0.00" timeLoss="55.26" rerouteNo="0" devices="tripinfo_flow_route_46_duration_20250327_2030.5" vType="car" speedFactor="1.17" vaporized=""/>
    <tripinfo id="flow_route_46_duration_20250327_2030.6" depart="44.00" departLane="791826085_0" departPos="123.75" departSpeed="0.00" departDelay="14.00" arrival="112.00" arrivalLane="1328664748#0_1" arrivalPos="81.25" arrivalSpeed="14.37" duration="68.00" routeLength="306.29" waitingTime="24.00" waitingCount="1" stopTime="0.00" timeLoss="46.46" rerouteNo="0" devices="tripinfo_flow_route_46_duration_20250327_2030.6" vType="car" speedFactor="0.90" vaporized=""/>
    <tripinfo id="flow_route_44_duration_20250327_2030.13" depart="67.00" departLane="791826085_0" departPos="189.01" departSpeed="0.00" departDelay="29.86" arrival="113.00" arrivalLane="134193294#0_1" arrivalPos="79.99" arrivalSpeed="14.66" duration="46.00" routeLength="245.35" waitingTime="6.00" waitingCount="1" stopTime="0.00" timeLoss="31.07" rerouteNo="0" devices="tripinfo_flow_route_44_duration_20250327_2030.13" vType="car" speedFactor="1.00" vaporized=""/>
    <tripinfo id="flow_route_44_duration_20250327_2030.10" depart="42.00" departLane="791826085_0" departPos="50.08" departSpeed="0.00" departDelay="13.43" arrival="116.00" arrivalLane="134193294#0_1" arrivalPos="141.61" arrivalSpeed="16.37" duration="74.00" routeLength="445.90" waitingTime="20.00" waitingCount="1" stopTime="0.00" timeLoss="46.25" rerouteNo="0" devices="tripinfo_flow_route_44_duration_20250327_2030.10" vType="car" speedFactor="1.18" vaporized=""/>
    <tripinfo id="flow_route_44_duration_20250327_2030.15" depart="80.00" departLane="791826085_0" departPos="185.43" departSpeed="0.00" departDelay="37.15" arrival="116.00" arrivalLane="134193294#0_1" arrivalPos="59.11" arrivalSpeed="14.81" duration="36.00" routeLength="228.04" waitingTime="0.00" waitingCount="0" stopTime="0.00" timeLoss="21.46" rerouteNo="0" devices="tripinfo_flow_route_44_duration_20250327_2030.15" vType="car" speedFactor="1.10" vaporized=""/>
    <tripinfo id="flow_route_45_duration_20250327_2030.8" depart="33.00" departLane="791826085_0" departPos="160.68" departSpeed="0.00" departDelay="11.18" arrival="117.00" arrivalLane="485211947#0_0" arrivalPos="33.16" arrivalSpeed="9.75" duration="84.00" routeLength="208.25" waitingTime="37.00" waitingCount="1" stopTime="0.00" timeLoss="70.06" rerouteNo="0" devices="tripinfo_flow_route_45_duration_20250327_2030.8" vType="car" speedFactor="1.18" vaporized=""/>
    <tripinfo id="flow_route_44_duration_20250327_2030.12" depart="61.00" departLane="791826085_0" departPos="67.67" departSpeed="0.00" departDelay="26.72" arrival="117.00" arrivalLane="134193294#0_1" arrivalPos="98.40" arrivalSpeed="16.48" duration="56.00" routeLength="385.10" waitingTime="6.00" waitingCount="1" stopTime="0.00" timeLoss="31.92" rerouteNo="0" devices="tripinfo_flow_route_44_duration_20250327_2030.12" vType="car" speedFactor="1.04" vaporized=""/>
    <tripinfo id="flow_route_44_duration_20250327_2030.14" depart="69.00" departLane="791826085_0" departPos="31.86" departSpeed="0.00" departDelay="29.00" arrival="118.00" arrivalLane="134193294#0_2" arrivalPos="63.75" arrivalSpeed="14.01" duration="49.00" routeLength="386.25" waitingTime="0.00" waitingCount="0" stopTime="0.00" timeLoss="20.93" rerouteNo="0" devices="tripinfo_flow_route_44_duration_20250327_2030.14" vType="car" speedFactor="0.85" vaporized=""/>
    <tripinfo id="flow_route_46_duration_20250327_2030.8" depart="69.00" departLane="791826085_0" departPos="73.70" departSpeed="0.00" departDelay="29.00" arrival="118.00" arrivalLane="1328664748#0_1" arrivalPos="106.80" arrivalSpeed="16.17" duration="49.00" routeLength="381.89" waitingTime="0.00" waitingCount="0" stopTime="0.00" timeLoss="25.38" rerouteNo="0" devices="tripinfo_flow_route_46_duration_20250327_2030.8" vType="car" speedFactor="1.17" vaporized=""/>
    <tripinfo id="flow_route_45_duration_20250327_2030.11" depart="43.00" departLane="791826085_0" departPos="216.32" departSpeed="0.00" departDelay="13.00" arrival="119.00" arrivalLane="485211947#0_0" arrivalPos="77.30" arrivalSpeed="12.63" duration="76.00" routeLength="196.74" waitingTime="37.00" waitingCount="1" stopTime="0.00" timeLoss="62.62" rerouteNo="0" devices="tripinfo_flow_route_45_duration_20250327_2030.11" vType="car" speedFactor="1.10" vaporized=""/>
    <tripinfo id="flow_route_46_duration_20250327_2030.7" depart="62.00" departLane="791826085_0" departPos="145.63" departSpeed="0.00" departDelay="27.00" arrival="122.00" arrivalLane="1328664748#0_1" arrivalPos="216.15" arrivalSpeed="16.60" duration="60.00" routeLength="419.31" waitingTime="9.00" waitingCount="1" stopTime="0.00" timeLoss="33.67" rerouteNo="0" devices="tripinfo_flow_route_46_duration_20250327_2030.7" vType="car" speedFactor="1.04" vaporized=""/>
    <tripinfo id="flow_route_44_duration_20250327_2030.18" depart="94.00" departLane="791826085_0" departPos="172.30" departSpeed="0.00" departDelay="42.57" arrival="122.00" arrivalLane="134193294#0_1" arrivalPos="80.67" arrivalSpeed="15.24" duration="28.00" routeLength="262.74" waitingTime="0.00" waitingCount="0" stopTime="0.00" timeLoss="11.32" rerouteNo="0" devices="tripinfo_flow_route_44_duration_20250327_2030.18" vType="car" speedFactor="0.99" vaporized=""/>
    <tripinfo id="flow_route_44_duration_20250327_2030.19" depart="94.00" departLane="791826085_0" departPos="188.89" departSpeed="0.00" departDelay="39.72" arrival="125.00" arrivalLane="134193294#0_1" arrivalPos="155.96" arrivalSpeed="15.04" duration="31.00" routeLength="321.44" waitingTime="0.00" waitingCount="0" stopTime="0.00" timeLoss="9.36" rerouteNo="0" devices="tripinfo_flow_route_44_duration_20250327_2030.19" vType="car" speedFactor="0.91" vaporized=""/>
    <tripinfo id="flow_route_45_duration_20250327_2030.7" depart="24.00" departLane="791826085_0" departPos="58.92" departSpeed="0.00" departDelay="4.91" arrival="127.00" arrivalLane="485211947#0_0" arrivalPos="118.89" arrivalSpeed="14.81" duration="103.00" routeLength="395.73" waitingTime="36.00" waitingCount="1" stopTime="0.00" timeLoss="76.80" rerouteNo="0" devices="tripinfo_flow_route_45_duration_20250327_2030.7" vType="car" speedFactor="0.95" vaporized=""/>
    <tripinfo id="flow_route_46_duration_20250327_2030.9" depart="83.00" departLane="791826085_0" departPos="11.29" departSpeed="0.00" departDelay="38.00" arrival="128.00" arrivalLane="1328664748#0_1" arrivalPos="127.56" arrivalSpeed="14.60" duration="45.00" routeLength="465.06" waitingTime="0.00" waitingCount="0" stopTime="0.00" timeLoss="12.39" rerouteNo="0" devices="tripinfo_flow_route_46_duration_20250327_2030.9" vType="car" speedFactor="0.90" vaporized=""/>
    <tripinfo id="flow_route_44_duration_20250327_2030.16" depart="88.00" departLane="791826085_0" departPos="2.39" departSpeed="0.00" departDelay="42.29" arrival="130.00" arrivalLane="134193294#0_2" arrivalPos="146.93" arrivalSpeed="16.47" duration="42.00" routeLength="498.91" waitingTime="0.00" waitingCount="0" stopTime="0.00" timeLoss="11.49" rerouteNo="0" devices="tripinfo_flow_route_44_duration_20250327_2030.16" vType="car" speedFactor="1.14" vaporized=""/>
    <tripinfo id="flow_route_45_duration_20250327_2030.6" depart="20.00" departLane="791826085_0" departPos="9.08" departSpeed="0.00" departDelay="3.64" arrival="131.00" arrivalLane="485211947#0_0" arrivalPos="132.59" arrivalSpeed="14.40" duration="111.00" routeLength="459.27" waitingTime="36.00" waitingCount="1" stopTime="0.00" timeLoss="78.23" rerouteNo="0" devices="tripinfo_flow_route_45_duration_20250327_2030.6" vType="car" speedFactor="0.89" vaporized=""/>
    <tripinfo id="flow_route_45_duration_20250327_2030.10" depart="40.00" departLane="791826085_0" departPos="13.89" departSpeed="0.00" departDelay="12.73" arrival="131.00" arrivalLane="485211947#0_0" arrivalPos="113.97" arrivalSpeed="14.30" duration="91.00" routeLength="435.84" waitingTime="28.00" waitingCount="1" stopTime="0.00" timeLoss="63.11" rerouteNo="0" devices="tripinfo_flow_route_45_duration_20250327_2030.10" vType="car" speedFactor="0.97" vaporized=""/>
    <tripinfo id="flow_route_38_duration_20250327_2030.2" depart="40.00" departLane="133126030#0_0" departPos="125.13" departSpeed="0.00" departDelay="0.00" arrival="143.00" arrivalLane="134193294#0_0" arrivalPos="151.30" arrivalSpeed="13.91" duration="103.00" routeLength="221.05" waitingTime="68.00" waitingCount="1" stopTime="0.00" timeLoss="85.87" rerouteNo="0" devices="tripinfo_flow_route_38_duration_20250327_2030.2" vType="car" speedFactor="0.85" vaporized=""/>
    <tripinfo id="flow_route_44_duration_20250327_2030.17" depart="93.00" departLane="791826085_0" departPos="62.16" departSpeed="0.00" departDelay="44.43" arrival="215.00" arrivalLane="134193294#0_1" arrivalPos="2.51" arrivalSpeed="7.13" duration="122.00" routeLength="294.72" waitingTime="82.00" waitingCount="1" stopTime="0.00" timeLoss="103.36" rerouteNo="0" devices="tripinfo_flow_route_44_duration_20250327_2030.17" vType="car" speedFactor="0.97" vaporized=""/>
    <tripinfo id="flow_route_46_duration_20250327_2030.11" depart="99.00" departLane="791826085_0" departPos="75.33" departSpeed="0.00" departDelay="44.00" arrival="216.00" arrivalLane="1328664748#0_1" arrivalPos="25.44" arrivalSpeed="8.77" duration="117.00" routeLength="298.90" waitingTime="78.00" waitingCount="1" stopTime="0.00" timeLoss="98.03" rerouteNo="0" devices="tripinfo_flow_route_46_duration_20250327_2030.11" vType="car" speedFactor="1.04" vaporized=""/>
    <tripinfo id="flow_route_45_duration_20250327_2030.14" depart="67.00" departLane="791826085_0" departPos="42.23" departSpeed="0.00" departDelay="28.82" arrival="222.00" arrivalLane="485211947#0_0" arrivalPos="23.03" arrivalSpeed="7.56" duration="155.00" routeLength="316.56" waitingTime="89.00" waitingCount="2" stopTime="0.00" timeLoss="131.93" rerouteNo="0" devices="tripinfo_flow_route_45_duration_20250327_2030.14" vType="car" speedFactor="0.88" vaporized=""/>
    <tripinfo id="flow_route_45_duration_20250327_2030.13" depart="67.00" departLane="791826085_0" departPos="51.40" departSpeed="0.00" departDelay="31.55" arrival="224.00" arrivalLane="485211947#0_0" arrivalPos="76.17" arrivalSpeed="11.36" duration="157.00" routeLength="360.53" waitingTime="92.00" waitingCount="2" stopTime="0.00" timeLoss="134.52" rerouteNo="0" devices="tripinfo_flow_route_45_duration_20250327_2030.13" vType="car" speedFactor="1.09" vaporized=""/>
    <tripinfo id="flow_route_44_duration_20250327_2030.20" depart="99.00" departLane="791826085_0" departPos="61.31" departSpeed="0.00" departDelay="41.86" arrival="225.00" arrivalLane="134193294#0_1" arrivalPos="83.62" arrivalSpeed="13.42" duration="126.00" routeLength="376.68" waitingTime="77.00" waitingCount="1" stopTime="0.00" timeLoss="102.63" rerouteNo="0" devices="tripinfo_flow_route_44_duration_20250327_2030.20" vType="car" speedFactor="1.02" vaporized=""/>
    <tripinfo id="flow_route_45_duration_20250327_2030.12" depart="61.00" departLane="791826085_0" departPos="108.55" departSpeed="0.00" departDelay="28.28" arrival="228.00" arrivalLane="485211947#0_0" arrivalPos="171.38" arrivalSpeed="15.80" duration="167.00" routeLength="398.59" waitingTime="104.00" waitingCount="2" stopTime="0.00" timeLoss="141.55" rerouteNo="0" devices="tripinfo_flow_route_45_duration_20250327_2030.12" vType="car" speedFactor="1.09" vaporized=""/>