<?xml version="1.0" encoding="UTF-8"?>

<!-- generated on 2025-05-06 21:08:57 by Eclipse SUMO sumo Version 1.20.0
<configuration xmlns:xsi="http://www.w3.org/2001/XMLSchema-instance" xsi:noNamespaceSchemaLocation="http://sumo.dlr.de/xsd/sumoConfiguration.xsd">

    <input>
        <net-file value="osm.net.xml"/>
        <route-files value="xml/route_static_cluster_11644940323_11644940324_3828703845_7.rou.xml"/>
    </input>

    <output>
        <tripinfo-output value="xml/tripinfo_static_cluster_11644940323_11644940324_3828703845_7.xml"/>
    </output>

    <traci_server>
        <remote-port value="52671"/>
    </traci_server>

</configuration>
-->

<tripinfos xmlns:xsi="http://www.w3.org/2001/XMLSchema-instance" xsi:noNamespaceSchemaLocation="http://sumo.dlr.de/xsd/tripinfo_file.xsd">
    <tripinfo id="flow_route_3_duration_20250327_2030.0" depart="0.00" departLane="1318793173#0_0" departPos="80.53" departSpeed="0.00" departDelay="0.00" arrival="19.00" arrivalLane="291974733#0_1" arrivalPos="66.76" arrivalSpeed="13.99" duration="19.00" routeLength="123.20" waitingTime="0.00" waitingCount="0" stopTime="0.00" timeLoss="10.27" rerouteNo="0" devices="tripinfo_flow_route_3_duration_20250327_2030.0" vType="car" speedFactor="0.94" vaporized=""/>
    <tripinfo id="flow_route_2_duration_20250327_2030.0" depart="0.00" departLane="1318793173#0_0" departPos="58.93" departSpeed="0.00" departDelay="0.00" arrival="21.00" arrivalLane="189835257_0" arrivalPos="46.92" arrivalSpeed="15.38" duration="21.00" routeLength="167.93" waitingTime="0.00" waitingCount="0" stopTime="0.00" timeLoss="10.18" rerouteNo="0" devices="tripinfo_flow_route_2_duration_20250327_2030.0" vType="car" speedFactor="1.06" vaporized=""/>
    <tripinfo id="flow_route_16_duration_20250327_2030.0" depart="0.00" departLane="137406408#0_0" departPos="52.27" departSpeed="0.00" departDelay="0.00" arrival="21.00" arrivalLane="133126040#0_0" arrivalPos="80.39" arrivalSpeed="14.60" duration="21.00" routeLength="149.31" waitingTime="0.00" waitingCount="0" stopTime="0.00" timeLoss="11.21" rerouteNo="0" devices="tripinfo_flow_route_16_duration_20250327_2030.0" vType="car" speedFactor="1.05" vaporized=""/>
    <tripinfo id="flow_route_17_duration_20250327_2030.0" depart="0.00" departLane="137406408#0_0" departPos="24.41" departSpeed="0.00" departDelay="0.00" arrival="22.00" arrivalLane="1254771874#0_0" arrivalPos="63.27" arrivalSpeed="16.22" duration="22.00" routeLength="182.06" waitingTime="0.00" waitingCount="0" stopTime="0.00" timeLoss="9.94" rerouteNo="0" devices="tripinfo_flow_route_17_duration_20250327_2030.0" vType="car" speedFactor="0.89" vaporized=""/>
    <tripinfo id="flow_route_9_duration_20250327_2030.0" depart="0.00" departLane="1318793173#0_0" departPos="0.65" departSpeed="0.00" departDelay="0.00" arrival="24.00" arrivalLane="1254771874#0_1" arrivalPos="11.63" arrivalSpeed="11.30" duration="24.00" routeLength="169.44" waitingTime="0.00" waitingCount="0" stopTime="0.00" timeLoss="12.29" rerouteNo="0" devices="tripinfo_flow_route_9_duration_20250327_2030.0" vType="car" speedFactor="1.01" vaporized=""/>
    <tripinfo id="flow_route_2_duration_20250327_2030.3" depart="13.00" departLane="1318793173#0_0" departPos="95.93" departSpeed="0.00" departDelay="0.15" arrival="32.00" arrivalLane="189835257_0" arrivalPos="43.41" arrivalSpeed="13.29" duration="19.00" routeLength="127.42" waitingTime="0.00" waitingCount="0" stopTime="0.00" timeLoss="10.50" rerouteNo="0" devices="tripinfo_flow_route_2_duration_20250327_2030.3" vType="car" speedFactor="1.05" vaporized=""/>
    <tripinfo id="flow_route_2_duration_20250327_2030.1" depart="5.00" departLane="1318793173#0_0" departPos="34.79" departSpeed="0.00" departDelay="0.72" arrival="34.00" arrivalLane="189835257_0" arrivalPos="46.11" arrivalSpeed="14.25" duration="29.00" routeLength="191.25" waitingTime="0.00" waitingCount="0" stopTime="0.00" timeLoss="15.63" rerouteNo="0" devices="tripinfo_flow_route_2_duration_20250327_2030.1" vType="car" speedFactor="0.94" vaporized=""/>
    <tripinfo id="flow_route_2_duration_20250327_2030.4" depart="18.00" departLane="1318793173#0_0" departPos="58.82" departSpeed="0.00" departDelay="0.86" arrival="38.00" arrivalLane="189835257_0" arrivalPos="20.88" arrivalSpeed="14.85" duration="20.00" routeLength="142.00" waitingTime="0.00" waitingCount="0" stopTime="0.00" timeLoss="10.33" rerouteNo="0" devices="tripinfo_flow_route_2_duration_20250327_2030.4" vType="car" speedFactor="1.12" vaporized=""/>
    <tripinfo id="flow_route_2_duration_20250327_2030.2" depart="9.00" departLane="1318793173#0_0" departPos="4.99" departSpeed="0.00" departDelay="0.43" arrival="41.00" arrivalLane="189835257_0" arrivalPos="36.00" arrivalSpeed="14.20" duration="32.00" routeLength="210.95" waitingTime="0.00" waitingCount="0" stopTime="0.00" timeLoss="16.15" rerouteNo="0" devices="tripinfo_flow_route_2_duration_20250327_2030.2" vType="car" speedFactor="0.86" vaporized=""/>
    <tripinfo id="flow_route_9_duration_20250327_2030.1" depart="12.00" departLane="1318793173#0_0" departPos="101.48" departSpeed="0.00" departDelay="0.00" arrival="41.00" arrivalLane="1254771874#0_1" arrivalPos="161.93" arrivalSpeed="16.41" duration="29.00" routeLength="218.92" waitingTime="1.00" waitingCount="1" stopTime="0.00" timeLoss="14.61" rerouteNo="0" devices="tripinfo_flow_route_9_duration_20250327_2030.1" vType="car" speedFactor="1.03" vaporized=""/>
    <tripinfo id="flow_route_13_duration_20250327_2030.0" depart="0.00" departLane="1252820503#0_0" departPos="99.64" departSpeed="0.00" departDelay="0.00" arrival="43.00" arrivalLane="291974733#0_0" arrivalPos="46.05" arrivalSpeed="9.22" duration="43.00" routeLength="103.57" waitingTime="18.00" waitingCount="1" stopTime="0.00" timeLoss="35.81" rerouteNo="0" devices="tripinfo_flow_route_13_duration_20250327_2030.0" vType="car" speedFactor="1.08" vaporized=""/>
    <tripinfo id="flow_route_15_duration_20250327_2030.0" depart="1.00" departLane="1252820503#0_0" departPos="8.92" departSpeed="0.00" departDelay="1.00" arrival="44.00" arrivalLane="133126040#0_1" arrivalPos="4.72" arrivalSpeed="8.52" duration="43.00" routeLength="174.98" waitingTime="10.00" waitingCount="1" stopTime="0.00" timeLoss="31.16" rerouteNo="0" devices="tripinfo_flow_route_15_duration_20250327_2030.0" vType="car" speedFactor="0.83" vaporized=""/>
    <tripinfo id="flow_route_13_duration_20250327_2030.1" depart="20.00" departLane="1252820503#0_0" departPos="44.68" departSpeed="0.00" departDelay="0.00" arrival="46.00" arrivalLane="291974733#0_0" arrivalPos="22.18" arrivalSpeed="8.13" duration="26.00" routeLength="134.66" waitingTime="0.00" waitingCount="0" stopTime="0.00" timeLoss="16.43" rerouteNo="0" devices="tripinfo_flow_route_13_duration_20250327_2030.1" vType="car" speedFactor="0.99" vaporized=""/>
    <tripinfo id="flow_route_14_duration_20250327_2030.2" depart="20.00" departLane="1252820503#0_0" departPos="113.18" departSpeed="0.00" departDelay="0.00" arrival="48.00" arrivalLane="1254771874#0_0" arrivalPos="8.29" arrivalSpeed="10.58" duration="28.00" routeLength="104.98" waitingTime="3.00" waitingCount="1" stopTime="0.00" timeLoss="21.24" rerouteNo="0" devices="tripinfo_flow_route_14_duration_20250327_2030.2" vType="car" speedFactor="0.93" vaporized=""/>
    <tripinfo id="flow_route_2_duration_20250327_2030.8" depart="37.00" departLane="1318793173#0_0" departPos="101.05" departSpeed="0.00" departDelay="2.72" arrival="54.00" arrivalLane="189835257_0" arrivalPos="35.18" arrivalSpeed="13.30" duration="17.00" routeLength="114.07" waitingTime="0.00" waitingCount="0" stopTime="0.00" timeLoss="8.58" rerouteNo="0" devices="tripinfo_flow_route_2_duration_20250327_2030.8" vType="car" speedFactor="0.89" vaporized=""/>
    <tripinfo id="flow_route_14_duration_20250327_2030.3" depart="30.00" departLane="1252820503#0_0" departPos="35.74" departSpeed="0.00" departDelay="0.00" arrival="55.00" arrivalLane="1254771874#0_0" arrivalPos="67.50" arrivalSpeed="16.49" duration="25.00" routeLength="241.64" waitingTime="0.00" waitingCount="0" stopTime="0.00" timeLoss="9.64" rerouteNo="0" devices="tripinfo_flow_route_14_duration_20250327_2030.3" vType="car" speedFactor="1.02" vaporized=""/>
    <tripinfo id="flow_route_14_duration_20250327_2030.0" depart="0.00" departLane="1252820503#0_0" departPos="69.02" departSpeed="0.00" departDelay="0.00" arrival="56.00" arrivalLane="1254771874#0_0" arrivalPos="150.80" arrivalSpeed="16.52" duration="56.00" routeLength="291.67" waitingTime="15.00" waitingCount="1" stopTime="0.00" timeLoss="38.07" rerouteNo="0" devices="tripinfo_flow_route_14_duration_20250327_2030.0" vType="car" speedFactor="1.03" vaporized=""/>
    <tripinfo id="flow_route_2_duration_20250327_2030.6" depart="27.00" departLane="1318793173#0_0" departPos="44.45" departSpeed="0.00" departDelay="1.29" arrival="57.00" arrivalLane="189835257_0" arrivalPos="6.81" arrivalSpeed="12.26" duration="30.00" routeLength="142.30" waitingTime="0.00" waitingCount="0" stopTime="0.00" timeLoss="19.88" rerouteNo="0" devices="tripinfo_flow_route_2_duration_20250327_2030.6" vType="car" speedFactor="0.94" vaporized=""/>
    <tripinfo id="flow_route_14_duration_20250327_2030.1" depart="10.00" departLane="1252820503#0_0" departPos="45.46" departSpeed="0.00" departDelay="0.00" arrival="58.00" arrivalLane="1254771874#0_1" arrivalPos="131.12" arrivalSpeed="16.44" duration="48.00" routeLength="295.54" waitingTime="7.00" waitingCount="1" stopTime="0.00" timeLoss="29.76" rerouteNo="0" devices="tripinfo_flow_route_14_duration_20250327_2030.1" vType="car" speedFactor="1.09" vaporized=""/>
    <tripinfo id="flow_route_2_duration_20250327_2030.7" depart="30.00" departLane="1318793173#0_0" departPos="61.77" departSpeed="0.00" departDelay="0.01" arrival="58.00" arrivalLane="189835257_0" arrivalPos="50.79" arrivalSpeed="14.13" duration="28.00" routeLength="168.96" waitingTime="0.00" waitingCount="0" stopTime="0.00" timeLoss="17.30" rerouteNo="0" devices="tripinfo_flow_route_2_duration_20250327_2030.7" vType="car" speedFactor="1.16" vaporized=""/>
    <tripinfo id="flow_route_2_duration_20250327_2030.5" depart="23.00" departLane="1318793173#0_0" departPos="3.22" departSpeed="0.00" departDelay="1.58" arrival="59.00" arrivalLane="189835257_0" arrivalPos="8.38" arrivalSpeed="12.49" duration="36.00" routeLength="185.10" waitingTime="0.00" waitingCount="0" stopTime="0.00" timeLoss="22.06" rerouteNo="0" devices="tripinfo_flow_route_2_duration_20250327_2030.5" vType="car" speedFactor="0.88" vaporized=""/>
    <tripinfo id="flow_route_2_duration_20250327_2030.10" depart="43.00" departLane="1318793173#0_0" departPos="59.09" departSpeed="0.00" departDelay="0.15" arrival="62.00" arrivalLane="189835257_0" arrivalPos="14.68" arrivalSpeed="13.89" duration="19.00" routeLength="135.53" waitingTime="0.00" waitingCount="0" stopTime="0.00" timeLoss="10.35" rerouteNo="0" devices="tripinfo_flow_route_2_duration_20250327_2030.10" vType="car" speedFactor="1.13" vaporized=""/>
    <tripinfo id="flow_route_2_duration_20250327_2030.9" depart="40.00" departLane="1318793173#0_0" departPos="19.82" departSpeed="0.00" departDelay="1.44" arrival="65.00" arrivalLane="189835257_0" arrivalPos="25.94" arrivalSpeed="14.12" duration="25.00" routeLength="186.06" waitingTime="0.00" waitingCount="0" stopTime="0.00" timeLoss="11.62" rerouteNo="0" devices="tripinfo_flow_route_2_duration_20250327_2030.9" vType="car" speedFactor="0.87" vaporized=""/>
    <tripinfo id="flow_route_16_duration_20250327_2030.1" depart="30.00" departLane="137406408#0_0" departPos="74.92" departSpeed="0.00" departDelay="0.00" arrival="72.00" arrivalLane="133126040#0_0" arrivalPos="24.13" arrivalSpeed="9.15" duration="42.00" routeLength="70.40" waitingTime="22.00" waitingCount="1" stopTime="0.00" timeLoss="37.27" rerouteNo="0" devices="tripinfo_flow_route_16_duration_20250327_2030.1" vType="car" speedFactor="1.01" vaporized=""/>
    <tripinfo id="flow_route_2_duration_20250327_2030.11" depart="48.00" departLane="1318793173#0_0" departPos="19.34" departSpeed="0.00" departDelay="0.87" arrival="74.00" arrivalLane="189835257_0" arrivalPos="48.87" arrivalSpeed="15.18" duration="26.00" routeLength="209.47" waitingTime="0.00" waitingCount="0" stopTime="0.00" timeLoss="10.80" rerouteNo="0" devices="tripinfo_flow_route_2_duration_20250327_2030.11" vType="car" speedFactor="0.93" vaporized=""/>
    <tripinfo id="flow_route_17_duration_20250327_2030.1" depart="30.00" departLane="137406408#0_0" departPos="8.22" departSpeed="0.00" departDelay="0.00" arrival="77.00" arrivalLane="1254771874#0_0" arrivalPos="42.93" arrivalSpeed="11.98" duration="47.00" routeLength="177.93" waitingTime="14.00" waitingCount="1" stopTime="0.00" timeLoss="35.64" rerouteNo="0" devices="tripinfo_flow_route_17_duration_20250327_2030.1" vType="car" speedFactor="0.97" vaporized=""/>
    <tripinfo id="flow_route_2_duration_20250327_2030.12" depart="53.00" departLane="1318793173#0_0" departPos="19.52" departSpeed="0.00" departDelay="1.58" arrival="78.00" arrivalLane="189835257_0" arrivalPos="29.87" arrivalSpeed="15.34" duration="25.00" routeLength="190.28" waitingTime="0.00" waitingCount="0" stopTime="0.00" timeLoss="12.04" rerouteNo="0" devices="tripinfo_flow_route_2_duration_20250327_2030.12" vType="car" speedFactor="1.01" vaporized=""/>
    <tripinfo id="flow_route_2_duration_20250327_2030.13" depart="56.00" departLane="1318793173#0_0" departPos="8.65" departSpeed="0.00" departDelay="0.30" arrival="78.00" arrivalLane="189835257_0" arrivalPos="2.47" arrivalSpeed="14.80" duration="22.00" routeLength="173.76" waitingTime="0.00" waitingCount="0" stopTime="0.00" timeLoss="11.26" rerouteNo="0" devices="tripinfo_flow_route_2_duration_20250327_2030.13" vType="car" speedFactor="1.17" vaporized=""/>
    <tripinfo id="flow_route_9_duration_20250327_2030.4" depart="49.00" departLane="1318793173#0_0" departPos="33.92" departSpeed="0.00" departDelay="1.00" arrival="86.00" arrivalLane="1254771874#0_1" arrivalPos="17.12" arrivalSpeed="10.67" duration="37.00" routeLength="141.67" waitingTime="3.00" waitingCount="1" stopTime="0.00" timeLoss="26.92" rerouteNo="0" devices="tripinfo_flow_route_9_duration_20250327_2030.4" vType="car" speedFactor="1.18" vaporized=""/>
    <tripinfo id="flow_route_9_duration_20250327_2030.2" depart="24.00" departLane="1318793173#0_0" departPos="35.80" departSpeed="0.00" departDelay="0.00" arrival="92.00" arrivalLane="1254771874#0_0" arrivalPos="175.12" arrivalSpeed="16.18" duration="68.00" routeLength="297.78" waitingTime="24.00" waitingCount="2" stopTime="0.00" timeLoss="48.46" rerouteNo="0" devices="tripinfo_flow_route_9_duration_20250327_2030.2" vType="car" speedFactor="0.94" vaporized=""/>
    <tripinfo id="flow_route_9_duration_20250327_2030.3" depart="38.00" departLane="1318793173#0_0" departPos="33.26" departSpeed="0.00" departDelay="2.00" arrival="93.00" arrivalLane="1254771874#0_1" arrivalPos="152.41" arrivalSpeed="16.24" duration="55.00" routeLength="277.62" waitingTime="10.00" waitingCount="2" stopTime="0.00" timeLoss="35.12" rerouteNo="0" devices="tripinfo_flow_route_9_duration_20250327_2030.3" vType="car" speedFactor="0.83" vaporized=""/>
    <tripinfo id="flow_route_13_duration_20250327_2030.2" depart="41.00" departLane="1252820503#0_0" departPos="22.48" departSpeed="0.00" departDelay="1.00" arrival="99.00" arrivalLane="291974733#0_0" arrivalPos="15.78" arrivalSpeed="5.63" duration="58.00" routeLength="150.46" waitingTime="30.00" waitingCount="1" stopTime="0.00" timeLoss="47.84" rerouteNo="0" devices="tripinfo_flow_route_13_duration_20250327_2030.2" vType="car" speedFactor="0.92" vaporized=""/>
    <tripinfo id="flow_route_14_duration_20250327_2030.5" depart="50.00" departLane="1252820503#0_0" departPos="12.73" departSpeed="0.00" departDelay="0.00" arrival="112.00" arrivalLane="1254771874#0_0" arrivalPos="86.66" arrivalSpeed="15.93" duration="62.00" routeLength="283.80" waitingTime="21.00" waitingCount="1" stopTime="0.00" timeLoss="44.26" rerouteNo="0" devices="tripinfo_flow_route_14_duration_20250327_2030.5" vType="car" speedFactor="1.15" vaporized=""/>
    <tripinfo id="flow_route_14_duration_20250327_2030.4" depart="41.00" departLane="1252820503#0_0" departPos="4.12" departSpeed="0.00" departDelay="1.00" arrival="121.00" arrivalLane="1254771874#0_0" arrivalPos="244.09" arrivalSpeed="16.56" duration="80.00" routeLength="449.85" waitingTime="29.00" waitingCount="1" stopTime="0.00" timeLoss="52.74" rerouteNo="0" devices="tripinfo_flow_route_14_duration_20250327_2030.4" vType="car" speedFactor="0.95" vaporized=""/>
</tripinfos>
