<?xml version="1.0" encoding="UTF-8"?>

<!-- generated on 2025-05-06 21:08:01 by Eclipse SUMO sumo Version 1.20.0
<configuration xmlns:xsi="http://www.w3.org/2001/XMLSchema-instance" xsi:noNamespaceSchemaLocation="http://sumo.dlr.de/xsd/sumoConfiguration.xsd">

    <input>
        <net-file value="osm.net.xml"/>
        <route-files value="xml/route_rl_cluster_3839031475_3839031476_4110471700_4234582615_2.rou.xml"/>
    </input>

    <output>
        <tripinfo-output value="xml/tripinfo_rl_cluster_3839031475_3839031476_4110471700_4234582615_2.xml"/>
    </output>

    <traci_server>
        <remote-port value="34801"/>
    </traci_server>

</configuration>
-->

<tripinfos xmlns:xsi="http://www.w3.org/2001/XMLSchema-instance" xsi:noNamespaceSchemaLocation="http://sumo.dlr.de/xsd/tripinfo_file.xsd">
    <tripinfo id="flow_route_85_duration_20250327_2040.0" depart="0.00" departLane="1091883842_0" departPos="162.60" departSpeed="0.00" departDelay="0.00" arrival="16.00" arrivalLane="133000063_0" arrivalPos="42.63" arrivalSpeed="9.42" duration="16.00" routeLength="74.77" waitingTime="0.00" waitingCount="0" stopTime="0.00" timeLoss="9.16" rerouteNo="0" devices="tripinfo_flow_route_85_duration_20250327_2040.0" vType="car" speedFactor="0.89" vaporized=""/>
    <tripinfo id="flow_route_79_duration_20250327_2040.0" depart="0.00" departLane="380344611#0_0" departPos="128.21" departSpeed="0.00" departDelay="0.00" arrival="28.00" arrivalLane="423956929_1" arrivalPos="91.18" arrivalSpeed="16.56" duration="28.00" routeLength="278.79" waitingTime="0.00" waitingCount="0" stopTime="0.00" timeLoss="10.74" rerouteNo="0" devices="tripinfo_flow_route_79_duration_20250327_2040.0" vType="car" speedFactor="1.08" vaporized=""/>
    <tripinfo id="flow_route_80_duration_20250327_2040.0" depart="0.00" departLane="380344611#0_0" departPos="160.58" departSpeed="0.00" departDelay="0.00" arrival="31.00" arrivalLane="380593307#0_0" arrivalPos="102.42" arrivalSpeed="13.82" duration="31.00" routeLength="234.46" waitingTime="0.00" waitingCount="0" stopTime="0.00" timeLoss="16.10" rerouteNo="0" devices="tripinfo_flow_route_80_duration_20250327_2040.0" vType="car" speedFactor="1.03" vaporized=""/>
    <tripinfo id="flow_route_90_duration_20250327_2040.0" depart="0.00" departLane="380585338#0_0" departPos="118.71" departSpeed="0.00" departDelay="0.00" arrival="33.00" arrivalLane="136617981_0" arrivalPos="211.18" arrivalSpeed="14.19" duration="33.00" routeLength="279.54" waitingTime="0.00" waitingCount="0" stopTime="0.00" timeLoss="11.74" rerouteNo="0" devices="tripinfo_flow_route_90_duration_20250327_2040.0" vType="car" speedFactor="0.86" vaporized=""/>
    <tripinfo id="flow_route_84_duration_20250327_2040.0" depart="0.00" departLane="1091883842_0" departPos="11.19" departSpeed="0.00" departDelay="0.00" arrival="36.00" arrivalLane="136617981_0" arrivalPos="210.65" arrivalSpeed="16.14" duration="36.00" routeLength="417.75" waitingTime="0.00" waitingCount="0" stopTime="0.00" timeLoss="10.82" rerouteNo="0" devices="tripinfo_flow_route_84_duration_20250327_2040.0" vType="car" speedFactor="1.05" vaporized=""/>
    <tripinfo id="flow_route_81_duration_20250327_2040.0" depart="0.00" departLane="380344611#0_0" departPos="75.01" departSpeed="0.00" departDelay="0.00" arrival="40.00" arrivalLane="133000063_2" arrivalPos="7.51" arrivalSpeed="6.27" duration="40.00" routeLength="248.37" waitingTime="3.00" waitingCount="1" stopTime="0.00" timeLoss="20.95" rerouteNo="0" devices="tripinfo_flow_route_81_duration_20250327_2040.0" vType="car" speedFactor="0.83" vaporized=""/>
    <tripinfo id="flow_route_81_duration_20250327_2040.1" depart="5.00" departLane="380344611#0_0" departPos="87.07" departSpeed="0.00" departDelay="0.00" arrival="43.00" arrivalLane="133000063_2" arrivalPos="7.96" arrivalSpeed="7.68" duration="38.00" routeLength="236.75" waitingTime="2.00" waitingCount="1" stopTime="0.00" timeLoss="22.91" rerouteNo="0" devices="tripinfo_flow_route_81_duration_20250327_2040.1" vType="car" speedFactor="1.09" vaporized=""/>
    <tripinfo id="flow_route_84_duration_20250327_2040.1" depart="12.00" departLane="1091883842_0" departPos="61.53" departSpeed="0.00" departDelay="0.00" arrival="45.00" arrivalLane="136617981_0" arrivalPos="194.16" arrivalSpeed="15.47" duration="33.00" routeLength="350.93" waitingTime="0.00" waitingCount="0" stopTime="0.00" timeLoss="10.05" rerouteNo="0" devices="tripinfo_flow_route_84_duration_20250327_2040.1" vType="car" speedFactor="0.94" vaporized=""/>
    <tripinfo id="flow_route_81_duration_20250327_2040.4" depart="20.00" departLane="380344611#0_0" departPos="169.07" departSpeed="0.00" departDelay="0.00" arrival="55.00" arrivalLane="133000063_2" arrivalPos="123.25" arrivalSpeed="14.42" duration="35.00" routeLength="270.05" waitingTime="0.00" waitingCount="0" stopTime="0.00" timeLoss="15.63" rerouteNo="0" devices="tripinfo_flow_route_81_duration_20250327_2040.4" vType="car" speedFactor="0.89" vaporized=""/>
    <tripinfo id="flow_route_81_duration_20250327_2040.2" depart="10.00" departLane="380344611#0_0" departPos="45.12" departSpeed="0.00" departDelay="0.00" arrival="58.00" arrivalLane="133000063_2" arrivalPos="131.68" arrivalSpeed="15.42" duration="48.00" routeLength="402.43" waitingTime="0.00" waitingCount="0" stopTime="0.00" timeLoss="20.84" rerouteNo="0" devices="tripinfo_flow_route_81_duration_20250327_2040.2" vType="car" speedFactor="0.93" vaporized=""/>
    <tripinfo id="flow_route_79_duration_20250327_2040.1" depart="30.00" departLane="380344611#0_0" departPos="24.39" departSpeed="0.00" departDelay="0.00" arrival="61.00" arrivalLane="423956929_2" arrivalPos="33.21" arrivalSpeed="16.43" duration="31.00" routeLength="324.63" waitingTime="0.00" waitingCount="0" stopTime="0.00" timeLoss="11.35" rerouteNo="0" devices="tripinfo_flow_route_79_duration_20250327_2040.1" vType="car" speedFactor="1.01" vaporized=""/>
    <tripinfo id="flow_route_81_duration_20250327_2040.3" depart="15.00" departLane="380344611#0_0" departPos="63.27" departSpeed="0.00" departDelay="0.00" arrival="62.00" arrivalLane="133000063_2" arrivalPos="166.13" arrivalSpeed="16.20" duration="47.00" routeLength="418.73" waitingTime="0.00" waitingCount="0" stopTime="0.00" timeLoss="20.70" rerouteNo="0" devices="tripinfo_flow_route_81_duration_20250327_2040.3" vType="car" speedFactor="1.16" vaporized=""/>
    <tripinfo id="flow_route_81_duration_20250327_2040.7" depart="35.00" departLane="380344611#0_0" departPos="82.25" departSpeed="0.00" departDelay="0.00" arrival="63.00" arrivalLane="133000063_2" arrivalPos="13.78" arrivalSpeed="10.53" duration="28.00" routeLength="247.40" waitingTime="0.00" waitingCount="0" stopTime="0.00" timeLoss="11.89" rerouteNo="0" devices="tripinfo_flow_route_81_duration_20250327_2040.7" vType="car" speedFactor="0.97" vaporized=""/>
    <tripinfo id="flow_route_81_duration_20250327_2040.6" depart="30.00" departLane="380344611#0_0" departPos="160.83" departSpeed="0.00" departDelay="0.00" arrival="65.00" arrivalLane="133000063_2" arrivalPos="170.91" arrivalSpeed="16.56" duration="35.00" routeLength="325.95" waitingTime="0.00" waitingCount="0" stopTime="0.00" timeLoss="14.74" rerouteNo="0" devices="tripinfo_flow_route_81_duration_20250327_2040.6" vType="car" speedFactor="1.17" vaporized=""/>
    <tripinfo id="flow_route_81_duration_20250327_2040.5" depart="25.00" departLane="380344611#0_0" departPos="51.99" departSpeed="0.00" departDelay="0.00" arrival="67.00" arrivalLane="133000063_2" arrivalPos="164.47" arrivalSpeed="15.76" duration="42.00" routeLength="428.35" waitingTime="0.00" waitingCount="0" stopTime="0.00" timeLoss="13.35" rerouteNo="0" devices="tripinfo_flow_route_81_duration_20250327_2040.5" vType="car" speedFactor="0.95" vaporized=""/>
    <tripinfo id="flow_route_81_duration_20250327_2040.11" depart="55.00" departLane="380344611#0_0" departPos="239.75" departSpeed="0.00" departDelay="0.00" arrival="76.00" arrivalLane="133000063_2" arrivalPos="67.29" arrivalSpeed="13.71" duration="21.00" routeLength="143.40" waitingTime="0.00" waitingCount="0" stopTime="0.00" timeLoss="11.42" rerouteNo="0" devices="tripinfo_flow_route_81_duration_20250327_2040.11" vType="car" speedFactor="1.00" vaporized=""/>
    <tripinfo id="flow_route_77_duration_20250327_2040.1" depart="30.00" departLane="133342692#0_0" departPos="58.12" departSpeed="0.00" departDelay="0.00" arrival="82.00" arrivalLane="423956929_0" arrivalPos="12.43" arrivalSpeed="6.92" duration="52.00" routeLength="136.83" waitingTime="26.00" waitingCount="1" stopTime="0.00" timeLoss="43.17" rerouteNo="0" devices="tripinfo_flow_route_77_duration_20250327_2040.1" vType="car" speedFactor="1.15" vaporized=""/>
    <tripinfo id="flow_route_81_duration_20250327_2040.10" depart="50.00" departLane="380344611#0_0" departPos="201.96" departSpeed="0.00" departDelay="0.00" arrival="83.00" arrivalLane="133000063_2" arrivalPos="134.52" arrivalSpeed="14.11" duration="33.00" routeLength="248.43" waitingTime="0.00" waitingCount="0" stopTime="0.00" timeLoss="13.99" rerouteNo="0" devices="tripinfo_flow_route_81_duration_20250327_2040.10" vType="car" speedFactor="0.85" vaporized=""/>
    <tripinfo id="flow_route_89_duration_20250327_2040.3" depart="15.00" departLane="380585338#0_0" departPos="45.86" departSpeed="0.00" departDelay="2.15" arrival="86.00" arrivalLane="380593307#0_1" arrivalPos="22.46" arrivalSpeed="10.16" duration="71.00" routeLength="186.87" waitingTime="38.00" waitingCount="1" stopTime="0.00" timeLoss="58.76" rerouteNo="0" devices="tripinfo_flow_route_89_duration_20250327_2040.3" vType="car" speedFactor="0.94" vaporized=""/>
    <tripinfo id="flow_route_89_duration_20250327_2040.4" depart="18.00" departLane="380585338#0_0" departPos="15.46" departSpeed="0.00" departDelay="0.86" arrival="89.00" arrivalLane="380593307#0_2" arrivalPos="41.91" arrivalSpeed="10.89" duration="71.00" routeLength="236.72" waitingTime="34.00" waitingCount="1" stopTime="0.00" timeLoss="56.62" rerouteNo="0" devices="tripinfo_flow_route_89_duration_20250327_2040.4" vType="car" speedFactor="1.01" vaporized=""/>
    <tripinfo id="flow_route_89_duration_20250327_2040.0" depart="0.00" departLane="380585338#0_0" departPos="55.91" departSpeed="0.00" departDelay="0.00" arrival="90.00" arrivalLane="380593307#0_1" arrivalPos="94.67" arrivalSpeed="14.77" duration="90.00" routeLength="249.03" waitingTime="51.00" waitingCount="1" stopTime="0.00" timeLoss="73.28" rerouteNo="0" devices="tripinfo_flow_route_89_duration_20250327_2040.0" vType="car" speedFactor="0.94" vaporized=""/>
    <tripinfo id="flow_route_89_duration_20250327_2040.1" depart="5.00" departLane="380585338#0_0" departPos="110.00" departSpeed="0.00" departDelay="0.72" arrival="90.00" arrivalLane="380593307#0_0" arrivalPos="89.06" arrivalSpeed="13.38" duration="85.00" routeLength="189.32" waitingTime="54.00" waitingCount="1" stopTime="0.00" timeLoss="73.17" rerouteNo="0" devices="tripinfo_flow_route_89_duration_20250327_2040.1" vType="car" speedFactor="1.03" vaporized=""/>
    <tripinfo id="flow_route_90_duration_20250327_2040.1" depart="9.00" departLane="380585338#0_0" departPos="52.40" departSpeed="0.00" departDelay="0.43" arrival="90.00" arrivalLane="136617981_0" arrivalPos="67.09" arrivalSpeed="11.94" duration="81.00" routeLength="201.76" waitingTime="42.00" waitingCount="1" stopTime="0.00" timeLoss="67.79" rerouteNo="0" devices="tripinfo_flow_route_90_duration_20250327_2040.1" vType="car" speedFactor="0.99" vaporized=""/>
    <tripinfo id="flow_route_77_duration_20250327_2040.0" depart="0.00" departLane="133342692#0_0" departPos="115.39" departSpeed="0.00" departDelay="0.00" arrival="91.00" arrivalLane="423956929_0" arrivalPos="132.19" arrivalSpeed="14.72" duration="91.00" routeLength="199.33" waitingTime="59.00" waitingCount="1" stopTime="0.00" timeLoss="76.94" rerouteNo="0" devices="tripinfo_flow_route_77_duration_20250327_2040.0" vType="car" speedFactor="0.94" vaporized=""/>
    <tripinfo id="flow_route_89_duration_20250327_2040.2" depart="9.00" departLane="380585338#0_0" departPos="5.63" departSpeed="0.00" departDelay="0.43" arrival="91.00" arrivalLane="380593307#0_2" arrivalPos="94.50" arrivalSpeed="13.92" duration="82.00" routeLength="299.14" waitingTime="40.00" waitingCount="1" stopTime="0.00" timeLoss="63.86" rerouteNo="0" devices="tripinfo_flow_route_89_duration_20250327_2040.2" vType="car" speedFactor="1.12" vaporized=""/>
    <tripinfo id="flow_route_89_duration_20250327_2040.7" depart="30.00" departLane="380585338#0_0" departPos="35.98" departSpeed="0.00" departDelay="0.01" arrival="93.00" arrivalLane="380593307#0_1" arrivalPos="54.49" arrivalSpeed="13.13" duration="63.00" routeLength="228.78" waitingTime="26.00" waitingCount="1" stopTime="0.00" timeLoss="48.82" rerouteNo="0" devices="tripinfo_flow_route_89_duration_20250327_2040.7" vType="car" speedFactor="0.99" vaporized=""/>
    <tripinfo id="flow_route_90_duration_20250327_2040.3" depart="26.00" departLane="380585338#0_0" departPos="48.42" departSpeed="0.00" departDelay="0.29" arrival="94.00" arrivalLane="136617981_0" arrivalPos="43.03" arrivalSpeed="10.63" duration="68.00" routeLength="181.68" waitingTime="27.00" waitingCount="1" stopTime="0.00" timeLoss="54.82" rerouteNo="0" devices="tripinfo_flow_route_90_duration_20250327_2040.3" vType="car" speedFactor="0.93" vaporized=""/>
    <tripinfo id="flow_route_76_duration_20250327_2040.0" depart="0.00" departLane="133342692#0_0" departPos="1.03" departSpeed="0.00" departDelay="0.00" arrival="95.00" arrivalLane="133000063_0" arrivalPos="153.47" arrivalSpeed="16.14" duration="95.00" routeLength="359.35" waitingTime="50.00" waitingCount="1" stopTime="0.00" timeLoss="72.70" rerouteNo="0" devices="tripinfo_flow_route_76_duration_20250327_2040.0" vType="car" speedFactor="1.06" vaporized=""/>
    <tripinfo id="flow_route_90_duration_20250327_2040.4" depart="36.00" departLane="380585338#0_0" departPos="106.81" departSpeed="0.00" departDelay="1.72" arrival="95.00" arrivalLane="136617981_0" arrivalPos="99.72" arrivalSpeed="14.60" duration="59.00" routeLength="179.98" waitingTime="28.00" waitingCount="1" stopTime="0.00" timeLoss="46.96" rerouteNo="0" devices="tripinfo_flow_route_90_duration_20250327_2040.4" vType="car" speedFactor="1.10" vaporized=""/>
    <tripinfo id="flow_route_89_duration_20250327_2040.12" depart="52.00" departLane="380585338#0_0" departPos="24.51" departSpeed="0.00" departDelay="0.58" arrival="96.00" arrivalLane="380593307#0_2" arrivalPos="21.58" arrivalSpeed="10.80" duration="44.00" routeLength="207.34" waitingTime="5.00" waitingCount="1" stopTime="0.00" timeLoss="31.05" rerouteNo="0" devices="tripinfo_flow_route_89_duration_20250327_2040.12" vType="car" speedFactor="1.17" vaporized=""/>
    <tripinfo id="flow_route_89_duration_20250327_2040.6" depart="26.00" departLane="380585338#0_0" departPos="4.83" departSpeed="0.00" departDelay="0.29" arrival="97.00" arrivalLane="380593307#0_2" arrivalPos="111.40" arrivalSpeed="15.40" duration="71.00" routeLength="316.83" waitingTime="26.00" waitingCount="1" stopTime="0.00" timeLoss="51.19" rerouteNo="0" devices="tripinfo_flow_route_89_duration_20250327_2040.6" vType="car" speedFactor="1.13" vaporized=""/>
    <tripinfo id="flow_route_89_duration_20250327_2040.13" depart="56.00" departLane="380585338#0_0" departPos="59.83" departSpeed="0.00" departDelay="0.30" arrival="97.00" arrivalLane="380593307#0_1" arrivalPos="26.66" arrivalSpeed="12.65" duration="41.00" routeLength="177.10" waitingTime="6.00" waitingCount="1" stopTime="0.00" timeLoss="29.75" rerouteNo="0" devices="tripinfo_flow_route_89_duration_20250327_2040.13" vType="car" speedFactor="1.00" vaporized=""/>
    <tripinfo id="flow_route_89_duration_20250327_2040.5" depart="22.00" departLane="380585338#0_0" departPos="53.45" departSpeed="0.00" departDelay="0.58" arrival="98.00" arrivalLane="380593307#0_1" arrivalPos="162.33" arrivalSpeed="14.53" duration="76.00" routeLength="319.16" waitingTime="34.00" waitingCount="1" stopTime="0.00" timeLoss="54.01" rerouteNo="0" devices="tripinfo_flow_route_89_duration_20250327_2040.5" vType="car" speedFactor="0.87" vaporized=""/>
    <tripinfo id="flow_route_90_duration_20250327_2040.2" depart="18.00" departLane="380585338#0_0" departPos="116.02" departSpeed="0.00" departDelay="0.86" arrival="99.00" arrivalLane="136617981_0" arrivalPos="230.05" arrivalSpeed="16.06" duration="81.00" routeLength="301.10" waitingTime="42.00" waitingCount="1" stopTime="0.00" timeLoss="61.40" rerouteNo="0" devices="tripinfo_flow_route_90_duration_20250327_2040.2" vType="car" speedFactor="0.97" vaporized=""/>
    <tripinfo id="flow_route_89_duration_20250327_2040.8" depart="35.00" departLane="380585338#0_0" departPos="36.88" departSpeed="0.00" departDelay="0.72" arrival="99.00" arrivalLane="380593307#0_2" arrivalPos="125.32" arrivalSpeed="16.41" duration="64.00" routeLength="298.72" waitingTime="19.00" waitingCount="1" stopTime="0.00" timeLoss="45.63" rerouteNo="0" devices="tripinfo_flow_route_89_duration_20250327_2040.8" vType="car" speedFactor="1.18" vaporized=""/>
    <tripinfo id="flow_route_89_duration_20250327_2040.9" depart="40.00" departLane="380585338#0_0" departPos="4.14" departSpeed="0.00" departDelay="1.44" arrival="101.00" arrivalLane="380593307#0_1" arrivalPos="143.32" arrivalSpeed="15.86" duration="61.00" routeLength="349.45" waitingTime="15.00" waitingCount="1" stopTime="0.00" timeLoss="38.24" rerouteNo="0" devices="tripinfo_flow_route_89_duration_20250327_2040.9" vType="car" speedFactor="0.96" vaporized=""/>
    <tripinfo id="flow_route_89_duration_20250327_2040.11" depart="48.00" departLane="380585338#0_0" departPos="80.98" departSpeed="0.00" departDelay="0.87" arrival="101.00" arrivalLane="380593307#0_1" arrivalPos="121.44" arrivalSpeed="14.39" duration="53.00" routeLength="250.73" waitingTime="11.00" waitingCount="1" stopTime="0.00" timeLoss="35.60" rerouteNo="0" devices="tripinfo_flow_route_89_duration_20250327_2040.11" vType="car" speedFactor="0.88" vaporized=""/>
    <tripinfo id="flow_route_78_duration_20250327_2040.0" depart="0.00" departLane="133342692#0_0" departPos="79.92" departSpeed="0.00" departDelay="0.00" arrival="103.00" arrivalLane="136617981_2" arrivalPos="12.89" arrivalSpeed="6.80" duration="103.00" routeLength="138.43" waitingTime="68.00" waitingCount="2" stopTime="0.00" timeLoss="93.63" rerouteNo="0" devices="tripinfo_flow_route_78_duration_20250327_2040.0" vType="car" speedFactor="1.01" vaporized=""/>
    <tripinfo id="flow_route_89_duration_20250327_2040.10" depart="47.00" departLane="380585338#0_0" departPos="51.46" departSpeed="0.00" departDelay="4.15" arrival="103.00" arrivalLane="380593307#0_2" arrivalPos="152.00" arrivalSpeed="16.57" duration="56.00" routeLength="310.82" waitingTime="9.00" waitingCount="1" stopTime="0.00" timeLoss="37.00" rerouteNo="0" devices="tripinfo_flow_route_89_duration_20250327_2040.10" vType="car" speedFactor="1.04" vaporized=""/>
    <tripinfo id="flow_route_90_duration_20250327_2040.5" depart="47.00" departLane="380585338#0_0" departPos="71.38" departSpeed="0.00" departDelay="4.15" arrival="108.00" arrivalLane="136617981_0" arrivalPos="177.20" arrivalSpeed="16.21" duration="61.00" routeLength="292.89" waitingTime="10.00" waitingCount="1" stopTime="0.00" timeLoss="41.58" rerouteNo="0" devices="tripinfo_flow_route_90_duration_20250327_2040.5" vType="car" speedFactor="1.04" vaporized=""/>
    <tripinfo id="flow_route_90_duration_20250327_2040.6" depart="55.00" departLane="380585338#0_0" departPos="117.27" departSpeed="0.00" departDelay="3.57" arrival="108.00" arrivalLane="136617981_0" arrivalPos="202.16" arrivalSpeed="16.30" duration="53.00" routeLength="271.96" waitingTime="14.00" waitingCount="1" stopTime="0.00" timeLoss="34.86" rerouteNo="0" devices="tripinfo_flow_route_90_duration_20250327_2040.6" vType="car" speedFactor="1.02" vaporized=""/>
    <tripinfo id="flow_route_78_duration_20250327_2040.3" depart="17.00" departLane="133342692#0_0" departPos="98.00" departSpeed="0.00" departDelay="0.64" arrival="110.00" arrivalLane="136617981_2" arrivalPos="47.60" arrivalSpeed="10.19" duration="93.00" routeLength="155.06" waitingTime="53.00" waitingCount="2" stopTime="0.00" timeLoss="83.03" rerouteNo="0" devices="tripinfo_flow_route_78_duration_20250327_2040.3" vType="car" speedFactor="1.02" vaporized=""/>
    <tripinfo id="flow_route_78_duration_20250327_2040.10" depart="56.00" departLane="133342692#0_0" departPos="155.06" departSpeed="0.00" departDelay="1.46" arrival="116.00" arrivalLane="136617981_2" arrivalPos="12.07" arrivalSpeed="9.74" duration="60.00" routeLength="62.47" waitingTime="43.00" waitingCount="3" stopTime="0.00" timeLoss="55.22" rerouteNo="0" devices="tripinfo_flow_route_78_duration_20250327_2040.10" vType="car" speedFactor="1.10" vaporized=""/>
    <tripinfo id="flow_route_78_duration_20250327_2040.5" depart="28.00" departLane="133342692#0_0" departPos="159.12" departSpeed="0.00" departDelay="0.73" arrival="120.00" arrivalLane="136617981_2" arrivalPos="154.97" arrivalSpeed="16.26" duration="92.00" routeLength="201.30" waitingTime="62.00" waitingCount="4" stopTime="0.00" timeLoss="78.86" rerouteNo="0" devices="tripinfo_flow_route_78_duration_20250327_2040.5" vType="car" speedFactor="1.18" vaporized=""/>
    <tripinfo id="flow_route_78_duration_20250327_2040.1" depart="8.00" departLane="133342692#0_0" departPos="67.99" departSpeed="0.00" departDelay="2.55" arrival="124.00" arrivalLane="136617981_2" arrivalPos="266.14" arrivalSpeed="16.24" duration="116.00" routeLength="403.61" waitingTime="59.00" waitingCount="2" stopTime="0.00" timeLoss="90.33" rerouteNo="0" devices="tripinfo_flow_route_78_duration_20250327_2040.1" vType="car" speedFactor="1.05" vaporized=""/>
    <tripinfo id="flow_route_78_duration_20250327_2040.6" depart="33.00" departLane="133342692#0_0" departPos="8.03" departSpeed="0.00" departDelay="0.28" arrival="126.00" arrivalLane="136617981_2" arrivalPos="51.20" arrivalSpeed="12.03" duration="93.00" routeLength="248.63" waitingTime="41.00" waitingCount="2" stopTime="0.00" timeLoss="77.20" rerouteNo="0" devices="tripinfo_flow_route_78_duration_20250327_2040.6" vType="car" speedFactor="1.02" vaporized=""/>
    <tripinfo id="flow_route_78_duration_20250327_2040.2" depart="11.00" departLane="133342692#0_0" departPos="5.11" departSpeed="0.00" departDelay="0.09" arrival="131.00" arrivalLane="136617981_2" arrivalPos="271.12" arrivalSpeed="14.60" duration="120.00" routeLength="471.46" waitingTime="55.00" waitingCount="3" stopTime="0.00" timeLoss="86.64" rerouteNo="0" devices="tripinfo_flow_route_78_duration_20250327_2040.2" vType="car" speedFactor="0.88" vaporized=""/>
    <tripinfo id="flow_route_78_duration_20250327_2040.8" depart="44.00" departLane="133342692#0_0" departPos="121.86" departSpeed="0.00" departDelay="0.37" arrival="131.00" arrivalLane="136617981_2" arrivalPos="139.64" arrivalSpeed="16.33" duration="87.00" routeLength="223.24" waitingTime="44.00" waitingCount="2" stopTime="0.00" timeLoss="72.30" rerouteNo="0" devices="tripinfo_flow_route_78_duration_20250327_2040.8" vType="car" speedFactor="1.09" vaporized=""/>
    <tripinfo id="flow_route_78_duration_20250327_2040.4" depart="23.00" departLane="133342692#0_0" departPos="84.45" departSpeed="0.00" departDelay="1.18" arrival="132.00" arrivalLane="136617981_2" arrivalPos="196.02" arrivalSpeed="13.46" duration="109.00" routeLength="317.02" waitingTime="58.00" waitingCount="2" stopTime="0.00" timeLoss="84.28" rerouteNo="0" devices="tripinfo_flow_route_78_duration_20250327_2040.4" vType="car" speedFactor="0.83" vaporized=""/>
    <tripinfo id="flow_route_78_duration_20250327_2040.7" depart="41.00" departLane="133342692#0_0" departPos="17.95" departSpeed="0.00" departDelay="2.82" arrival="137.00" arrivalLane="136617981_2" arrivalPos="145.34" arrivalSpeed="15.65" duration="96.00" routeLength="332.85" waitingTime="34.00" waitingCount="2" stopTime="0.00" timeLoss="74.99" rerouteNo="0" devices="tripinfo_flow_route_78_duration_20250327_2040.7" vType="car" speedFactor="1.03" vaporized=""/>
    <tripinfo id="flow_route_78_duration_20250327_2040.9" depart="50.00" departLane="133342692#0_0" departPos="48.21" departSpeed="0.00" departDelay="0.91" arrival="142.00" arrivalLane="136617981_2" arrivalPos="187.57" arrivalSpeed="14.00" duration="92.00" routeLength="344.82" waitingTime="32.00" waitingCount="2" stopTime="0.00" timeLoss="66.23" rerouteNo="0" devices="tripinfo_flow_route_78_duration_20250327_2040.9" vType="car" speedFactor="0.85" vaporized=""/>
    <tripinfo id="flow_route_84_duration_20250327_2040.3" depart="36.00" departLane="1091883842_0" departPos="72.38" departSpeed="0.00" departDelay="0.00" arrival="166.00" arrivalLane="136617981_1" arrivalPos="119.95" arrivalSpeed="14.54" duration="130.00" routeLength="265.86" waitingTime="91.00" waitingCount="1" stopTime="0.00" timeLoss="111.42" rerouteNo="0" devices="tripinfo_flow_route_84_duration_20250327_2040.3" vType="car" speedFactor="0.90" vaporized=""/>
    <tripinfo id="flow_route_84_duration_20250327_2040.4" depart="48.00" departLane="1091883842_0" departPos="18.85" departSpeed="0.00" departDelay="0.00" arrival="167.00" arrivalLane="136617981_0" arrivalPos="97.18" arrivalSpeed="15.00" duration="119.00" routeLength="296.61" waitingTime="77.00" waitingCount="1" stopTime="0.00" timeLoss="98.37" rerouteNo="0" devices="tripinfo_flow_route_84_duration_20250327_2040.4" vType="car" speedFactor="0.90" vaporized=""/>
    <tripinfo id="flow_route_84_duration_20250327_2040.2" depart="24.00" departLane="1091883842_0" departPos="31.27" departSpeed="0.00" departDelay="0.00" arrival="169.00" arrivalLane="136617981_0" arrivalPos="164.40" arrivalSpeed="14.98" duration="145.00" routeLength="351.42" waitingTime="101.00" waitingCount="1" stopTime="0.00" timeLoss="121.61" rerouteNo="0" devices="tripinfo_flow_route_84_duration_20250327_2040.2" vType="car" speedFactor="0.92" vaporized=""/>
    <tripinfo id="flow_route_81_duration_20250327_2040.8" depart="40.00" departLane="380344611#0_0" departPos="85.85" departSpeed="0.00" departDelay="0.00" arrival="172.00" arrivalLane="133000063_2" arrivalPos="62.90" arrivalSpeed="11.12" duration="132.00" routeLength="292.92" waitingTime="77.00" waitingCount="2" stopTime="0.00" timeLoss="113.83" rerouteNo="0" devices="tripinfo_flow_route_81_duration_20250327_2040.8" vType="car" speedFactor="1.09" vaporized=""/>
    <tripinfo id="flow_route_81_duration_20250327_2040.9" depart="45.00" departLane="380344611#0_0" departPos="162.67" departSpeed="0.00" departDelay="0.00" arrival="172.00" arrivalLane="133000063_2" arrivalPos="78.50" arrivalSpeed="12.56" duration="127.00" routeLength="231.70" waitingTime="78.00" waitingCount="2" stopTime="0.00" timeLoss="111.86" rerouteNo="0" devices="tripinfo_flow_route_81_duration_20250327_2040.9" vType="car" speedFactor="1.00" vaporized=""/>
</tripinfos>
