<?xml version="1.0" encoding="UTF-8"?>

<!-- generated on 2025-05-06 21:08:44 by Eclipse SUMO sumo Version 1.20.0
<configuration xmlns:xsi="http://www.w3.org/2001/XMLSchema-instance" xsi:noNamespaceSchemaLocation="http://sumo.dlr.de/xsd/sumoConfiguration.xsd">

    <input>
        <net-file value="osm.net.xml"/>
        <route-files value="xml/route_rl_cluster3839130731_cluster_11644940326_11644940327_11648561426_6.rou.xml"/>
    </input>

    <output>
        <tripinfo-output value="xml/tripinfo_rl_cluster3839130731_cluster_11644940326_11644940327_11648561426_6.xml"/>
    </output>

    <traci_server>
        <remote-port value="53063"/>
    </traci_server>

</configuration>
-->

<tripinfos xmlns:xsi="http://www.w3.org/2001/XMLSchema-instance" xsi:noNamespaceSchemaLocation="http://sumo.dlr.de/xsd/tripinfo_file.xsd">
    <tripinfo id="flow_route_123_duration_20250327_2050.0" depart="0.00" departLane="189240000#0-AddedOnRampEdge_0" departPos="5.69" departSpeed="0.00" departDelay="0.00" arrival="22.00" arrivalLane="1254519229#0_1" arrivalPos="19.69" arrivalSpeed="12.20" duration="22.00" routeLength="159.84" waitingTime="0.00" waitingCount="0" stopTime="0.00" timeLoss="10.58" rerouteNo="0" devices="tripinfo_flow_route_123_duration_20250327_2050.0" vType="car" speedFactor="0.89" vaporized=""/>
    <tripinfo id="flow_route_123_duration_20250327_2050.1" depart="10.00" departLane="189240000#0-AddedOnRampEdge_0" departPos="91.06" departSpeed="0.00" departDelay="0.00" arrival="22.00" arrivalLane="1254519229#0_0" arrivalPos="9.98" arrivalSpeed="9.79" duration="12.00" routeLength="61.24" waitingTime="0.00" waitingCount="0" stopTime="0.00" timeLoss="7.78" rerouteNo="0" devices="tripinfo_flow_route_123_duration_20250327_2050.1" vType="car" speedFactor="1.16" vaporized=""/>
    <tripinfo id="flow_route_96_duration_20250327_2050.0" depart="0.00" departLane="1341093416#0_0" departPos="184.53" departSpeed="0.00" departDelay="0.00" arrival="26.00" arrivalLane="1254519229#0_1" arrivalPos="3.62" arrivalSpeed="3.59" duration="26.00" routeLength="114.10" waitingTime="3.00" waitingCount="1" stopTime="0.00" timeLoss="17.82" rerouteNo="0" devices="tripinfo_flow_route_96_duration_20250327_2050.0" vType="car" speedFactor="1.01" vaporized=""/>
    <tripinfo id="flow_route_94_duration_20250327_2050.1" depart="12.00" departLane="1341093416#0_0" departPos="222.56" departSpeed="0.00" departDelay="2.00" arrival="32.00" arrivalLane="799091563#0_0" arrivalPos="49.13" arrivalSpeed="14.49" duration="20.00" routeLength="132.92" waitingTime="0.00" waitingCount="0" stopTime="0.00" timeLoss="10.89" rerouteNo="0" devices="tripinfo_flow_route_94_duration_20250327_2050.1" vType="car" speedFactor="0.94" vaporized=""/>
    <tripinfo id="flow_route_124_duration_20250327_2050.0" depart="0.00" departLane="189240000#0-AddedOnRampEdge_0" departPos="82.66" departSpeed="0.00" departDelay="0.00" arrival="34.00" arrivalLane="1254519225#0.109_3" arrivalPos="34.02" arrivalSpeed="15.27" duration="34.00" routeLength="196.39" waitingTime="3.00" waitingCount="1" stopTime="0.00" timeLoss="19.89" rerouteNo="0" devices="tripinfo_flow_route_124_duration_20250327_2050.0" vType="car" speedFactor="0.94" vaporized=""/>
    <tripinfo id="flow_route_95_duration_20250327_2050.5" depart="15.00" departLane="1341093416#0_0" departPos="263.21" departSpeed="0.00" departDelay="0.72" arrival="35.00" arrivalLane="1254519225#0.109_0" arrivalPos="37.20" arrivalSpeed="14.50" duration="20.00" routeLength="156.36" waitingTime="0.00" waitingCount="0" stopTime="0.00" timeLoss="8.25" rerouteNo="0" devices="tripinfo_flow_route_95_duration_20250327_2050.5" vType="car" speedFactor="0.89" vaporized=""/>
    <tripinfo id="flow_route_94_duration_20250327_2050.0" depart="0.00" departLane="1341093416#0_0" departPos="204.30" departSpeed="0.00" departDelay="0.00" arrival="37.00" arrivalLane="799091563#0_0" arrivalPos="338.33" arrivalSpeed="16.13" duration="37.00" routeLength="440.38" waitingTime="0.00" waitingCount="0" stopTime="0.00" timeLoss="9.73" rerouteNo="0" devices="tripinfo_flow_route_94_duration_20250327_2050.0" vType="car" speedFactor="1.06" vaporized=""/>
    <tripinfo id="flow_route_95_duration_20250327_2050.1" depart="4.00" departLane="1341093416#0_0" departPos="173.69" departSpeed="0.00" departDelay="1.14" arrival="41.00" arrivalLane="1254519225#0.109_0" arrivalPos="42.65" arrivalSpeed="14.09" duration="37.00" routeLength="251.33" waitingTime="0.00" waitingCount="0" stopTime="0.00" timeLoss="19.02" rerouteNo="0" devices="tripinfo_flow_route_95_duration_20250327_2050.1" vType="car" speedFactor="0.86" vaporized=""/>
    <tripinfo id="flow_route_95_duration_20250327_2050.2" depart="6.00" departLane="1341093416#0_0" departPos="108.74" departSpeed="0.00" departDelay="0.29" arrival="43.00" arrivalLane="1254519225#0.109_0" arrivalPos="55.38" arrivalSpeed="16.11" duration="37.00" routeLength="329.01" waitingTime="0.00" waitingCount="0" stopTime="0.00" timeLoss="15.99" rerouteNo="0" devices="tripinfo_flow_route_95_duration_20250327_2050.2" vType="car" speedFactor="1.05" vaporized=""/>
    <tripinfo id="flow_route_96_duration_20250327_2050.1" depart="8.00" departLane="1341093416#0_0" departPos="82.74" departSpeed="0.00" departDelay="0.50" arrival="43.00" arrivalLane="1254519229#0_1" arrivalPos="43.31" arrivalSpeed="8.54" duration="35.00" routeLength="255.58" waitingTime="0.00" waitingCount="0" stopTime="0.00" timeLoss="18.43" rerouteNo="0" devices="tripinfo_flow_route_96_duration_20250327_2050.1" vType="car" speedFactor="1.12" vaporized=""/>
    <tripinfo id="flow_route_111_duration_20250327_2050.0" depart="0.00" departLane="1253188486#8_0" departPos="138.93" departSpeed="0.00" departDelay="0.00" arrival="46.00" arrivalLane="1254519229#0_1" arrivalPos="3.47" arrivalSpeed="7.77" duration="46.00" routeLength="140.76" waitingTime="16.00" waitingCount="1" stopTime="0.00" timeLoss="37.12" rerouteNo="0" devices="tripinfo_flow_route_111_duration_20250327_2050.0" vType="car" speedFactor="0.83" vaporized=""/>
    <tripinfo id="flow_route_124_duration_20250327_2050.1" depart="4.00" departLane="189240000#0-AddedOnRampEdge_0" departPos="77.82" departSpeed="0.00" departDelay="0.25" arrival="46.00" arrivalLane="1254519225#0.109_3" arrivalPos="19.16" arrivalSpeed="13.95" duration="42.00" routeLength="186.36" waitingTime="7.00" waitingCount="2" stopTime="0.00" timeLoss="29.36" rerouteNo="0" devices="tripinfo_flow_route_124_duration_20250327_2050.1" vType="car" speedFactor="1.03" vaporized=""/>
    <tripinfo id="flow_route_124_duration_20250327_2050.3" depart="12.00" departLane="189240000#0-AddedOnRampEdge_0" departPos="67.56" departSpeed="0.00" departDelay="0.75" arrival="48.00" arrivalLane="1254519225#0.109_3" arrivalPos="15.06" arrivalSpeed="14.63" duration="36.00" routeLength="192.53" waitingTime="3.00" waitingCount="1" stopTime="0.00" timeLoss="22.26" rerouteNo="0" devices="tripinfo_flow_route_124_duration_20250327_2050.3" vType="car" speedFactor="0.97" vaporized=""/>
    <tripinfo id="flow_route_111_duration_20250327_2050.1" depart="4.00" departLane="1253188486#8_0" departPos="230.38" departSpeed="0.00" departDelay="0.00" arrival="50.00" arrivalLane="1254519229#0_0" arrivalPos="40.82" arrivalSpeed="9.86" duration="46.00" routeLength="86.65" waitingTime="25.00" waitingCount="1" stopTime="0.00" timeLoss="40.45" rerouteNo="0" devices="tripinfo_flow_route_111_duration_20250327_2050.1" vType="car" speedFactor="1.09" vaporized=""/>
    <tripinfo id="flow_route_111_duration_20250327_2050.2" depart="8.00" departLane="1253188486#8_0" departPos="187.56" departSpeed="0.00" departDelay="0.00" arrival="50.00" arrivalLane="1254519229#0_1" arrivalPos="18.84" arrivalSpeed="9.65" duration="42.00" routeLength="107.49" waitingTime="16.00" waitingCount="1" stopTime="0.00" timeLoss="34.99" rerouteNo="0" devices="tripinfo_flow_route_111_duration_20250327_2050.2" vType="car" speedFactor="0.99" vaporized=""/>
    <tripinfo id="flow_route_111_duration_20250327_2050.4" depart="16.00" departLane="1253188486#8_0" departPos="234.28" departSpeed="0.00" departDelay="0.00" arrival="52.00" arrivalLane="1254519229#0_0" arrivalPos="46.16" arrivalSpeed="10.44" duration="36.00" routeLength="88.10" waitingTime="18.00" waitingCount="2" stopTime="0.00" timeLoss="30.65" rerouteNo="0" devices="tripinfo_flow_route_111_duration_20250327_2050.4" vType="car" speedFactor="0.92" vaporized=""/>
    <tripinfo id="flow_route_111_duration_20250327_2050.9" depart="36.00" departLane="1253188486#8_0" departPos="216.39" departSpeed="0.00" departDelay="0.00" arrival="52.00" arrivalLane="1254519229#0_0" arrivalPos="9.89" arrivalSpeed="9.21" duration="16.00" routeLength="69.72" waitingTime="0.00" waitingCount="0" stopTime="0.00" timeLoss="11.80" rerouteNo="0" devices="tripinfo_flow_route_111_duration_20250327_2050.9" vType="car" speedFactor="1.02" vaporized=""/>
    <tripinfo id="flow_route_111_duration_20250327_2050.6" depart="24.00" departLane="1253188486#8_0" departPos="150.91" departSpeed="0.00" departDelay="0.00" arrival="53.00" arrivalLane="1254519229#0_1" arrivalPos="33.68" arrivalSpeed="10.72" duration="29.00" routeLength="158.98" waitingTime="0.00" waitingCount="0" stopTime="0.00" timeLoss="19.31" rerouteNo="0" devices="tripinfo_flow_route_111_duration_20250327_2050.6" vType="car" speedFactor="1.18" vaporized=""/>
    <tripinfo id="flow_route_111_duration_20250327_2050.3" depart="12.00" departLane="1253188486#8_0" departPos="163.92" departSpeed="0.00" departDelay="0.00" arrival="54.00" arrivalLane="1254519229#0_0" arrivalPos="45.48" arrivalSpeed="11.50" duration="42.00" routeLength="157.78" waitingTime="11.00" waitingCount="1" stopTime="0.00" timeLoss="32.21" rerouteNo="0" devices="tripinfo_flow_route_111_duration_20250327_2050.3" vType="car" speedFactor="1.01" vaporized=""/>
    <tripinfo id="flow_route_111_duration_20250327_2050.7" depart="28.00" departLane="1253188486#8_0" departPos="74.27" departSpeed="0.00" departDelay="0.00" arrival="54.00" arrivalLane="1254519229#0_1" arrivalPos="1.90" arrivalSpeed="11.53" duration="26.00" routeLength="203.84" waitingTime="0.00" waitingCount="0" stopTime="0.00" timeLoss="13.72" rerouteNo="0" devices="tripinfo_flow_route_111_duration_20250327_2050.7" vType="car" speedFactor="0.96" vaporized=""/>
    <tripinfo id="flow_route_111_duration_20250327_2050.8" depart="32.00" departLane="1253188486#8_0" departPos="171.61" departSpeed="0.00" departDelay="0.00" arrival="55.00" arrivalLane="1254519229#0_1" arrivalPos="32.71" arrivalSpeed="11.41" duration="23.00" routeLength="137.32" waitingTime="0.00" waitingCount="0" stopTime="0.00" timeLoss="14.50" rerouteNo="0" devices="tripinfo_flow_route_111_duration_20250327_2050.8" vType="car" speedFactor="0.88" vaporized=""/>
    <tripinfo id="flow_route_104_duration_20250327_2050.0" depart="0.00" departLane="189240001_0" departPos="36.52" departSpeed="0.00" departDelay="0.00" arrival="56.00" arrivalLane="1254519225#0.109_0" arrivalPos="30.66" arrivalSpeed="15.28" duration="56.00" routeLength="198.30" waitingTime="24.00" waitingCount="1" stopTime="0.00" timeLoss="43.87" rerouteNo="0" devices="tripinfo_flow_route_104_duration_20250327_2050.0" vType="car" speedFactor="1.08" vaporized=""/>
    <tripinfo id="flow_route_104_duration_20250327_2050.1" depart="9.00" departLane="189240001_0" departPos="25.96" departSpeed="0.00" departDelay="0.43" arrival="56.00" arrivalLane="1254519225#0.109_0" arrivalPos="1.86" arrivalSpeed="14.00" duration="47.00" routeLength="180.06" waitingTime="16.00" waitingCount="1" stopTime="0.00" timeLoss="35.44" rerouteNo="0" devices="tripinfo_flow_route_104_duration_20250327_2050.1" vType="car" speedFactor="0.94" vaporized=""/>
    <tripinfo id="flow_route_111_duration_20250327_2050.5" depart="20.00" departLane="1253188486#8_0" departPos="21.10" departSpeed="0.00" departDelay="0.00" arrival="60.00" arrivalLane="1254519229#0_0" arrivalPos="78.95" arrivalSpeed="14.11" duration="40.00" routeLength="334.07" waitingTime="0.00" waitingCount="0" stopTime="0.00" timeLoss="19.59" rerouteNo="0" devices="tripinfo_flow_route_111_duration_20250327_2050.5" vType="car" speedFactor="1.01" vaporized=""/>
    <tripinfo id="flow_route_104_duration_20250327_2050.3" depart="27.00" departLane="189240001_0" departPos="28.61" departSpeed="0.00" departDelay="1.29" arrival="61.00" arrivalLane="1254519225#0.109_0" arrivalPos="31.99" arrivalSpeed="14.86" duration="34.00" routeLength="207.54" waitingTime="0.00" waitingCount="0" stopTime="0.00" timeLoss="19.21" rerouteNo="0" devices="tripinfo_flow_route_104_duration_20250327_2050.3" vType="car" speedFactor="0.90" vaporized=""/>
    <tripinfo id="flow_route_104_duration_20250327_2050.4" depart="36.00" departLane="189240001_0" departPos="11.06" departSpeed="0.00" departDelay="1.72" arrival="63.00" arrivalLane="1254519225#0.109_0" arrivalPos="48.73" arrivalSpeed="15.98" duration="27.00" routeLength="241.83" waitingTime="0.00" waitingCount="0" stopTime="0.00" timeLoss="12.12" rerouteNo="0" devices="tripinfo_flow_route_104_duration_20250327_2050.4" vType="car" speedFactor="1.17" vaporized=""/>
    <tripinfo id="flow_route_112_duration_20250327_2050.0" depart="0.00" departLane="1253188486#8_0" departPos="64.90" departSpeed="0.00" departDelay="0.00" arrival="65.00" arrivalLane="799091563#0_0" arrivalPos="282.23" arrivalSpeed="16.29" duration="65.00" routeLength="472.04" waitingTime="7.00" waitingCount="1" stopTime="0.00" timeLoss="35.19" rerouteNo="0" devices="tripinfo_flow_route_112_duration_20250327_2050.0" vType="car" speedFactor="1.05" vaporized=""/>
    <tripinfo id="flow_route_111_duration_20250327_2050.10" depart="40.00" departLane="1253188486#8_0" departPos="105.71" departSpeed="0.00" departDelay="0.00" arrival="65.00" arrivalLane="1254519229#0_0" arrivalPos="71.97" arrivalSpeed="16.28" duration="25.00" routeLength="242.48" waitingTime="0.00" waitingCount="0" stopTime="0.00" timeLoss="10.12" rerouteNo="0" devices="tripinfo_flow_route_111_duration_20250327_2050.10" vType="car" speedFactor="1.02" vaporized=""/>
    <tripinfo id="flow_route_111_duration_20250327_2050.13" depart="52.00" departLane="1253188486#8_0" departPos="177.42" departSpeed="0.00" departDelay="0.00" arrival="69.00" arrivalLane="1254519229#0_0" arrivalPos="12.20" arrivalSpeed="13.04" duration="17.00" routeLength="111.01" waitingTime="0.00" waitingCount="0" stopTime="0.00" timeLoss="9.66" rerouteNo="0" devices="tripinfo_flow_route_111_duration_20250327_2050.13" vType="car" speedFactor="0.96" vaporized=""/>
    <tripinfo id="flow_route_111_duration_20250327_2050.11" depart="45.00" departLane="1253188486#8_0" departPos="83.13" departSpeed="0.00" departDelay="1.00" arrival="70.00" arrivalLane="1254519229#0_1" arrivalPos="43.70" arrivalSpeed="16.13" duration="25.00" routeLength="236.79" waitingTime="0.00" waitingCount="0" stopTime="0.00" timeLoss="9.99" rerouteNo="0" devices="tripinfo_flow_route_111_duration_20250327_2050.11" vType="car" speedFactor="0.99" vaporized=""/>
    <tripinfo id="flow_route_104_duration_20250327_2050.2" depart="18.00" departLane="189240001_0" departPos="2.18" departSpeed="0.00" departDelay="0.86" arrival="73.00" arrivalLane="1254519225#0.109_0" arrivalPos="40.03" arrivalSpeed="16.42" duration="55.00" routeLength="242.01" waitingTime="14.00" waitingCount="2" stopTime="0.00" timeLoss="39.75" rerouteNo="0" devices="tripinfo_flow_route_104_duration_20250327_2050.2" vType="car" speedFactor="1.13" vaporized=""/>
    <tripinfo id="flow_route_111_duration_20250327_2050.12" depart="48.00" departLane="1253188486#8_0" departPos="101.05" departSpeed="0.00" departDelay="0.00" arrival="75.00" arrivalLane="1254519229#0_0" arrivalPos="38.70" arrivalSpeed="16.49" duration="27.00" routeLength="213.88" waitingTime="0.00" waitingCount="0" stopTime="0.00" timeLoss="13.71" rerouteNo="0" devices="tripinfo_flow_route_111_duration_20250327_2050.12" vType="car" speedFactor="0.91" vaporized=""/>
    <tripinfo id="flow_route_104_duration_20250327_2050.6" depart="52.00" departLane="189240001_0" departPos="25.34" departSpeed="0.00" departDelay="0.57" arrival="75.00" arrivalLane="1254519225#0.109_0" arrivalPos="12.95" arrivalSpeed="16.21" duration="23.00" routeLength="191.77" waitingTime="0.00" waitingCount="0" stopTime="0.00" timeLoss="11.18" rerouteNo="0" devices="tripinfo_flow_route_104_duration_20250327_2050.6" vType="car" speedFactor="1.06" vaporized=""/>
    <tripinfo id="flow_route_123_duration_20250327_2050.2" depart="20.00" departLane="189240000#0-AddedOnRampEdge_0" departPos="53.54" departSpeed="0.00" departDelay="0.00" arrival="85.00" arrivalLane="1254519229#0_1" arrivalPos="24.97" arrivalSpeed="8.54" duration="65.00" routeLength="117.27" waitingTime="38.00" waitingCount="1" stopTime="0.00" timeLoss="57.45" rerouteNo="0" devices="tripinfo_flow_route_123_duration_20250327_2050.2" vType="car" speedFactor="1.17" vaporized=""/>
    <tripinfo id="flow_route_94_duration_20250327_2050.2" depart="22.00" departLane="1341093416#0_0" departPos="49.54" departSpeed="0.00" departDelay="2.00" arrival="86.00" arrivalLane="799091563#0_2" arrivalPos="25.43" arrivalSpeed="9.92" duration="64.00" routeLength="282.25" waitingTime="13.00" waitingCount="1" stopTime="0.00" timeLoss="46.58" rerouteNo="0" devices="tripinfo_flow_route_94_duration_20250327_2050.2" vType="car" speedFactor="1.18" vaporized=""/>
    <tripinfo id="flow_route_123_duration_20250327_2050.3" depart="30.00" departLane="189240000#0-AddedOnRampEdge_0" departPos="43.03" departSpeed="0.00" departDelay="0.00" arrival="87.00" arrivalLane="1254519229#0_0" arrivalPos="39.20" arrivalSpeed="9.58" duration="57.00" routeLength="138.50" waitingTime="27.00" waitingCount="1" stopTime="0.00" timeLoss="47.86" rerouteNo="0" devices="tripinfo_flow_route_123_duration_20250327_2050.3" vType="car" speedFactor="1.09" vaporized=""/>
    <tripinfo id="flow_route_123_duration_20250327_2050.4" depart="40.00" departLane="189240000#0-AddedOnRampEdge_0" departPos="55.62" departSpeed="0.00" departDelay="0.00" arrival="87.00" arrivalLane="1254519229#0_0" arrivalPos="27.42" arrivalSpeed="8.62" duration="47.00" routeLength="114.13" waitingTime="20.00" waitingCount="1" stopTime="0.00" timeLoss="39.28" rerouteNo="0" devices="tripinfo_flow_route_123_duration_20250327_2050.4" vType="car" speedFactor="0.97" vaporized=""/>
    <tripinfo id="flow_route_95_duration_20250327_2050.10" depart="29.00" departLane="1341093416#0_0" departPos="240.06" departSpeed="0.00" departDelay="0.43" arrival="90.00" arrivalLane="1254519225#0.109_0" arrivalPos="6.53" arrivalSpeed="12.68" duration="61.00" routeLength="148.84" waitingTime="34.00" waitingCount="1" stopTime="0.00" timeLoss="51.08" rerouteNo="0" devices="tripinfo_flow_route_95_duration_20250327_2050.10" vType="car" speedFactor="1.09" vaporized=""/>
    <tripinfo id="flow_route_123_duration_20250327_2050.5" depart="50.00" departLane="189240000#0-AddedOnRampEdge_0" departPos="74.02" departSpeed="0.00" departDelay="0.00" arrival="91.00" arrivalLane="1254519229#0_0" arrivalPos="38.79" arrivalSpeed="10.36" duration="41.00" routeLength="107.10" waitingTime="14.00" waitingCount="1" stopTime="0.00" timeLoss="33.64" rerouteNo="0" devices="tripinfo_flow_route_123_duration_20250327_2050.5" vType="car" speedFactor="0.97" vaporized=""/>
    <tripinfo id="flow_route_95_duration_20250327_2050.9" depart="26.00" departLane="1341093416#0_0" departPos="226.35" departSpeed="0.00" departDelay="0.29" arrival="93.00" arrivalLane="1254519225#0.109_0" arrivalPos="24.32" arrivalSpeed="13.90" duration="67.00" routeLength="180.33" waitingTime="33.00" waitingCount="1" stopTime="0.00" timeLoss="55.33" rerouteNo="0" devices="tripinfo_flow_route_95_duration_20250327_2050.9" vType="car" speedFactor="1.10" vaporized=""/>
    <tripinfo id="flow_route_95_duration_20250327_2050.6" depart="19.00" departLane="1341093416#0_0" departPos="149.92" departSpeed="0.00" departDelay="1.86" arrival="94.00" arrivalLane="1254519225#0.109_0" arrivalPos="11.44" arrivalSpeed="14.56" duration="75.00" routeLength="243.89" waitingTime="32.00" waitingCount="1" stopTime="0.00" timeLoss="58.74" rerouteNo="0" devices="tripinfo_flow_route_95_duration_20250327_2050.6" vType="car" speedFactor="0.95" vaporized=""/>
    <tripinfo id="flow_route_96_duration_20250327_2050.2" depart="16.00" departLane="1341093416#0_0" departPos="46.17" departSpeed="0.00" departDelay="1.00" arrival="97.00" arrivalLane="1254519229#0_1" arrivalPos="55.03" arrivalSpeed="10.12" duration="81.00" routeLength="303.87" waitingTime="32.00" waitingCount="2" stopTime="0.00" timeLoss="60.91" rerouteNo="0" devices="tripinfo_flow_route_96_duration_20250327_2050.2" vType="car" speedFactor="0.83" vaporized=""/>
    <tripinfo id="flow_route_96_duration_20250327_2050.4" depart="31.00" departLane="1341093416#0_0" departPos="266.37" departSpeed="0.00" departDelay="1.00" arrival="97.00" arrivalLane="1254519229#0_1" arrivalPos="73.59" arrivalSpeed="10.86" duration="66.00" routeLength="102.23" waitingTime="38.00" waitingCount="2" stopTime="0.00" timeLoss="58.72" rerouteNo="0" devices="tripinfo_flow_route_96_duration_20250327_2050.4" vType="car" speedFactor="1.04" vaporized=""/>
    <tripinfo id="flow_route_105_duration_20250327_2050.0" depart="1.00" departLane="189240001_0" departPos="25.23" departSpeed="0.00" departDelay="1.00" arrival="98.00" arrivalLane="799091563#0_2" arrivalPos="224.02" arrivalSpeed="16.22" duration="97.00" routeLength="308.35" waitingTime="52.00" waitingCount="2" stopTime="0.00" timeLoss="78.32" rerouteNo="0" devices="tripinfo_flow_route_105_duration_20250327_2050.0" vType="car" speedFactor="1.03" vaporized=""/>
    <tripinfo id="flow_route_96_duration_20250327_2050.3" depart="23.00" departLane="1341093416#0_0" departPos="58.23" departSpeed="0.00" departDelay="0.50" arrival="100.00" arrivalLane="1254519229#0_1" arrivalPos="57.44" arrivalSpeed="10.74" duration="77.00" routeLength="294.22" waitingTime="27.00" waitingCount="1" stopTime="0.00" timeLoss="57.67" rerouteNo="0" devices="tripinfo_flow_route_96_duration_20250327_2050.3" vType="car" speedFactor="1.02" vaporized=""/>
    <tripinfo id="flow_route_96_duration_20250327_2050.5" depart="42.00" departLane="1341093416#0_0" departPos="162.51" departSpeed="0.00" departDelay="4.50" arrival="100.00" arrivalLane="1254519229#0_1" arrivalPos="38.20" arrivalSpeed="9.11" duration="58.00" routeLength="170.70" waitingTime="16.00" waitingCount="1" stopTime="0.00" timeLoss="46.82" rerouteNo="0" devices="tripinfo_flow_route_96_duration_20250327_2050.5" vType="car" speedFactor="1.00" vaporized=""/>
    <tripinfo id="flow_route_95_duration_20250327_2050.3" depart="11.00" departLane="1341093416#0_0" departPos="72.41" departSpeed="0.00" departDelay="2.43" arrival="101.00" arrivalLane="1254519225#0.109_0" arrivalPos="59.68" arrivalSpeed="14.42" duration="90.00" routeLength="369.65" waitingTime="31.00" waitingCount="1" stopTime="0.00" timeLoss="64.47" rerouteNo="0" devices="tripinfo_flow_route_95_duration_20250327_2050.3" vType="car" speedFactor="0.88" vaporized=""/>
    <tripinfo id="flow_route_94_duration_20250327_2050.3" depart="31.00" departLane="1341093416#0_0" departPos="157.29" departSpeed="0.00" departDelay="1.00" arrival="101.00" arrivalLane="799091563#0_0" arrivalPos="237.41" arrivalSpeed="16.22" duration="70.00" routeLength="386.47" waitingTime="21.00" waitingCount="1" stopTime="0.00" timeLoss="46.33" rerouteNo="0" devices="tripinfo_flow_route_94_duration_20250327_2050.3" vType="car" speedFactor="1.04" vaporized=""/>
    <tripinfo id="flow_route_95_duration_20250327_2050.0" depart="0.00" departLane="1341093416#0_0" departPos="1.65" departSpeed="0.00" departDelay="0.00" arrival="102.00" arrivalLane="1254519225#0.109_0" arrivalPos="44.45" arrivalSpeed="15.52" duration="102.00" routeLength="425.17" waitingTime="31.00" waitingCount="1" stopTime="0.00" timeLoss="74.12" rerouteNo="0" devices="tripinfo_flow_route_95_duration_20250327_2050.0" vType="car" speedFactor="0.94" vaporized=""/>
    <tripinfo id="flow_route_124_duration_20250327_2050.2" depart="8.00" departLane="189240000#0-AddedOnRampEdge_0" departPos="15.02" departSpeed="0.00" departDelay="0.50" arrival="104.00" arrivalLane="1254519225#0.109_3" arrivalPos="2.02" arrivalSpeed="13.52" duration="96.00" routeLength="232.03" waitingTime="48.00" waitingCount="3" stopTime="0.00" timeLoss="79.52" rerouteNo="0" devices="tripinfo_flow_route_124_duration_20250327_2050.2" vType="car" speedFactor="0.93" vaporized=""/>
    <tripinfo id="flow_route_95_duration_20250327_2050.8" depart="23.00" departLane="1341093416#0_0" departPos="79.53" departSpeed="0.00" departDelay="0.14" arrival="104.00" arrivalLane="1254519225#0.109_0" arrivalPos="4.99" arrivalSpeed="14.06" duration="81.00" routeLength="307.84" waitingTime="30.00" waitingCount="1" stopTime="0.00" timeLoss="60.82" rerouteNo="0" devices="tripinfo_flow_route_95_duration_20250327_2050.8" vType="car" speedFactor="0.99" vaporized=""/>
    <tripinfo id="flow_route_95_duration_20250327_2050.12" depart="36.00" departLane="1341093416#0_0" departPos="195.57" departSpeed="0.00" departDelay="1.72" arrival="105.00" arrivalLane="1254519225#0.109_0" arrivalPos="41.29" arrivalSpeed="13.90" duration="69.00" routeLength="228.09" waitingTime="30.00" waitingCount="1" stopTime="0.00" timeLoss="51.73" rerouteNo="0" devices="tripinfo_flow_route_95_duration_20250327_2050.12" vType="car" speedFactor="0.85" vaporized=""/>
    <tripinfo id="flow_route_96_duration_20250327_2050.7" depart="63.00" departLane="1341093416#0_0" departPos="110.59" departSpeed="0.00" departDelay="10.50" arrival="105.00" arrivalLane="1254519229#0_1" arrivalPos="35.38" arrivalSpeed="9.67" duration="42.00" routeLength="219.80" waitingTime="0.00" waitingCount="0" stopTime="0.00" timeLoss="27.32" rerouteNo="0" devices="tripinfo_flow_route_96_duration_20250327_2050.7" vType="car" speedFactor="0.98" vaporized=""/>
    <tripinfo id="flow_route_95_duration_20250327_2050.4" depart="12.00" departLane="1341093416#0_0" departPos="24.41" departSpeed="0.00" departDelay="0.57" arrival="106.00" arrivalLane="1254519225#0.109_0" arrivalPos="10.48" arrivalSpeed="15.17" duration="94.00" routeLength="368.44" waitingTime="32.00" waitingCount="3" stopTime="0.00" timeLoss="70.52" rerouteNo="0" devices="tripinfo_flow_route_95_duration_20250327_2050.4" vType="car" speedFactor="1.02" vaporized=""/>
    <tripinfo id="flow_route_96_duration_20250327_2050.6" depart="54.00" departLane="1341093416#0_0" departPos="158.91" departSpeed="0.00" departDelay="9.00" arrival="106.00" arrivalLane="1254519229#0_1" arrivalPos="71.88" arrivalSpeed="12.76" duration="52.00" routeLength="207.98" waitingTime="7.00" waitingCount="1" stopTime="0.00" timeLoss="37.57" rerouteNo="0" devices="tripinfo_flow_route_96_duration_20250327_2050.6" vType="car" speedFactor="0.94" vaporized=""/>
    <tripinfo id="flow_route_124_duration_20250327_2050.5" depart="19.00" departLane="189240000#0-AddedOnRampEdge_0" departPos="87.62" departSpeed="0.00" departDelay="0.25" arrival="107.00" arrivalLane="1254519225#0.109_3" arrivalPos="17.40" arrivalSpeed="14.10" duration="88.00" routeLength="174.80" waitingTime="45.00" waitingCount="3" stopTime="0.00" timeLoss="75.51" rerouteNo="0" devices="tripinfo_flow_route_124_duration_20250327_2050.5" vType="car" speedFactor="0.93" vaporized=""/>
    <tripinfo id="flow_route_95_duration_20250327_2050.11" depart="32.00" departLane="1341093416#0_0" departPos="94.01" departSpeed="0.00" departDelay="0.57" arrival="109.00" arrivalLane="1254519225#0.109_0" arrivalPos="18.49" arrivalSpeed="14.78" duration="77.00" routeLength="306.85" waitingTime="25.00" waitingCount="1" stopTime="0.00" timeLoss="56.31" rerouteNo="0" devices="tripinfo_flow_route_95_duration_20250327_2050.11" vType="car" speedFactor="0.90" vaporized=""/>
    <tripinfo id="flow_route_94_duration_20250327_2050.4" depart="44.00" departLane="1341093416#0_0" departPos="4.01" departSpeed="0.00" departDelay="4.00" arrival="109.00" arrivalLane="799091563#0_0" arrivalPos="321.05" arrivalSpeed="14.53" duration="65.00" routeLength="623.39" waitingTime="1.00" waitingCount="1" stopTime="0.00" timeLoss="24.99" rerouteNo="0" devices="tripinfo_flow_route_94_duration_20250327_2050.4" vType="car" speedFactor="0.90" vaporized=""/>
    <tripinfo id="flow_route_95_duration_20250327_2050.7" depart="22.00" departLane="1341093416#0_0" departPos="12.84" departSpeed="0.00" departDelay="2.00" arrival="110.00" arrivalLane="1254519225#0.109_0" arrivalPos="11.17" arrivalSpeed="14.50" duration="88.00" routeLength="380.69" waitingTime="24.00" waitingCount="1" stopTime="0.00" timeLoss="64.25" rerouteNo="0" devices="tripinfo_flow_route_95_duration_20250327_2050.7" vType="car" speedFactor="1.15" vaporized=""/>
    <tripinfo id="flow_route_94_duration_20250327_2050.5" depart="56.00" departLane="1341093416#0_0" departPos="53.56" departSpeed="0.00" departDelay="6.00" arrival="110.00" arrivalLane="799091563#0_2" arrivalPos="378.48" arrivalSpeed="16.58" duration="54.00" routeLength="631.27" waitingTime="0.00" waitingCount="0" stopTime="0.00" timeLoss="15.14" rerouteNo="0" devices="tripinfo_flow_route_94_duration_20250327_2050.5" vType="car" speedFactor="1.02" vaporized=""/>
    <tripinfo id="flow_route_124_duration_20250327_2050.4" depart="15.00" departLane="189240000#0-AddedOnRampEdge_0" departPos="46.50" departSpeed="0.00" departDelay="0.00" arrival="112.00" arrivalLane="1254519225#0.109_3" arrivalPos="58.34" arrivalSpeed="14.42" duration="97.00" routeLength="256.86" waitingTime="42.00" waitingCount="3" stopTime="0.00" timeLoss="78.01" rerouteNo="0" devices="tripinfo_flow_route_124_duration_20250327_2050.4" vType="car" speedFactor="0.87" vaporized=""/>