<?xml version="1.0" encoding="UTF-8"?>

<!-- generated on 2025-05-06 21:07:45 by Eclipse SUMO sumo Version 1.20.0
<configuration xmlns:xsi="http://www.w3.org/2001/XMLSchema-instance" xsi:noNamespaceSchemaLocation="http://sumo.dlr.de/xsd/sumoConfiguration.xsd">

    <input>
        <net-file value="osm.net.xml"/>
        <route-files value="xml/route_static_J7_0.rou.xml"/>
    </input>

    <output>
        <tripinfo-output value="xml/tripinfo_static_J7_0.xml"/>
    </output>

    <traci_server>
        <remote-port value="49039"/>
    </traci_server>

</configuration>
-->

<tripinfos xmlns:xsi="http://www.w3.org/2001/XMLSchema-instance" xsi:noNamespaceSchemaLocation="http://sumo.dlr.de/xsd/tripinfo_file.xsd">
    <tripinfo id="flow_route_131_duration_20250327_1940.0" depart="0.00" departLane="714011134#0_0" departPos="6.35" departSpeed="0.00" departDelay="0.00" arrival="26.00" arrivalLane="134194079#0_1" arrivalPos="73.02" arrivalSpeed="14.32" duration="26.00" routeLength="232.63" waitingTime="0.00" waitingCount="0" stopTime="0.00" timeLoss="9.46" rerouteNo="0" devices="tripinfo_flow_route_131_duration_20250327_1940.0" vType="car" speedFactor="0.89" vaporized=""/>
    <tripinfo id="flow_route_127_duration_20250327_1940.1" depart="3.00" departLane="-138000461_0" departPos="133.87" departSpeed="0.00" departDelay="0.27" arrival="30.00" arrivalLane="189240000#0-AddedOnRampEdge_0" arrivalPos="48.43" arrivalSpeed="12.25" duration="27.00" routeLength="173.67" waitingTime="0.00" waitingCount="0" stopTime="0.00" timeLoss="16.20" rerouteNo="0" devices="tripinfo_flow_route_127_duration_20250327_1940.1" vType="car" speedFactor="1.09" vaporized=""/>
    <tripinfo id="flow_route_127_duration_20250327_1940.4" depart="12.00" departLane="-138000461_0" departPos="201.80" departSpeed="0.00" departDelay="1.09" arrival="32.00" arrivalLane="189240000#0-AddedOnRampEdge_0" arrivalPos="88.28" arrivalSpeed="14.54" duration="20.00" routeLength="145.59" waitingTime="0.00" waitingCount="0" stopTime="0.00" timeLoss="9.17" rerouteNo="0" devices="tripinfo_flow_route_127_duration_20250327_1940.4" vType="car" speedFactor="0.87" vaporized=""/>
    <tripinfo id="flow_route_127_duration_20250327_1940.0" depart="0.00" departLane="-138000461_0" departPos="55.90" departSpeed="0.00" departDelay="0.00" arrival="34.00" arrivalLane="189240000#0-AddedOnRampEdge_0" arrivalPos="70.17" arrivalSpeed="14.10" duration="34.00" routeLength="273.38" waitingTime="0.00" waitingCount="0" stopTime="0.00" timeLoss="16.74" rerouteNo="0" devices="tripinfo_flow_route_127_duration_20250327_1940.0" vType="car" speedFactor="1.05" vaporized=""/>
    <tripinfo id="flow_route_132_duration_20250327_1940.0" depart="0.00" departLane="714011134#0_0" departPos="92.28" departSpeed="0.00" departDelay="0.00" arrival="34.00" arrivalLane="189240000#0-AddedOnRampEdge_1" arrivalPos="51.48" arrivalSpeed="15.31" duration="34.00" routeLength="375.34" waitingTime="0.00" waitingCount="0" stopTime="0.00" timeLoss="9.96" rerouteNo="0" devices="tripinfo_flow_route_132_duration_20250327_1940.0" vType="car" speedFactor="0.94" vaporized=""/>
    <tripinfo id="flow_route_121_duration_20250327_1940.0" depart="1.00" departLane="799091563#0_0" departPos="259.58" departSpeed="0.00" departDelay="1.00" arrival="36.00" arrivalLane="134194079#0_0" arrivalPos="144.99" arrivalSpeed="15.84" duration="35.00" routeLength="274.57" waitingTime="0.00" waitingCount="0" stopTime="0.00" timeLoss="16.28" rerouteNo="0" devices="tripinfo_flow_route_121_duration_20250327_1940.0" vType="car" speedFactor="1.08" vaporized=""/>
    <tripinfo id="flow_route_116_duration_20250327_1940.0" depart="0.00" departLane="177211987#1_0" departPos="0.88" departSpeed="0.00" departDelay="0.00" arrival="38.00" arrivalLane="688883939#0_0" arrivalPos="93.94" arrivalSpeed="16.39" duration="38.00" routeLength="448.08" waitingTime="0.00" waitingCount="0" stopTime="0.00" timeLoss="10.32" rerouteNo="0" devices="tripinfo_flow_route_116_duration_20250327_1940.0" vType="car" speedFactor="1.06" vaporized=""/>
    <tripinfo id="flow_route_132_duration_20250327_1940.2" depart="5.00" departLane="714011134#0_0" departPos="80.57" departSpeed="0.00" departDelay="0.56" arrival="38.00" arrivalLane="189240000#0-AddedOnRampEdge_1" arrivalPos="22.35" arrivalSpeed="16.18" duration="33.00" routeLength="357.92" waitingTime="0.00" waitingCount="0" stopTime="0.00" timeLoss="10.66" rerouteNo="0" devices="tripinfo_flow_route_132_duration_20250327_1940.2" vType="car" speedFactor="0.99" vaporized=""/>
    <tripinfo id="flow_route_127_duration_20250327_1940.6" depart="17.00" departLane="-138000461_0" departPos="143.43" departSpeed="0.00" departDelay="0.64" arrival="38.00" arrivalLane="189240000#0-AddedOnRampEdge_0" arrivalPos="33.22" arrivalSpeed="11.55" duration="21.00" routeLength="148.90" waitingTime="0.00" waitingCount="0" stopTime="0.00" timeLoss="11.31" rerouteNo="0" devices="tripinfo_flow_route_127_duration_20250327_1940.6" vType="car" speedFactor="1.02" vaporized=""/>
    <tripinfo id="flow_route_133_duration_20250327_1940.1" depart="7.00" departLane="714011134#0_0" departPos="101.65" departSpeed="0.00" departDelay="0.33" arrival="40.00" arrivalLane="138000492#0_1" arrivalPos="54.45" arrivalSpeed="13.28" duration="33.00" routeLength="277.63" waitingTime="0.00" waitingCount="0" stopTime="0.00" timeLoss="13.99" rerouteNo="0" devices="tripinfo_flow_route_133_duration_20250327_1940.1" vType="car" speedFactor="0.94" vaporized=""/>
    <tripinfo id="flow_route_132_duration_20250327_1940.4" depart="9.00" departLane="714011134#0_0" departPos="70.41" departSpeed="0.00" departDelay="0.11" arrival="43.00" arrivalLane="189240000#0-AddedOnRampEdge_1" arrivalPos="22.79" arrivalSpeed="16.01" duration="34.00" routeLength="368.52" waitingTime="0.00" waitingCount="0" stopTime="0.00" timeLoss="10.35" rerouteNo="0" devices="tripinfo_flow_route_132_duration_20250327_1940.4" vType="car" speedFactor="0.97" vaporized=""/>
    <tripinfo id="flow_route_132_duration_20250327_1940.3" depart="7.00" departLane="714011134#0_0" departPos="43.35" departSpeed="0.00" departDelay="0.33" arrival="45.00" arrivalLane="189240000#0-AddedOnRampEdge_1" arrivalPos="31.28" arrivalSpeed="15.41" duration="38.00" routeLength="404.07" waitingTime="0.00" waitingCount="0" stopTime="0.00" timeLoss="12.06" rerouteNo="0" devices="tripinfo_flow_route_132_duration_20250327_1940.3" vType="car" speedFactor="0.94" vaporized=""/>
    <tripinfo id="flow_route_132_duration_20250327_1940.1" depart="5.00" departLane="714011134#0_0" departPos="3.42" departSpeed="0.00" departDelay="2.78" arrival="46.00" arrivalLane="189240000#0-AddedOnRampEdge_2" arrivalPos="28.99" arrivalSpeed="16.36" duration="41.00" routeLength="441.71" waitingTime="0.00" waitingCount="0" stopTime="0.00" timeLoss="14.23" rerouteNo="0" devices="tripinfo_flow_route_132_duration_20250327_1940.1" vType="car" speedFactor="1.03" vaporized=""/>
    <tripinfo id="flow_route_127_duration_20250327_1940.7" depart="22.00" departLane="-138000461_0" departPos="121.23" departSpeed="0.00" departDelay="2.91" arrival="48.00" arrivalLane="189240000#0-AddedOnRampEdge_0" arrivalPos="2.25" arrivalSpeed="9.47" duration="26.00" routeLength="140.13" waitingTime="0.00" waitingCount="0" stopTime="0.00" timeLoss="17.04" rerouteNo="0" devices="tripinfo_flow_route_127_duration_20250327_1940.7" vType="car" speedFactor="1.03" vaporized=""/>
    <tripinfo id="flow_route_127_duration_20250327_1940.10" depart="28.00" departLane="-138000461_0" departPos="181.02" departSpeed="0.00" departDelay="0.73" arrival="48.00" arrivalLane="189240000#0-AddedOnRampEdge_0" arrivalPos="55.96" arrivalSpeed="13.33" duration="20.00" routeLength="134.05" waitingTime="0.00" waitingCount="0" stopTime="0.00" timeLoss="10.29" rerouteNo="0" devices="tripinfo_flow_route_127_duration_20250327_1940.10" vType="car" speedFactor="1.00" vaporized=""/>
    <tripinfo id="flow_route_127_duration_20250327_1940.5" depart="15.00" departLane="-138000461_0" departPos="71.64" departSpeed="0.00" departDelay="1.37" arrival="50.00" arrivalLane="189240000#0-AddedOnRampEdge_0" arrivalPos="2.63" arrivalSpeed="10.66" duration="35.00" routeLength="190.09" waitingTime="0.00" waitingCount="0" stopTime="0.00" timeLoss="22.61" rerouteNo="0" devices="tripinfo_flow_route_127_duration_20250327_1940.5" vType="car" speedFactor="1.13" vaporized=""/>
    <tripinfo id="flow_route_127_duration_20250327_1940.8" depart="24.00" departLane="-138000461_0" departPos="150.74" departSpeed="0.00" departDelay="2.18" arrival="52.00" arrivalLane="189240000#0-AddedOnRampEdge_0" arrivalPos="82.50" arrivalSpeed="14.32" duration="28.00" routeLength="190.87" waitingTime="0.00" waitingCount="0" stopTime="0.00" timeLoss="15.76" rerouteNo="0" devices="tripinfo_flow_route_127_duration_20250327_1940.8" vType="car" speedFactor="1.04" vaporized=""/>
    <tripinfo id="flow_route_126_duration_20250327_1940.0" depart="0.00" departLane="-138000461_0" departPos="119.67" departSpeed="0.00" departDelay="0.00" arrival="53.00" arrivalLane="138000492#0_1" arrivalPos="18.35" arrivalSpeed="13.72" duration="53.00" routeLength="582.25" waitingTime="0.00" waitingCount="0" stopTime="0.00" timeLoss="10.30" rerouteNo="0" devices="tripinfo_flow_route_126_duration_20250327_1940.0" vType="car" speedFactor="0.83" vaporized=""/>
    <tripinfo id="flow_route_132_duration_20250327_1940.7" depart="18.00" departLane="714011134#0_0" departPos="54.05" departSpeed="0.00" departDelay="2.45" arrival="54.00" arrivalLane="189240000#0-AddedOnRampEdge_1" arrivalPos="19.56" arrivalSpeed="16.19" duration="36.00" routeLength="381.65" waitingTime="1.00" waitingCount="1" stopTime="0.00" timeLoss="12.45" rerouteNo="0" devices="tripinfo_flow_route_132_duration_20250327_1940.7" vType="car" speedFactor="1.17" vaporized=""/>
    <tripinfo id="flow_route_132_duration_20250327_1940.8" depart="18.00" departLane="714011134#0_0" departPos="61.65" departSpeed="0.00" departDelay="0.22" arrival="55.00" arrivalLane="189240000#0-AddedOnRampEdge_1" arrivalPos="58.07" arrivalSpeed="16.14" duration="37.00" routeLength="412.56" waitingTime="0.00" waitingCount="0" stopTime="0.00" timeLoss="11.28" rerouteNo="0" devices="tripinfo_flow_route_132_duration_20250327_1940.8" vType="car" speedFactor="1.18" vaporized=""/>
    <tripinfo id="flow_route_132_duration_20250327_1940.5" depart="13.00" departLane="714011134#0_0" departPos="16.00" departSpeed="0.00" departDelay="1.89" arrival="57.00" arrivalLane="189240000#0-AddedOnRampEdge_1" arrivalPos="15.90" arrivalSpeed="15.76" duration="44.00" routeLength="416.04" waitingTime="0.00" waitingCount="0" stopTime="0.00" timeLoss="16.85" rerouteNo="0" devices="tripinfo_flow_route_132_duration_20250327_1940.5" vType="car" speedFactor="0.95" vaporized=""/>
    <tripinfo id="flow_route_127_duration_20250327_1940.3" depart="9.00" departLane="-138000461_0" departPos="18.81" departSpeed="0.00" departDelay="0.82" arrival="59.00" arrivalLane="189240000#0-AddedOnRampEdge_0" arrivalPos="53.97" arrivalSpeed="12.29" duration="50.00" routeLength="294.26" waitingTime="0.00" waitingCount="0" stopTime="0.00" timeLoss="31.59" rerouteNo="0" devices="tripinfo_flow_route_127_duration_20250327_1940.3" vType="car" speedFactor="1.01" vaporized=""/>
    <tripinfo id="flow_route_132_duration_20250327_1940.6" depart="14.00" departLane="714011134#0_0" departPos="7.06" departSpeed="0.00" departDelay="0.67" arrival="59.00" arrivalLane="189240000#0-AddedOnRampEdge_1" arrivalPos="26.33" arrivalSpeed="15.11" duration="45.00" routeLength="435.41" waitingTime="0.00" waitingCount="0" stopTime="0.00" timeLoss="16.69" rerouteNo="0" devices="tripinfo_flow_route_132_duration_20250327_1940.6" vType="car" speedFactor="0.93" vaporized=""/>
    <tripinfo id="flow_route_127_duration_20250327_1940.2" depart="7.00" departLane="-138000461_0" departPos="26.50" departSpeed="0.00" departDelay="1.55" arrival="60.00" arrivalLane="189240000#0-AddedOnRampEdge_0" arrivalPos="90.31" arrivalSpeed="14.26" duration="53.00" routeLength="322.92" waitingTime="0.00" waitingCount="0" stopTime="0.00" timeLoss="29.96" rerouteNo="0" devices="tripinfo_flow_route_127_duration_20250327_1940.2" vType="car" speedFactor="0.88" vaporized=""/>
    <tripinfo id="flow_route_117_duration_20250327_1940.0" depart="0.00" departLane="177211987#1_0" departPos="98.51" departSpeed="0.00" departDelay="0.00" arrival="61.00" arrivalLane="138000492#0_0" arrivalPos="299.85" arrivalSpeed="15.62" duration="61.00" routeLength="701.60" waitingTime="0.00" waitingCount="0" stopTime="0.00" timeLoss="15.81" rerouteNo="0" devices="tripinfo_flow_route_117_duration_20250327_1940.0" vType="car" speedFactor="0.94" vaporized=""/>
    <tripinfo id="flow_route_133_duration_20250327_1940.0" depart="0.00" departLane="714011134#0_0" departPos="33.93" departSpeed="0.00" departDelay="0.00" arrival="61.00" arrivalLane="138000492#0_1" arrivalPos="313.58" arrivalSpeed="14.02" duration="61.00" routeLength="604.48" waitingTime="0.00" waitingCount="0" stopTime="0.00" timeLoss="17.14" rerouteNo="0" devices="tripinfo_flow_route_133_duration_20250327_1940.0" vType="car" speedFactor="0.86" vaporized=""/>
    <tripinfo id="flow_route_133_duration_20250327_1940.3" depart="26.00" departLane="714011134#0_0" departPos="103.09" departSpeed="0.00" departDelay="6.00" arrival="61.00" arrivalLane="138000492#0_1" arrivalPos="44.07" arrivalSpeed="12.67" duration="35.00" routeLength="265.82" waitingTime="1.00" waitingCount="1" stopTime="0.00" timeLoss="17.97" rerouteNo="0" devices="tripinfo_flow_route_133_duration_20250327_1940.3" vType="car" speedFactor="1.09" vaporized=""/>
    <tripinfo id="flow_route_127_duration_20250327_1940.12" depart="33.00" departLane="-138000461_0" departPos="102.79" departSpeed="0.00" departDelay="0.28" arrival="61.00" arrivalLane="189240000#0-AddedOnRampEdge_0" arrivalPos="62.18" arrivalSpeed="12.75" duration="28.00" routeLength="218.50" waitingTime="0.00" waitingCount="0" stopTime="0.00" timeLoss="13.81" rerouteNo="0" devices="tripinfo_flow_route_127_duration_20250327_1940.12" vType="car" speedFactor="0.99" vaporized=""/>
    <tripinfo id="flow_route_122_duration_20250327_1940.1" depart="9.00" departLane="799091563#0_0" departPos="308.22" departSpeed="0.00" departDelay="0.43" arrival="64.00" arrivalLane="688883939#0_2" arrivalPos="17.71" arrivalSpeed="11.06" duration="55.00" routeLength="148.13" waitingTime="25.00" waitingCount="1" stopTime="0.00" timeLoss="45.69" rerouteNo="0" devices="tripinfo_flow_route_122_duration_20250327_1940.1" vType="car" speedFactor="1.02" vaporized=""/>
    <tripinfo id="flow_route_127_duration_20250327_1940.11" depart="30.00" departLane="-138000461_0" departPos="73.08" departSpeed="0.00" departDelay="0.00" arrival="65.00" arrivalLane="189240000#0-AddedOnRampEdge_0" arrivalPos="92.61" arrivalSpeed="14.18" duration="35.00" routeLength="278.64" waitingTime="0.00" waitingCount="0" stopTime="0.00" timeLoss="17.47" rerouteNo="0" devices="tripinfo_flow_route_127_duration_20250327_1940.11" vType="car" speedFactor="1.08" vaporized=""/>
    <tripinfo id="flow_route_127_duration_20250327_1940.9" depart="26.00" departLane="-138000461_0" departPos="32.45" departSpeed="0.00" departDelay="1.46" arrival="67.00" arrivalLane="189240000#0-AddedOnRampEdge_0" arrivalPos="83.27" arrivalSpeed="13.65" duration="41.00" routeLength="309.93" waitingTime="0.00" waitingCount="0" stopTime="0.00" timeLoss="19.13" rerouteNo="0" devices="tripinfo_flow_route_127_duration_20250327_1940.9" vType="car" speedFactor="0.88" vaporized=""/>
    <tripinfo id="flow_route_122_duration_20250327_1940.2" depart="18.00" departLane="799091563#0_0" departPos="313.47" departSpeed="0.00" departDelay="0.86" arrival="68.00" arrivalLane="688883939#0_2" arrivalPos="44.62" arrivalSpeed="13.72" duration="50.00" routeLength="169.79" waitingTime="19.00" waitingCount="1" stopTime="0.00" timeLoss="38.92" rerouteNo="0" devices="tripinfo_flow_route_122_duration_20250327_1940.2" vType="car" speedFactor="0.97" vaporized=""/>
    <tripinfo id="flow_route_132_duration_20250327_1940.11" depart="35.00" departLane="714011134#0_0" departPos="98.66" departSpeed="0.00" departDelay="10.56" arrival="70.00" arrivalLane="189240000#0-AddedOnRampEdge_1" arrivalPos="35.08" arrivalSpeed="14.17" duration="35.00" routeLength="352.56" waitingTime="0.00" waitingCount="0" stopTime="0.00" timeLoss="9.34" rerouteNo="0" devices="tripinfo_flow_route_132_duration_20250327_1940.11" vType="car" speedFactor="0.85" vaporized=""/>
    <tripinfo id="flow_route_127_duration_20250327_1940.13" depart="38.00" departLane="-138000461_0" departPos="47.76" departSpeed="0.00" departDelay="2.55" arrival="70.00" arrivalLane="189240000#0-AddedOnRampEdge_0" arrivalPos="79.65" arrivalSpeed="14.48" duration="32.00" routeLength="291.01" waitingTime="0.00" waitingCount="0" stopTime="0.00" timeLoss="13.41" rerouteNo="0" devices="tripinfo_flow_route_127_duration_20250327_1940.13" vType="car" speedFactor="1.02" vaporized=""/>
    <tripinfo id="flow_route_122_duration_20250327_1940.0" depart="1.00" departLane="799091563#0_0" departPos="17.54" departSpeed="0.00" departDelay="1.00" arrival="71.00" arrivalLane="688883939#0_2" arrivalPos="62.20" arrivalSpeed="14.50" duration="70.00" routeLength="483.30" waitingTime="17.00" waitingCount="1" stopTime="0.00" timeLoss="40.51" rerouteNo="0" devices="tripinfo_flow_route_122_duration_20250327_1940.0" vType="car" speedFactor="1.03" vaporized=""/>
    <tripinfo id="flow_route_121_duration_20250327_1940.5" depart="20.00" departLane="799091563#0_0" departPos="332.46" departSpeed="0.00" departDelay="1.25" arrival="71.00" arrivalLane="134194079#0_0" arrivalPos="123.07" arrivalSpeed="14.70" duration="51.00" routeLength="179.78" waitingTime="20.00" waitingCount="1" stopTime="0.00" timeLoss="38.76" rerouteNo="0" devices="tripinfo_flow_route_121_duration_20250327_1940.5" vType="car" speedFactor="1.10" vaporized=""/>
    <tripinfo id="flow_route_121_duration_20250327_1940.2" depart="8.00" departLane="799091563#0_0" departPos="84.73" departSpeed="0.00" departDelay="0.50" arrival="72.00" arrivalLane="134194079#0_0" arrivalPos="77.91" arrivalSpeed="12.32" duration="64.00" routeLength="382.34" waitingTime="13.00" waitingCount="1" stopTime="0.00" timeLoss="39.65" rerouteNo="0" devices="tripinfo_flow_route_121_duration_20250327_1940.2" vType="car" speedFactor="1.16" vaporized=""/>
    <tripinfo id="flow_route_132_duration_20250327_1940.9" depart="23.00" departLane="714011134#0_0" departPos="10.70" departSpeed="0.00" departDelay="3.00" arrival="72.00" arrivalLane="189240000#0-AddedOnRampEdge_1" arrivalPos="28.58" arrivalSpeed="15.83" duration="49.00" routeLength="434.02" waitingTime="0.00" waitingCount="0" stopTime="0.00" timeLoss="21.66" rerouteNo="0" devices="tripinfo_flow_route_132_duration_20250327_1940.9" vType="car" speedFactor="0.96" vaporized=""/>
    <tripinfo id="flow_route_132_duration_20250327_1940.10" depart="34.00" departLane="714011134#0_0" departPos="89.72" departSpeed="0.00" departDelay="11.78" arrival="73.00" arrivalLane="189240000#0-AddedOnRampEdge_2" arrivalPos="66.04" arrivalSpeed="16.32" duration="39.00" routeLength="392.46" waitingTime="0.00" waitingCount="0" stopTime="0.00" timeLoss="14.40" rerouteNo="0" devices="tripinfo_flow_route_132_duration_20250327_1940.10" vType="car" speedFactor="1.00" vaporized=""/>
    <tripinfo id="flow_route_122_duration_20250327_1940.3" depart="27.00" departLane="799091563#0_0" departPos="105.29" departSpeed="0.00" departDelay="1.29" arrival="73.00" arrivalLane="688883939#0_2" arrivalPos="71.20" arrivalSpeed="13.83" duration="46.00" routeLength="404.55" waitingTime="1.00" waitingCount="1" stopTime="0.00" timeLoss="17.51" rerouteNo="0" devices="tripinfo_flow_route_122_duration_20250327_1940.3" vType="car" speedFactor="0.85" vaporized=""/>
    <tripinfo id="flow_route_133_duration_20250327_1940.2" depart="18.00" departLane="714011134#0_0" departPos="41.08" departSpeed="0.00" departDelay="4.67" arrival="77.00" arrivalLane="138000492#0_2" arrivalPos="230.10" arrivalSpeed="16.42" duration="59.00" routeLength="513.87" waitingTime="0.00" waitingCount="0" stopTime="0.00" timeLoss="26.80" rerouteNo="0" devices="tripinfo_flow_route_133_duration_20250327_1940.2" vType="car" speedFactor="1.18" vaporized=""/>
    <tripinfo id="flow_route_127_duration_20250327_1940.21" depart="60.00" departLane="-138000461_0" departPos="191.79" departSpeed="0.00" departDelay="2.73" arrival="77.00" arrivalLane="189240000#0-AddedOnRampEdge_0" arrivalPos="38.41" arrivalSpeed="12.01" duration="17.00" routeLength="105.73" waitingTime="0.00" waitingCount="0" stopTime="0.00" timeLoss="9.64" rerouteNo="0" devices="tripinfo_flow_route_127_duration_20250327_1940.21" vType="car" speedFactor="1.01" vaporized=""/>
    <tripinfo id="flow_route_121_duration_20250327_1940.13" depart="55.00" departLane="799091563#0_0" departPos="294.03" departSpeed="0.00" departDelay="6.25" arrival="78.00" arrivalLane="134194079#0_0" arrivalPos="9.30" arrivalSpeed="6.36" duration="23.00" routeLength="104.43" waitingTime="0.00" waitingCount="0" stopTime="0.00" timeLoss="15.50" rerouteNo="0" devices="tripinfo_flow_route_121_duration_20250327_1940.13" vType="car" speedFactor="1.02" vaporized=""/>
    <tripinfo id="flow_route_127_duration_20250327_1940.18" depart="50.00" departLane="-138000461_0" departPos="100.65" departSpeed="0.00" departDelay="0.91" arrival="78.00" arrivalLane="189240000#0-AddedOnRampEdge_0" arrivalPos="3.73" arrivalSpeed="10.21" duration="28.00" routeLength="162.20" waitingTime="0.00" waitingCount="0" stopTime="0.00" timeLoss="17.23" rerouteNo="0" devices="tripinfo_flow_route_127_duration_20250327_1940.18" vType="car" speedFactor="1.09" vaporized=""/>
    <tripinfo id="flow_route_127_duration_20250327_1940.20" depart="56.00" departLane="-138000461_0" departPos="137.36" departSpeed="0.00" departDelay="1.46" arrival="79.00" arrivalLane="189240000#0-AddedOnRampEdge_0" arrivalPos="33.71" arrivalSpeed="11.38" duration="23.00" routeLength="155.46" waitingTime="0.00" waitingCount="0" stopTime="0.00" timeLoss="12.18" rerouteNo="0" devices="tripinfo_flow_route_127_duration_20250327_1940.20" vType="car" speedFactor="0.95" vaporized=""/>
    <tripinfo id="flow_route_121_duration_20250327_1940.7" depart="27.00" departLane="799091563#0_0" departPos="144.09" departSpeed="0.00" departDelay="0.75" arrival="80.00" arrivalLane="134194079#0_0" arrivalPos="101.65" arrivalSpeed="13.37" duration="53.00" routeLength="346.72" waitingTime="1.00" waitingCount="1" stopTime="0.00" timeLoss="31.25" rerouteNo="0" devices="tripinfo_flow_route_121_duration_20250327_1940.7" vType="car" speedFactor="1.17" vaporized=""/>
    <tripinfo id="flow_route_122_duration_20250327_1940.6" depart="55.00" departLane="799091563#0_0" departPos="303.08" departSpeed="0.00" departDelay="3.57" arrival="80.00" arrivalLane="688883939#0_2" arrivalPos="50.50" arrivalSpeed="15.07" duration="25.00" routeLength="186.06" waitingTime="0.00" waitingCount="0" stopTime="0.00" timeLoss="13.17" rerouteNo="0" devices="tripinfo_flow_route_122_duration_20250327_1940.6" vType="car" speedFactor="1.06" vaporized=""/>
    <tripinfo id="flow_route_121_duration_20250327_1940.1" depart="4.00" departLane="799091563#0_0" departPos="150.59" departSpeed="0.00" departDelay="0.25" arrival="81.00" arrivalLane="134194079#0_0" arrivalPos="243.19" arrivalSpeed="16.11" duration="77.00" routeLength="481.76" waitingTime="19.00" waitingCount="1" stopTime="0.00" timeLoss="46.17" rerouteNo="0" devices="tripinfo_flow_route_121_duration_20250327_1940.1" vType="car" speedFactor="1.05" vaporized=""/>
    <tripinfo id="flow_route_121_duration_20250327_1940.6" depart="23.00" departLane="799091563#0_0" departPos="106.78" departSpeed="0.00" departDelay="0.50" arrival="82.00" arrivalLane="134194079#0_0" arrivalPos="101.15" arrivalSpeed="13.51" duration="59.00" routeLength="383.53" waitingTime="1.00" waitingCount="1" stopTime="0.00" timeLoss="34.65" rerouteNo="0" devices="tripinfo_flow_route_121_duration_20250327_1940.6" vType="car" speedFactor="1.09" vaporized=""/>
    <tripinfo id="flow_route_122_duration_20250327_1940.5" depart="50.00" departLane="799091563#0_0" departPos="206.82" departSpeed="0.00" departDelay="7.15" arrival="82.00" arrivalLane="688883939#0_2" arrivalPos="45.36" arrivalSpeed="14.76" duration="32.00" routeLength="277.19" waitingTime="0.00" waitingCount="0" stopTime="0.00" timeLoss="14.73" rerouteNo="0" devices="tripinfo_flow_route_122_duration_20250327_1940.5" vType="car" speedFactor="1.03" vaporized=""/>
    <tripinfo id="flow_route_127_duration_20250327_1940.17" depart="47.00" departLane="-138000461_0" departPos="65.49" departSpeed="0.00" departDelay="0.64" arrival="82.00" arrivalLane="189240000#0-AddedOnRampEdge_0" arrivalPos="24.95" arrivalSpeed="11.83" duration="35.00" routeLength="218.58" waitingTime="0.00" waitingCount="0" stopTime="0.00" timeLoss="20.95" rerouteNo="0" devices="tripinfo_flow_route_127_duration_20250327_1940.17" vType="car" speedFactor="1.04" vaporized=""/>
    <tripinfo id="flow_route_120_duration_20250327_1940.0" depart="0.00" departLane="799091563#0_0" departPos="177.01" departSpeed="0.00" departDelay="0.00" arrival="83.00" arrivalLane="138000492#0_1" arrivalPos="19.14" arrivalSpeed="9.61" duration="83.00" routeLength="440.29" waitingTime="25.00" waitingCount="2" stopTime="0.00" timeLoss="56.43" rerouteNo="0" devices="tripinfo_flow_route_120_duration_20250327_1940.0" vType="car" speedFactor="1.01" vaporized=""/>
    <tripinfo id="flow_route_121_duration_20250327_1940.3" depart="12.00" departLane="799091563#0_0" departPos="69.62" departSpeed="0.00" departDelay="0.75" arrival="83.00" arrivalLane="134194079#0_0" arrivalPos="171.13" arrivalSpeed="15.02" duration="71.00" routeLength="490.67" waitingTime="12.00" waitingCount="1" stopTime="0.00" timeLoss="37.25" rerouteNo="0" devices="tripinfo_flow_route_121_duration_20250327_1940.3" vType="car" speedFactor="0.92" vaporized=""/>
    <tripinfo id="flow_route_121_duration_20250327_1940.8" depart="30.00" departLane="799091563#0_0" departPos="63.60" departSpeed="0.00" departDelay="0.00" arrival="83.00" arrivalLane="134194079#0_0" arrivalPos="4.31" arrivalSpeed="5.74" duration="53.00" routeLength="329.87" waitingTime="0.00" waitingCount="0" stopTime="0.00" timeLoss="31.14" rerouteNo="0" devices="tripinfo_flow_route_121_duration_20250327_1940.8" vType="car" speedFactor="0.97" vaporized=""/>
    <tripinfo id="flow_route_121_duration_20250327_1940.4" depart="16.00" departLane="799091563#0_0" departPos="30.38" departSpeed="0.00" departDelay="1.00" arrival="84.00" arrivalLane="134194079#0_0" arrivalPos="92.60" arrivalSpeed="13.08" duration="68.00" routeLength="451.38" waitingTime="0.00" waitingCount="0" stopTime="0.00" timeLoss="40.13" rerouteNo="0" devices="tripinfo_flow_route_121_duration_20250327_1940.4" vType="car" speedFactor="1.01" vaporized=""/>
    <tripinfo id="flow_route_122_duration_20250327_1940.4" depart="41.00" departLane="799091563#0_0" departPos="32.12" departSpeed="0.00" departDelay="6.72" arrival="84.00" arrivalLane="688883939#0_2" arrivalPos="51.39" arrivalSpeed="15.20" duration="43.00" routeLength="457.91" waitingTime="0.00" waitingCount="0" stopTime="0.00" timeLoss="14.96" rerouteNo="0" devices="tripinfo_flow_route_122_duration_20250327_1940.4" vType="car" speedFactor="1.04" vaporized=""/>
    <tripinfo id="flow_route_127_duration_20250327_1940.14" depart="41.00" departLane="-138000461_0" departPos="7.32" departSpeed="0.00" departDelay="2.82" arrival="86.00" arrivalLane="189240000#0-AddedOnRampEdge_0" arrivalPos="18.44" arrivalSpeed="10.48" duration="45.00" routeLength="270.23" waitingTime="0.00" waitingCount="0" stopTime="0.00" timeLoss="26.78" rerouteNo="0" devices="tripinfo_flow_route_127_duration_20250327_1940.14" vType="car" speedFactor="0.96" vaporized=""/>
    <tripinfo id="flow_route_127_duration_20250327_1940.15" depart="42.00" departLane="-138000461_0" departPos="17.98" departSpeed="0.00" departDelay="1.10" arrival="88.00" arrivalLane="189240000#0-AddedOnRampEdge_0" arrivalPos="74.87" arrivalSpeed="13.93" duration="46.00" routeLength="316.00" waitingTime="0.00" waitingCount="0" stopTime="0.00" timeLoss="25.76" rerouteNo="0" devices="tripinfo_flow_route_127_duration_20250327_1940.15" vType="car" speedFactor="1.01" vaporized=""/>
    <tripinfo id="flow_route_127_duration_20250327_1940.19" depart="52.00" departLane="-138000461_0" departPos="32.46" departSpeed="0.00" departDelay="0.19" arrival="91.00" arrivalLane="189240000#0-AddedOnRampEdge_0" arrivalPos="36.34" arrivalSpeed="11.63" duration="39.00" routeLength="263.00" waitingTime="0.00" waitingCount="0" stopTime="0.00" timeLoss="22.59" rerouteNo="0" devices="tripinfo_flow_route_127_duration_20250327_1940.19" vType="car" speedFactor="1.01" vaporized=""/>
    <tripinfo id="flow_route_127_duration_20250327_1940.16" depart="44.00" departLane="-138000461_0" departPos="2.46" departSpeed="0.00" departDelay="0.37" arrival="94.00" arrivalLane="189240000#0-AddedOnRampEdge_0" arrivalPos="92.74" arrivalSpeed="15.39" duration="50.00" routeLength="349.39" waitingTime="0.00" waitingCount="0" stopTime="0.00" timeLoss="27.13" rerouteNo="0" devices="tripinfo_flow_route_127_duration_20250327_1940.16" vType="car" speedFactor="0.97" vaporized=""/>
    <tripinfo id="flow_route_120_duration_20250327_1940.2" depart="11.00" departLane="799091563#0_0" departPos="364.51" departSpeed="0.00" departDelay="1.00" arrival="97.00" arrivalLane="138000492#0_0" arrivalPos="301.14" arrivalSpeed="14.41" duration="86.00" routeLength="534.79" waitingTime="33.00" waitingCount="1" stopTime="0.00" timeLoss="49.53" rerouteNo="0" devices="tripinfo_flow_route_120_duration_20250327_1940.2" vType="car" speedFactor="0.89" vaporized=""/>