<?xml version="1.0" encoding="UTF-8"?>

<!-- generated on 2025-05-06 21:08:56 by Eclipse SUMO sumo Version 1.20.0
<configuration xmlns:xsi="http://www.w3.org/2001/XMLSchema-instance" xsi:noNamespaceSchemaLocation="http://sumo.dlr.de/xsd/sumoConfiguration.xsd">

    <input>
        <net-file value="osm.net.xml"/>
        <route-files value="xml/route_static_cluster_3839031475_3839031476_4110471700_4234582615_7.rou.xml"/>
    </input>

    <output>
        <tripinfo-output value="xml/tripinfo_static_cluster_3839031475_3839031476_4110471700_4234582615_7.xml"/>
    </output>

    <traci_server>
        <remote-port value="48553"/>
    </traci_server>

</configuration>
-->

<tripinfos xmlns:xsi="http://www.w3.org/2001/XMLSchema-instance" xsi:noNamespaceSchemaLocation="http://sumo.dlr.de/xsd/tripinfo_file.xsd">
    <tripinfo id="flow_route_85_duration_20250327_2030.0" depart="0.00" departLane="1091883842_0" departPos="162.60" departSpeed="0.00" departDelay="0.00" arrival="16.00" arrivalLane="133000063_0" arrivalPos="42.63" arrivalSpeed="9.42" duration="16.00" routeLength="74.77" waitingTime="0.00" waitingCount="0" stopTime="0.00" timeLoss="9.19" rerouteNo="0" devices="tripinfo_flow_route_85_duration_20250327_2030.0" vType="car" speedFactor="0.89" vaporized=""/>
    <tripinfo id="flow_route_84_duration_20250327_2030.1" depart="3.00" departLane="1091883842_0" departPos="95.26" departSpeed="0.00" departDelay="0.00" arrival="22.00" arrivalLane="136617981_0" arrivalPos="13.09" arrivalSpeed="14.89" duration="19.00" routeLength="136.12" waitingTime="0.00" waitingCount="0" stopTime="0.00" timeLoss="9.93" rerouteNo="0" devices="tripinfo_flow_route_84_duration_20250327_2030.1" vType="car" speedFactor="1.09" vaporized=""/>
    <tripinfo id="flow_route_79_duration_20250327_2030.0" depart="0.00" departLane="380344611#0_0" departPos="128.21" departSpeed="0.00" departDelay="0.00" arrival="27.00" arrivalLane="423956929_1" arrivalPos="91.18" arrivalSpeed="16.55" duration="27.00" routeLength="278.79" waitingTime="0.00" waitingCount="0" stopTime="0.00" timeLoss="10.13" rerouteNo="0" devices="tripinfo_flow_route_79_duration_20250327_2030.0" vType="car" speedFactor="1.08" vaporized=""/>
    <tripinfo id="flow_route_80_duration_20250327_2030.1" depart="10.00" departLane="380344611#0_0" departPos="230.17" departSpeed="0.00" departDelay="0.00" arrival="30.00" arrivalLane="380593307#0_0" arrivalPos="29.16" arrivalSpeed="8.94" duration="20.00" routeLength="91.60" waitingTime="0.00" waitingCount="0" stopTime="0.00" timeLoss="13.68" rerouteNo="0" devices="tripinfo_flow_route_80_duration_20250327_2030.1" vType="car" speedFactor="1.01" vaporized=""/>
    <tripinfo id="flow_route_79_duration_20250327_2030.1" depart="15.00" departLane="380344611#0_0" departPos="263.18" departSpeed="0.00" departDelay="0.00" arrival="30.00" arrivalLane="423956929_0" arrivalPos="34.02" arrivalSpeed="11.55" duration="15.00" routeLength="86.66" waitingTime="0.00" waitingCount="0" stopTime="0.00" timeLoss="9.29" rerouteNo="0" devices="tripinfo_flow_route_79_duration_20250327_2030.1" vType="car" speedFactor="0.95" vaporized=""/>
    <tripinfo id="flow_route_90_duration_20250327_2030.1" depart="9.00" departLane="380585338#0_0" departPos="167.49" departSpeed="0.00" departDelay="1.50" arrival="34.00" arrivalLane="136617981_0" arrivalPos="8.45" arrivalSpeed="5.80" duration="25.00" routeLength="28.03" waitingTime="13.00" waitingCount="1" stopTime="0.00" timeLoss="22.16" rerouteNo="0" devices="tripinfo_flow_route_90_duration_20250327_2030.1" vType="car" speedFactor="0.94" vaporized=""/>
    <tripinfo id="flow_route_84_duration_20250327_2030.3" depart="10.00" departLane="1091883842_0" departPos="106.15" departSpeed="0.00" departDelay="1.00" arrival="35.00" arrivalLane="136617981_0" arrivalPos="116.58" arrivalSpeed="16.32" duration="25.00" routeLength="228.72" waitingTime="0.00" waitingCount="0" stopTime="0.00" timeLoss="10.82" rerouteNo="0" devices="tripinfo_flow_route_84_duration_20250327_2030.3" vType="car" speedFactor="1.16" vaporized=""/>
    <tripinfo id="flow_route_81_duration_20250327_2030.0" depart="0.00" departLane="380344611#0_0" departPos="75.01" departSpeed="0.00" departDelay="0.00" arrival="36.00" arrivalLane="133000063_2" arrivalPos="7.51" arrivalSpeed="7.14" duration="36.00" routeLength="248.37" waitingTime="0.00" waitingCount="0" stopTime="0.00" timeLoss="17.06" rerouteNo="0" devices="tripinfo_flow_route_81_duration_20250327_2030.0" vType="car" speedFactor="0.83" vaporized=""/>
    <tripinfo id="flow_route_84_duration_20250327_2030.0" depart="0.00" departLane="1091883842_0" departPos="11.19" departSpeed="0.00" departDelay="0.00" arrival="37.00" arrivalLane="136617981_1" arrivalPos="210.65" arrivalSpeed="16.20" duration="37.00" routeLength="417.75" waitingTime="0.00" waitingCount="0" stopTime="0.00" timeLoss="11.75" rerouteNo="0" devices="tripinfo_flow_route_84_duration_20250327_2030.0" vType="car" speedFactor="1.05" vaporized=""/>
    <tripinfo id="flow_route_81_duration_20250327_2030.3" depart="11.00" departLane="380344611#0_0" departPos="169.07" departSpeed="0.00" departDelay="0.41" arrival="39.00" arrivalLane="133000063_2" arrivalPos="15.33" arrivalSpeed="8.10" duration="28.00" routeLength="162.13" waitingTime="0.00" waitingCount="0" stopTime="0.00" timeLoss="17.36" rerouteNo="0" devices="tripinfo_flow_route_81_duration_20250327_2030.3" vType="car" speedFactor="0.97" vaporized=""/>
    <tripinfo id="flow_route_80_duration_20250327_2030.0" depart="0.00" departLane="380344611#0_0" departPos="160.58" departSpeed="0.00" departDelay="0.00" arrival="40.00" arrivalLane="380593307#0_0" arrivalPos="102.42" arrivalSpeed="14.01" duration="40.00" routeLength="234.46" waitingTime="0.00" waitingCount="0" stopTime="0.00" timeLoss="24.89" rerouteNo="0" devices="tripinfo_flow_route_80_duration_20250327_2030.0" vType="car" speedFactor="1.03" vaporized=""/>
    <tripinfo id="flow_route_81_duration_20250327_2030.1" depart="4.00" departLane="380344611#0_0" departPos="251.70" departSpeed="0.00" departDelay="0.47" arrival="44.00" arrivalLane="133000063_2" arrivalPos="109.11" arrivalSpeed="13.92" duration="40.00" routeLength="173.28" waitingTime="10.00" waitingCount="1" stopTime="0.00" timeLoss="28.68" rerouteNo="0" devices="tripinfo_flow_route_81_duration_20250327_2030.1" vType="car" speedFactor="1.05" vaporized=""/>
    <tripinfo id="flow_route_81_duration_20250327_2030.5" depart="18.00" departLane="380344611#0_0" departPos="192.45" departSpeed="0.00" departDelay="0.36" arrival="50.00" arrivalLane="133000063_2" arrivalPos="124.34" arrivalSpeed="15.65" duration="32.00" routeLength="247.75" waitingTime="0.00" waitingCount="0" stopTime="0.00" timeLoss="16.50" rerouteNo="0" devices="tripinfo_flow_route_81_duration_20250327_2030.5" vType="car" speedFactor="1.17" vaporized=""/>
    <tripinfo id="flow_route_90_duration_20250327_2030.0" depart="0.00" departLane="380585338#0_0" departPos="118.71" departSpeed="0.00" departDelay="0.00" arrival="54.00" arrivalLane="136617981_0" arrivalPos="211.18" arrivalSpeed="14.12" duration="54.00" routeLength="279.54" waitingTime="12.00" waitingCount="1" stopTime="0.00" timeLoss="32.80" rerouteNo="0" devices="tripinfo_flow_route_90_duration_20250327_2030.0" vType="car" speedFactor="0.86" vaporized=""/>
    <tripinfo id="flow_route_89_duration_20250327_2030.4" depart="16.00" departLane="380585338#0_0" departPos="14.94" departSpeed="0.00" departDelay="1.88" arrival="54.00" arrivalLane="380593307#0_2" arrivalPos="4.83" arrivalSpeed="8.86" duration="38.00" routeLength="200.17" waitingTime="4.00" waitingCount="1" stopTime="0.00" timeLoss="25.93" rerouteNo="0" devices="tripinfo_flow_route_89_duration_20250327_2030.4" vType="car" speedFactor="1.18" vaporized=""/>
    <tripinfo id="flow_route_89_duration_20250327_2030.7" depart="25.00" departLane="380585338#0_0" departPos="135.62" departSpeed="0.00" departDelay="0.30" arrival="55.00" arrivalLane="380593307#0_1" arrivalPos="17.63" arrivalSpeed="9.72" duration="30.00" routeLength="92.28" waitingTime="8.00" waitingCount="1" stopTime="0.00" timeLoss="24.27" rerouteNo="0" devices="tripinfo_flow_route_89_duration_20250327_2030.7" vType="car" speedFactor="1.09" vaporized=""/>
    <tripinfo id="flow_route_77_duration_20250327_2030.0" depart="0.00" departLane="133342692#0_0" departPos="115.39" departSpeed="0.00" departDelay="0.00" arrival="58.00" arrivalLane="423956929_0" arrivalPos="132.19" arrivalSpeed="15.10" duration="58.00" routeLength="199.33" waitingTime="26.00" waitingCount="1" stopTime="0.00" timeLoss="44.13" rerouteNo="0" devices="tripinfo_flow_route_77_duration_20250327_2030.0" vType="car" speedFactor="0.94" vaporized=""/>
    <tripinfo id="flow_route_89_duration_20250327_2030.0" depart="0.00" departLane="380585338#0_0" departPos="55.91" departSpeed="0.00" departDelay="0.00" arrival="58.00" arrivalLane="380593307#0_1" arrivalPos="94.67" arrivalSpeed="13.52" duration="58.00" routeLength="249.03" waitingTime="20.00" waitingCount="1" stopTime="0.00" timeLoss="41.91" rerouteNo="0" devices="tripinfo_flow_route_89_duration_20250327_2030.0" vType="car" speedFactor="0.94" vaporized=""/>
    <tripinfo id="flow_route_89_duration_20250327_2030.5" depart="20.00" departLane="380585338#0_0" departPos="63.41" departSpeed="0.00" departDelay="2.36" arrival="58.00" arrivalLane="380593307#0_0" arrivalPos="50.35" arrivalSpeed="13.09" duration="38.00" routeLength="197.21" waitingTime="2.00" waitingCount="1" stopTime="0.00" timeLoss="25.59" rerouteNo="0" devices="tripinfo_flow_route_89_duration_20250327_2030.5" vType="car" speedFactor="1.02" vaporized=""/>
    <tripinfo id="flow_route_89_duration_20250327_2030.3" depart="13.00" departLane="380585338#0_0" departPos="85.54" departSpeed="0.00" departDelay="2.41" arrival="59.00" arrivalLane="380593307#0_0" arrivalPos="115.99" arrivalSpeed="14.43" duration="46.00" routeLength="240.73" waitingTime="4.00" waitingCount="2" stopTime="0.00" timeLoss="29.38" rerouteNo="0" devices="tripinfo_flow_route_89_duration_20250327_2030.3" vType="car" speedFactor="0.89" vaporized=""/>
    <tripinfo id="flow_route_90_duration_20250327_2030.2" depart="18.00" departLane="380585338#0_0" departPos="36.88" departSpeed="0.00" departDelay="3.00" arrival="60.00" arrivalLane="136617981_0" arrivalPos="79.03" arrivalSpeed="13.24" duration="42.00" routeLength="229.22" waitingTime="1.00" waitingCount="1" stopTime="0.00" timeLoss="27.53" rerouteNo="0" devices="tripinfo_flow_route_90_duration_20250327_2030.2" vType="car" speedFactor="1.15" vaporized=""/>
    <tripinfo id="flow_route_90_duration_20250327_2030.3" depart="23.00" departLane="380585338#0_0" departPos="99.61" departSpeed="0.00" departDelay="0.50" arrival="60.00" arrivalLane="136617981_0" arrivalPos="129.18" arrivalSpeed="14.46" duration="37.00" routeLength="216.63" waitingTime="3.00" waitingCount="1" stopTime="0.00" timeLoss="22.30" rerouteNo="0" devices="tripinfo_flow_route_90_duration_20250327_2030.3" vType="car" speedFactor="0.96" vaporized=""/>
    <tripinfo id="flow_route_89_duration_20250327_2030.10" depart="36.00" departLane="380585338#0_0" departPos="2.03" departSpeed="0.00" departDelay="0.71" arrival="60.00" arrivalLane="380593307#0_2" arrivalPos="0.15" arrivalSpeed="15.04" duration="24.00" routeLength="208.39" waitingTime="0.00" waitingCount="0" stopTime="0.00" timeLoss="10.51" rerouteNo="0" devices="tripinfo_flow_route_89_duration_20250327_2030.10" vType="car" speedFactor="0.94" vaporized=""/>
    <tripinfo id="flow_route_76_duration_20250327_2030.0" depart="0.00" departLane="133342692#0_0" departPos="1.03" departSpeed="0.00" departDelay="0.00" arrival="62.00" arrivalLane="133000063_0" arrivalPos="153.47" arrivalSpeed="16.20" duration="62.00" routeLength="359.35" waitingTime="16.00" waitingCount="1" stopTime="0.00" timeLoss="40.27" rerouteNo="0" devices="tripinfo_flow_route_76_duration_20250327_2030.0" vType="car" speedFactor="1.06" vaporized=""/>
    <tripinfo id="flow_route_89_duration_20250327_2030.8" depart="29.00" departLane="380585338#0_0" departPos="67.84" departSpeed="0.00" departDelay="0.77" arrival="62.00" arrivalLane="380593307#0_1" arrivalPos="83.34" arrivalSpeed="13.73" duration="33.00" routeLength="225.77" waitingTime="0.00" waitingCount="0" stopTime="0.00" timeLoss="17.03" rerouteNo="0" devices="tripinfo_flow_route_89_duration_20250327_2030.8" vType="car" speedFactor="0.85" vaporized=""/>
    <tripinfo id="flow_route_76_duration_20250327_2030.1" depart="30.00" departLane="133342692#0_0" departPos="101.00" departSpeed="0.00" departDelay="0.00" arrival="62.00" arrivalLane="133000063_0" arrivalPos="116.32" arrivalSpeed="14.24" duration="32.00" routeLength="222.24" waitingTime="0.00" waitingCount="0" stopTime="0.00" timeLoss="16.19" rerouteNo="0" devices="tripinfo_flow_route_76_duration_20250327_2030.1" vType="car" speedFactor="0.85" vaporized=""/>
    <tripinfo id="flow_route_89_duration_20250327_2030.1" depart="5.00" departLane="380585338#0_0" departPos="94.52" departSpeed="0.00" departDelay="1.47" arrival="63.00" arrivalLane="380593307#0_2" arrivalPos="163.03" arrivalSpeed="16.55" duration="58.00" routeLength="278.78" waitingTime="17.00" waitingCount="1" stopTime="0.00" timeLoss="40.38" rerouteNo="0" devices="tripinfo_flow_route_89_duration_20250327_2030.1" vType="car" speedFactor="1.12" vaporized=""/>
    <tripinfo id="flow_route_77_duration_20250327_2030.1" depart="16.00" departLane="133342692#0_0" departPos="53.81" departSpeed="0.00" departDelay="1.00" arrival="63.00" arrivalLane="423956929_0" arrivalPos="177.16" arrivalSpeed="14.99" duration="47.00" routeLength="305.88" waitingTime="6.00" waitingCount="1" stopTime="0.00" timeLoss="25.22" rerouteNo="0" devices="tripinfo_flow_route_77_duration_20250327_2030.1" vType="car" speedFactor="0.92" vaporized=""/>
    <tripinfo id="flow_route_89_duration_20250327_2030.6" depart="23.00" departLane="380585338#0_0" departPos="151.74" departSpeed="0.00" departDelay="1.83" arrival="64.00" arrivalLane="380593307#0_1" arrivalPos="160.57" arrivalSpeed="16.31" duration="41.00" routeLength="219.10" waitingTime="11.00" waitingCount="1" stopTime="0.00" timeLoss="27.44" rerouteNo="0" devices="tripinfo_flow_route_89_duration_20250327_2030.6" vType="car" speedFactor="1.03" vaporized=""/>
    <tripinfo id="flow_route_89_duration_20250327_2030.2" depart="8.00" departLane="380585338#0_0" departPos="22.47" departSpeed="0.00" departDelay="0.94" arrival="65.00" arrivalLane="380593307#0_2" arrivalPos="166.07" arrivalSpeed="15.25" duration="57.00" routeLength="353.88" waitingTime="10.00" waitingCount="1" stopTime="0.00" timeLoss="33.81" rerouteNo="0" devices="tripinfo_flow_route_89_duration_20250327_2030.2" vType="car" speedFactor="0.94" vaporized=""/>
    <tripinfo id="flow_route_77_duration_20250327_2030.2" depart="30.00" departLane="133342692#0_0" departPos="47.54" departSpeed="0.00" departDelay="0.00" arrival="66.00" arrivalLane="423956929_0" arrivalPos="181.49" arrivalSpeed="16.17" duration="36.00" routeLength="316.48" waitingTime="0.00" waitingCount="0" stopTime="0.00" timeLoss="15.34" rerouteNo="0" devices="tripinfo_flow_route_77_duration_20250327_2030.2" vType="car" speedFactor="1.17" vaporized=""/>
    <tripinfo id="flow_route_89_duration_20250327_2030.9" depart="34.00" departLane="380585338#0_0" departPos="60.05" departSpeed="0.00" departDelay="2.24" arrival="67.00" arrivalLane="380593307#0_2" arrivalPos="164.02" arrivalSpeed="15.82" duration="33.00" routeLength="314.24" waitingTime="0.00" waitingCount="0" stopTime="0.00" timeLoss="13.07" rerouteNo="0" devices="tripinfo_flow_route_89_duration_20250327_2030.9" vType="car" speedFactor="0.97" vaporized=""/>
    <tripinfo id="flow_route_90_duration_20250327_2030.6" depart="46.00" departLane="380585338#0_0" departPos="130.16" departSpeed="0.00" departDelay="1.00" arrival="67.00" arrivalLane="136617981_0" arrivalPos="67.57" arrivalSpeed="11.69" duration="21.00" routeLength="124.48" waitingTime="0.00" waitingCount="0" stopTime="0.00" timeLoss="12.66" rerouteNo="0" devices="tripinfo_flow_route_90_duration_20250327_2030.6" vType="car" speedFactor="1.09" vaporized=""/>
    <tripinfo id="flow_route_89_duration_20250327_2030.11" depart="42.00" departLane="380585338#0_0" departPos="100.64" departSpeed="0.00" departDelay="3.18" arrival="70.00" arrivalLane="380593307#0_1" arrivalPos="162.53" arrivalSpeed="16.39" duration="28.00" routeLength="272.16" waitingTime="0.00" waitingCount="0" stopTime="0.00" timeLoss="11.17" rerouteNo="0" devices="tripinfo_flow_route_89_duration_20250327_2030.11" vType="car" speedFactor="1.02" vaporized=""/>
    <tripinfo id="flow_route_78_duration_20250327_2030.0" depart="0.00" departLane="133342692#0_0" departPos="79.92" departSpeed="0.00" departDelay="0.00" arrival="71.00" arrivalLane="136617981_2" arrivalPos="12.89" arrivalSpeed="7.40" duration="71.00" routeLength="138.43" waitingTime="35.00" waitingCount="2" stopTime="0.00" timeLoss="61.87" rerouteNo="0" devices="tripinfo_flow_route_78_duration_20250327_2030.0" vType="car" speedFactor="1.01" vaporized=""/>
    <tripinfo id="flow_route_90_duration_20250327_2030.4" depart="30.00" departLane="380585338#0_0" departPos="17.86" departSpeed="0.00" departDelay="0.00" arrival="73.00" arrivalLane="136617981_0" arrivalPos="122.11" arrivalSpeed="14.94" duration="43.00" routeLength="291.32" waitingTime="0.00" waitingCount="0" stopTime="0.00" timeLoss="24.46" rerouteNo="0" devices="tripinfo_flow_route_90_duration_20250327_2030.4" vType="car" speedFactor="1.14" vaporized=""/>
    <tripinfo id="flow_route_90_duration_20250327_2030.5" depart="39.00" departLane="380585338#0_0" departPos="136.15" departSpeed="0.00" departDelay="1.50" arrival="74.00" arrivalLane="136617981_0" arrivalPos="241.27" arrivalSpeed="14.89" duration="35.00" routeLength="292.20" waitingTime="0.00" waitingCount="0" stopTime="0.00" timeLoss="13.97" rerouteNo="0" devices="tripinfo_flow_route_90_duration_20250327_2030.5" vType="car" speedFactor="0.91" vaporized=""/>
    <tripinfo id="flow_route_78_duration_20250327_2030.1" depart="4.00" departLane="133342692#0_0" departPos="141.33" departSpeed="0.00" departDelay="0.67" arrival="77.00" arrivalLane="136617981_2" arrivalPos="87.03" arrivalSpeed="12.61" duration="73.00" routeLength="151.16" waitingTime="38.00" waitingCount="2" stopTime="0.00" timeLoss="62.76" rerouteNo="0" devices="tripinfo_flow_route_78_duration_20250327_2030.1" vType="car" speedFactor="1.03" vaporized=""/>
    <tripinfo id="flow_route_78_duration_20250327_2030.3" depart="11.00" departLane="133342692#0_0" departPos="122.68" departSpeed="0.00" departDelay="1.00" arrival="78.00" arrivalLane="136617981_2" arrivalPos="63.24" arrivalSpeed="12.03" duration="67.00" routeLength="146.02" waitingTime="33.00" waitingCount="2" stopTime="0.00" timeLoss="57.53" rerouteNo="0" devices="tripinfo_flow_route_78_duration_20250327_2030.3" vType="car" speedFactor="1.02" vaporized=""/>
    <tripinfo id="flow_route_77_duration_20250327_2030.3" depart="46.00" departLane="133342692#0_0" departPos="14.50" departSpeed="0.00" departDelay="1.00" arrival="82.00" arrivalLane="423956929_0" arrivalPos="157.84" arrivalSpeed="16.52" duration="36.00" routeLength="325.87" waitingTime="0.00" waitingCount="0" stopTime="0.00" timeLoss="15.70" rerouteNo="0" devices="tripinfo_flow_route_77_duration_20250327_2030.3" vType="car" speedFactor="1.03" vaporized=""/>
    <tripinfo id="flow_route_78_duration_20250327_2030.2" depart="8.00" departLane="133342692#0_0" departPos="117.46" departSpeed="0.00" departDelay="1.33" arrival="86.00" arrivalLane="136617981_2" arrivalPos="85.53" arrivalSpeed="14.16" duration="78.00" routeLength="173.53" waitingTime="33.00" waitingCount="4" stopTime="0.00" timeLoss="65.18" rerouteNo="0" devices="tripinfo_flow_route_78_duration_20250327_2030.2" vType="car" speedFactor="0.93" vaporized=""/>
    <tripinfo id="flow_route_78_duration_20250327_2030.10" depart="34.00" departLane="133342692#0_0" departPos="136.81" departSpeed="0.00" departDelay="0.67" arrival="86.00" arrivalLane="136617981_2" arrivalPos="47.47" arrivalSpeed="12.12" duration="52.00" routeLength="116.12" waitingTime="23.00" waitingCount="3" stopTime="0.00" timeLoss="44.18" rerouteNo="0" devices="tripinfo_flow_route_78_duration_20250327_2030.10" vType="car" speedFactor="1.12" vaporized=""/>
    <tripinfo id="flow_route_78_duration_20250327_2030.8" depart="28.00" departLane="133342692#0_0" departPos="151.22" departSpeed="0.00" departDelay="1.34" arrival="90.00" arrivalLane="136617981_2" arrivalPos="201.86" arrivalSpeed="16.51" duration="62.00" routeLength="256.10" waitingTime="24.00" waitingCount="3" stopTime="0.00" timeLoss="45.62" rerouteNo="0" devices="tripinfo_flow_route_78_duration_20250327_2030.8" vType="car" speedFactor="1.00" vaporized=""/>
    <tripinfo id="flow_route_78_duration_20250327_2030.12" depart="40.00" departLane="133342692#0_0" departPos="123.98" departSpeed="0.00" departDelay="0.00" arrival="93.00" arrivalLane="136617981_2" arrivalPos="58.81" arrivalSpeed="13.28" duration="53.00" routeLength="140.29" waitingTime="26.00" waitingCount="2" stopTime="0.00" timeLoss="43.22" rerouteNo="0" devices="tripinfo_flow_route_78_duration_20250327_2030.12" vType="car" speedFactor="1.02" vaporized=""/>
    <tripinfo id="flow_route_78_duration_20250327_2030.4" depart="14.00" departLane="133342692#0_0" departPos="28.87" departSpeed="0.00" departDelay="0.67" arrival="96.00" arrivalLane="136617981_2" arrivalPos="164.40" arrivalSpeed="14.13" duration="82.00" routeLength="340.99" waitingTime="29.00" waitingCount="2" stopTime="0.00" timeLoss="57.39" rerouteNo="0" devices="tripinfo_flow_route_78_duration_20250327_2030.4" vType="car" speedFactor="0.87" vaporized=""/>
    <tripinfo id="flow_route_79_duration_20250327_2030.2" depart="30.00" departLane="380344611#0_0" departPos="193.07" departSpeed="0.00" departDelay="0.00" arrival="100.00" arrivalLane="423956929_0" arrivalPos="28.49" arrivalSpeed="8.84" duration="70.00" routeLength="151.24" waitingTime="40.00" waitingCount="1" stopTime="0.00" timeLoss="60.67" rerouteNo="0" devices="tripinfo_flow_route_79_duration_20250327_2030.2" vType="car" speedFactor="1.10" vaporized=""/>
    <tripinfo id="flow_route_84_duration_20250327_2030.5" depart="17.00" departLane="1091883842_0" departPos="33.55" departSpeed="0.00" departDelay="2.00" arrival="102.00" arrivalLane="136617981_2" arrivalPos="43.03" arrivalSpeed="11.28" duration="85.00" routeLength="227.77" waitingTime="47.00" waitingCount="1" stopTime="0.00" timeLoss="69.62" rerouteNo="0" devices="tripinfo_flow_route_84_duration_20250327_2030.5" vType="car" speedFactor="0.93" vaporized=""/>
    <tripinfo id="flow_route_84_duration_20250327_2030.2" depart="6.00" departLane="1091883842_0" departPos="6.02" departSpeed="0.00" departDelay="0.00" arrival="103.00" arrivalLane="136617981_1" arrivalPos="67.09" arrivalSpeed="12.33" duration="97.00" routeLength="279.36" waitingTime="56.00" waitingCount="1" stopTime="0.00" timeLoss="80.04" rerouteNo="0" devices="tripinfo_flow_route_84_duration_20250327_2030.2" vType="car" speedFactor="0.99" vaporized=""/>
    <tripinfo id="flow_route_79_duration_20250327_2030.3" depart="46.00" departLane="380344611#0_0" departPos="161.52" departSpeed="0.00" departDelay="1.00" arrival="105.00" arrivalLane="423956929_0" arrivalPos="86.42" arrivalSpeed="12.95" duration="59.00" routeLength="240.73" waitingTime="22.00" waitingCount="1" stopTime="0.00" timeLoss="43.74" rerouteNo="0" devices="tripinfo_flow_route_79_duration_20250327_2030.3" vType="car" speedFactor="0.98" vaporized=""/>
    <tripinfo id="flow_route_80_duration_20250327_2030.4" depart="42.00" departLane="380344611#0_0" departPos="36.72" departSpeed="0.00" departDelay="2.00" arrival="106.00" arrivalLane="380593307#0_0" arrivalPos="26.62" arrivalSpeed="8.66" duration="64.00" routeLength="282.52" waitingTime="18.00" waitingCount="1" stopTime="0.00" timeLoss="45.25" rerouteNo="0" devices="tripinfo_flow_route_80_duration_20250327_2030.4" vType="car" speedFactor="0.97" vaporized=""/>
    <tripinfo id="flow_route_84_duration_20250327_2030.17" depart="51.00" departLane="1091883842_0" departPos="101.34" departSpeed="0.00" departDelay="0.00" arrival="106.00" arrivalLane="136617981_1" arrivalPos="3.30" arrivalSpeed="9.39" duration="55.00" routeLength="120.25" waitingTime="29.00" waitingCount="1" stopTime="0.00" timeLoss="47.59" rerouteNo="0" devices="tripinfo_flow_route_84_duration_20250327_2030.17" vType="car" speedFactor="1.01" vaporized=""/>
    <tripinfo id="flow_route_84_duration_20250327_2030.9" depart="27.00" departLane="1091883842_0" departPos="26.21" departSpeed="0.00" departDelay="0.00" arrival="107.00" arrivalLane="136617981_1" arrivalPos="35.23" arrivalSpeed="10.98" duration="80.00" routeLength="227.30" waitingTime="41.00" waitingCount="1" stopTime="0.00" timeLoss="64.86" rerouteNo="0" devices="tripinfo_flow_route_84_duration_20250327_2030.9" vType="car" speedFactor="0.90" vaporized=""/>
    <tripinfo id="flow_route_84_duration_20250327_2030.6" depart="20.00" departLane="1091883842_0" departPos="77.47" departSpeed="0.00" departDelay="2.00" arrival="108.00" arrivalLane="136617981_2" arrivalPos="99.72" arrivalSpeed="15.03" duration="88.00" routeLength="240.54" waitingTime="47.00" waitingCount="1" stopTime="0.00" timeLoss="72.69" rerouteNo="0" devices="tripinfo_flow_route_84_duration_20250327_2030.6" vType="car" speedFactor="0.99" vaporized=""/>
    <tripinfo id="flow_route_80_duration_20250327_2030.2" depart="20.00" departLane="380344611#0_0" departPos="6.76" departSpeed="0.00" departDelay="0.00" arrival="108.00" arrivalLane="380593307#0_0" arrivalPos="101.56" arrivalSpeed="12.84" duration="88.00" routeLength="387.42" waitingTime="40.00" waitingCount="1" stopTime="0.00" timeLoss="63.89" rerouteNo="0" devices="tripinfo_flow_route_80_duration_20250327_2030.2" vType="car" speedFactor="1.18" vaporized=""/>
    <tripinfo id="flow_route_84_duration_20250327_2030.7" depart="22.00" departLane="1091883842_0" departPos="91.50" departSpeed="0.00" departDelay="1.00" arrival="108.00" arrivalLane="136617981_0" arrivalPos="85.80" arrivalSpeed="14.29" duration="86.00" routeLength="212.60" waitingTime="49.00" waitingCount="1" stopTime="0.00" timeLoss="72.97" rerouteNo="0" devices="tripinfo_flow_route_84_duration_20250327_2030.7" vType="car" speedFactor="1.10" vaporized=""/>
    <tripinfo id="flow_route_84_duration_20250327_2030.10" depart="31.00" departLane="1091883842_0" departPos="159.07" departSpeed="0.00" departDelay="1.00" arrival="108.00" arrivalLane="136617981_1" arrivalPos="97.65" arrivalSpeed="14.65" duration="77.00" routeLength="156.87" waitingTime="49.00" waitingCount="1" stopTime="0.00" timeLoss="67.32" rerouteNo="0" devices="tripinfo_flow_route_84_duration_20250327_2030.10" vType="car" speedFactor="1.00" vaporized=""/>
    <tripinfo id="flow_route_84_duration_20250327_2030.14" depart="43.00" departLane="1091883842_0" departPos="41.97" departSpeed="0.00" departDelay="1.00" arrival="108.00" arrivalLane="136617981_2" arrivalPos="44.67" arrivalSpeed="11.41" duration="65.00" routeLength="220.99" waitingTime="26.00" waitingCount="1" stopTime="0.00" timeLoss="50.29" rerouteNo="0" devices="tripinfo_flow_route_84_duration_20250327_2030.14" vType="car" speedFactor="0.94" vaporized=""/>
    <tripinfo id="flow_route_84_duration_20250327_2030.8" depart="26.00" departLane="1091883842_0" departPos="52.22" departSpeed="0.00" departDelay="2.00" arrival="109.00" arrivalLane="136617981_2" arrivalPos="83.98" arrivalSpeed="13.10" duration="83.00" routeLength="250.05" waitingTime="43.00" waitingCount="1" stopTime="0.00" timeLoss="67.71" rerouteNo="0" devices="tripinfo_flow_route_84_duration_20250327_2030.8" vType="car" speedFactor="1.04" vaporized=""/>
    <tripinfo id="flow_route_80_duration_20250327_2030.3" depart="30.00" departLane="380344611#0_0" departPos="168.07" departSpeed="0.00" departDelay="0.00" arrival="110.00" arrivalLane="380593307#0_0" arrivalPos="157.02" arrivalSpeed="16.38" duration="80.00" routeLength="281.57" waitingTime="40.00" waitingCount="1" stopTime="0.00" timeLoss="62.09" rerouteNo="0" devices="tripinfo_flow_route_80_duration_20250327_2030.3" vType="car" speedFactor="1.00" vaporized=""/>
    <tripinfo id="flow_route_84_duration_20250327_2030.12" depart="38.00" departLane="1091883842_0" departPos="152.16" departSpeed="0.00" departDelay="2.00" arrival="110.00" arrivalLane="136617981_1" arrivalPos="96.04" arrivalSpeed="15.45" duration="72.00" routeLength="162.17" waitingTime="42.00" waitingCount="1" stopTime="0.00" timeLoss="61.71" rerouteNo="0" devices="tripinfo_flow_route_84_duration_20250327_2030.12" vType="car" speedFactor="0.99" vaporized=""/>
    <tripinfo id="flow_route_84_duration_20250327_2030.15" depart="46.00" departLane="1091883842_0" departPos="6.43" departSpeed="0.00" departDelay="1.00" arrival="110.00" arrivalLane="136617981_2" arrivalPos="54.00" arrivalSpeed="12.45" duration="64.00" routeLength="265.86" waitingTime="23.00" waitingCount="1" stopTime="0.00" timeLoss="47.74" rerouteNo="0" devices="tripinfo_flow_route_84_duration_20250327_2030.15" vType="car" speedFactor="1.01" vaporized=""/>
    <tripinfo id="flow_route_84_duration_20250327_2030.19" depart="57.00" departLane="1091883842_0" departPos="5.85" departSpeed="0.00" departDelay="0.00" arrival="110.00" arrivalLane="136617981_0" arrivalPos="3.77" arrivalSpeed="10.93" duration="53.00" routeLength="216.21" waitingTime="16.00" waitingCount="1" stopTime="0.00" timeLoss="39.39" rerouteNo="0" devices="tripinfo_flow_route_84_duration_20250327_2030.19" vType="car" speedFactor="1.01" vaporized=""/>