<?xml version="1.0" encoding="UTF-8"?>

<!-- generated on 2025-05-06 21:08:23 by Eclipse SUMO sumo Version 1.20.0
<configuration xmlns:xsi="http://www.w3.org/2001/XMLSchema-instance" xsi:noNamespaceSchemaLocation="http://sumo.dlr.de/xsd/sumoConfiguration.xsd">

    <input>
        <net-file value="osm.net.xml"/>
        <route-files value="xml/route_rl_cluster_11648745684_256036885_3839031483_4.rou.xml"/>
    </input>

    <output>
        <tripinfo-output value="xml/tripinfo_rl_cluster_11648745684_256036885_3839031483_4.xml"/>
    </output>

    <traci_server>
        <remote-port value="47591"/>
    </traci_server>

</configuration>
-->

<tripinfos xmlns:xsi="http://www.w3.org/2001/XMLSchema-instance" xsi:noNamespaceSchemaLocation="http://sumo.dlr.de/xsd/tripinfo_file.xsd">
    <tripinfo id="flow_route_72_duration_20250327_2230.0" depart="0.00" departLane="1369578052#0_0" departPos="161.40" departSpeed="0.00" departDelay="0.00" arrival="15.00" arrivalLane="133342692#0_0" arrivalPos="42.43" arrivalSpeed="11.65" duration="15.00" routeLength="81.12" waitingTime="0.00" waitingCount="0" stopTime="0.00" timeLoss="8.08" rerouteNo="0" devices="tripinfo_flow_route_72_duration_20250327_2230.0" vType="car" speedFactor="0.89" vaporized=""/>
    <tripinfo id="flow_route_68_duration_20250327_2230.0" depart="0.00" departLane="1253209803#0_0" departPos="143.52" departSpeed="0.00" departDelay="0.00" arrival="29.00" arrivalLane="-138002002#2_1" arrivalPos="90.53" arrivalSpeed="16.38" duration="29.00" routeLength="298.33" waitingTime="0.00" waitingCount="0" stopTime="0.00" timeLoss="10.81" rerouteNo="0" devices="tripinfo_flow_route_68_duration_20250327_2230.0" vType="car" speedFactor="1.08" vaporized=""/>
    <tripinfo id="flow_route_70_duration_20250327_2230.0" depart="0.00" departLane="1253209803#0_0" departPos="83.97" departSpeed="0.00" departDelay="0.00" arrival="32.00" arrivalLane="133342692#0_2" arrivalPos="7.48" arrivalSpeed="9.70" duration="32.00" routeLength="271.18" waitingTime="0.00" waitingCount="0" stopTime="0.00" timeLoss="13.58" rerouteNo="0" devices="tripinfo_flow_route_70_duration_20250327_2230.0" vType="car" speedFactor="0.83" vaporized=""/>
    <tripinfo id="flow_route_69_duration_20250327_2230.0" depart="0.00" departLane="1253209803#0_0" departPos="179.76" departSpeed="0.00" departDelay="0.00" arrival="34.00" arrivalLane="380585337#0_0" arrivalPos="14.31" arrivalSpeed="16.34" duration="34.00" routeLength="299.43" waitingTime="0.00" waitingCount="0" stopTime="0.00" timeLoss="14.72" rerouteNo="0" devices="tripinfo_flow_route_69_duration_20250327_2230.0" vType="car" speedFactor="1.03" vaporized=""/>
    <tripinfo id="flow_route_71_duration_20250327_2230.0" depart="0.00" departLane="1369578052#0_0" departPos="11.11" departSpeed="0.00" departDelay="0.00" arrival="38.00" arrivalLane="138002016#0_0" arrivalPos="236.62" arrivalSpeed="16.57" duration="38.00" routeLength="443.19" waitingTime="0.00" waitingCount="0" stopTime="0.00" timeLoss="10.77" rerouteNo="0" devices="tripinfo_flow_route_71_duration_20250327_2230.0" vType="car" speedFactor="1.05" vaporized=""/>
    <tripinfo id="flow_route_68_duration_20250327_2230.1" depart="20.00" departLane="1253209803#0_0" departPos="130.58" departSpeed="0.00" departDelay="0.00" arrival="47.00" arrivalLane="-138002002#2_0" arrivalPos="23.83" arrivalSpeed="16.28" duration="27.00" routeLength="244.57" waitingTime="0.00" waitingCount="0" stopTime="0.00" timeLoss="11.56" rerouteNo="0" devices="tripinfo_flow_route_68_duration_20250327_2230.1" vType="car" speedFactor="0.99" vaporized=""/>
    <tripinfo id="flow_route_68_duration_20250327_2230.2" depart="41.00" departLane="1253209803#0_0" departPos="203.69" departSpeed="0.00" departDelay="1.00" arrival="67.00" arrivalLane="-138002002#2_0" arrivalPos="106.85" arrivalSpeed="15.93" duration="26.00" routeLength="254.49" waitingTime="0.00" waitingCount="0" stopTime="0.00" timeLoss="9.73" rerouteNo="0" devices="tripinfo_flow_route_68_duration_20250327_2230.2" vType="car" speedFactor="0.97" vaporized=""/>
    <tripinfo id="flow_route_65_duration_20250327_2230.0" depart="8.00" departLane="133131666#1_0" departPos="5.26" departSpeed="0.00" departDelay="8.00" arrival="82.00" arrivalLane="138002016#0_2" arrivalPos="14.48" arrivalSpeed="7.53" duration="74.00" routeLength="193.68" waitingTime="41.00" waitingCount="1" stopTime="0.00" timeLoss="61.56" rerouteNo="0" devices="tripinfo_flow_route_65_duration_20250327_2230.0" vType="car" speedFactor="1.01" vaporized=""/>
    <tripinfo id="flow_route_64_duration_20250327_2230.1" depart="12.00" departLane="133131666#1_0" departPos="6.70" departSpeed="0.00" departDelay="0.00" arrival="83.00" arrivalLane="-138002002#2_0" arrivalPos="5.97" arrivalSpeed="7.04" duration="71.00" routeLength="164.82" waitingTime="41.00" waitingCount="1" stopTime="0.00" timeLoss="59.86" rerouteNo="0" devices="tripinfo_flow_route_64_duration_20250327_2230.1" vType="car" speedFactor="1.03" vaporized=""/>
    <tripinfo id="flow_route_64_duration_20250327_2230.2" depart="24.00" departLane="133131666#1_0" departPos="3.73" departSpeed="0.00" departDelay="0.00" arrival="90.00" arrivalLane="-138002002#2_0" arrivalPos="41.10" arrivalSpeed="9.20" duration="66.00" routeLength="202.92" waitingTime="31.00" waitingCount="1" stopTime="0.00" timeLoss="50.82" rerouteNo="0" devices="tripinfo_flow_route_64_duration_20250327_2230.2" vType="car" speedFactor="0.88" vaporized=""/>
    <tripinfo id="flow_route_65_duration_20250327_2230.3" depart="45.00" departLane="133131666#1_0" departPos="6.19" departSpeed="0.00" departDelay="0.00" arrival="91.00" arrivalLane="138002016#0_2" arrivalPos="48.34" arrivalSpeed="11.56" duration="46.00" routeLength="226.61" waitingTime="9.00" waitingCount="1" stopTime="0.00" timeLoss="28.63" rerouteNo="0" devices="tripinfo_flow_route_65_duration_20250327_2230.3" vType="car" speedFactor="0.83" vaporized=""/>
    <tripinfo id="flow_route_64_duration_20250327_2230.0" depart="2.00" departLane="133131666#1_0" departPos="6.82" departSpeed="0.00" departDelay="2.00" arrival="92.00" arrivalLane="-138002002#2_0" arrivalPos="131.25" arrivalSpeed="14.54" duration="90.00" routeLength="289.98" waitingTime="50.00" waitingCount="1" stopTime="0.00" timeLoss="70.61" rerouteNo="0" devices="tripinfo_flow_route_64_duration_20250327_2230.0" vType="car" speedFactor="0.94" vaporized=""/>
    <tripinfo id="flow_route_63_duration_20250327_2230.0" depart="0.00" departLane="133131666#1_0" departPos="14.94" departSpeed="0.00" departDelay="0.00" arrival="93.00" arrivalLane="133342692#0_0" arrivalPos="152.76" arrivalSpeed="16.33" duration="93.00" routeLength="321.54" waitingTime="51.00" waitingCount="1" stopTime="0.00" timeLoss="73.13" rerouteNo="0" devices="tripinfo_flow_route_63_duration_20250327_2230.0" vType="car" speedFactor="1.06" vaporized=""/>
    <tripinfo id="flow_route_64_duration_20250327_2230.3" depart="36.00" departLane="133131666#1_0" departPos="10.94" departSpeed="0.00" departDelay="0.00" arrival="94.00" arrivalLane="-138002002#2_0" arrivalPos="56.70" arrivalSpeed="11.38" duration="58.00" routeLength="211.31" waitingTime="21.00" waitingCount="1" stopTime="0.00" timeLoss="44.09" rerouteNo="0" devices="tripinfo_flow_route_64_duration_20250327_2230.3" vType="car" speedFactor="1.01" vaporized=""/>
    <tripinfo id="flow_route_65_duration_20250327_2230.2" depart="32.00" departLane="133131666#1_0" departPos="21.31" departSpeed="0.00" departDelay="2.00" arrival="99.00" arrivalLane="138002016#0_2" arrivalPos="181.97" arrivalSpeed="15.35" duration="67.00" routeLength="345.12" waitingTime="20.00" waitingCount="1" stopTime="0.00" timeLoss="43.78" rerouteNo="0" devices="tripinfo_flow_route_65_duration_20250327_2230.2" vType="car" speedFactor="0.94" vaporized=""/>
    <tripinfo id="flow_route_65_duration_20250327_2230.1" depart="17.00" departLane="133131666#1_0" departPos="7.36" departSpeed="0.00" departDelay="2.00" arrival="100.00" arrivalLane="138002016#0_2" arrivalPos="243.38" arrivalSpeed="16.53" duration="83.00" routeLength="420.48" waitingTime="33.00" waitingCount="1" stopTime="0.00" timeLoss="57.08" rerouteNo="0" devices="tripinfo_flow_route_65_duration_20250327_2230.1" vType="car" speedFactor="1.05" vaporized=""/>
    <tripinfo id="flow_route_64_duration_20250327_2230.4" depart="48.00" departLane="133131666#1_0" departPos="1.49" departSpeed="0.00" departDelay="0.00" arrival="105.00" arrivalLane="-138002002#2_0" arrivalPos="170.97" arrivalSpeed="15.07" duration="57.00" routeLength="335.03" waitingTime="10.00" waitingCount="1" stopTime="0.00" timeLoss="33.86" rerouteNo="0" devices="tripinfo_flow_route_64_duration_20250327_2230.4" vType="car" speedFactor="0.92" vaporized=""/>
    <tripinfo id="flow_route_75_duration_20250327_2230.0" depart="0.00" departLane="380593307#0_0" departPos="8.02" departSpeed="0.00" departDelay="0.00" arrival="117.00" arrivalLane="-138002002#2_1" arrivalPos="1.11" arrivalSpeed="6.44" duration="117.00" routeLength="196.85" waitingTime="85.00" waitingCount="1" stopTime="0.00" timeLoss="104.49" rerouteNo="0" devices="tripinfo_flow_route_75_duration_20250327_2230.0" vType="car" speedFactor="1.09" vaporized=""/>
    <tripinfo id="flow_route_75_duration_20250327_2230.1" depart="15.00" departLane="380593307#0_0" departPos="5.18" departSpeed="0.00" departDelay="0.00" arrival="122.00" arrivalLane="-138002002#2_1" arrivalPos="29.31" arrivalSpeed="9.78" duration="107.00" routeLength="227.89" waitingTime="72.00" waitingCount="1" stopTime="0.00" timeLoss="92.80" rerouteNo="0" devices="tripinfo_flow_route_75_duration_20250327_2230.1" vType="car" speedFactor="1.12" vaporized=""/>
    <tripinfo id="flow_route_75_duration_20250327_2230.2" depart="30.00" departLane="380593307#0_0" departPos="120.07" departSpeed="0.00" departDelay="0.00" arrival="123.00" arrivalLane="-138002002#2_1" arrivalPos="16.40" arrivalSpeed="8.91" duration="93.00" routeLength="100.09" waitingTime="69.00" waitingCount="1" stopTime="0.00" timeLoss="86.28" rerouteNo="0" devices="tripinfo_flow_route_75_duration_20250327_2230.2" vType="car" speedFactor="1.02" vaporized=""/>
    <tripinfo id="flow_route_74_duration_20250327_2230.1" depart="21.00" departLane="380593307#0_0" departPos="45.85" departSpeed="0.00" departDelay="1.00" arrival="125.00" arrivalLane="138002016#0_0" arrivalPos="39.92" arrivalSpeed="9.14" duration="104.00" routeLength="176.76" waitingTime="64.00" waitingCount="1" stopTime="0.00" timeLoss="91.31" rerouteNo="0" devices="tripinfo_flow_route_74_duration_20250327_2230.1" vType="car" speedFactor="0.93" vaporized=""/>
    <tripinfo id="flow_route_75_duration_20250327_2230.3" depart="45.00" departLane="380593307#0_0" departPos="94.92" departSpeed="0.00" departDelay="0.00" arrival="125.00" arrivalLane="-138002002#2_1" arrivalPos="5.13" arrivalSpeed="9.45" duration="80.00" routeLength="113.96" waitingTime="53.00" waitingCount="1" stopTime="0.00" timeLoss="70.81" rerouteNo="0" devices="tripinfo_flow_route_75_duration_20250327_2230.3" vType="car" speedFactor="0.87" vaporized=""/>
    <tripinfo id="flow_route_73_duration_20250327_2230.0" depart="0.00" departLane="380593307#0_0" departPos="55.90" departSpeed="0.00" departDelay="0.00" arrival="129.00" arrivalLane="380585337#0_1" arrivalPos="13.23" arrivalSpeed="15.40" duration="129.00" routeLength="294.01" waitingTime="88.00" waitingCount="1" stopTime="0.00" timeLoss="109.98" rerouteNo="0" devices="tripinfo_flow_route_73_duration_20250327_2230.0" vType="car" speedFactor="0.94" vaporized=""/>
    <tripinfo id="flow_route_74_duration_20250327_2230.2" depart="40.00" departLane="380593307#0_0" departPos="31.83" departSpeed="0.00" departDelay="0.00" arrival="129.00" arrivalLane="138002016#0_0" arrivalPos="53.61" arrivalSpeed="10.65" duration="89.00" routeLength="204.47" waitingTime="51.00" waitingCount="1" stopTime="0.00" timeLoss="74.21" rerouteNo="0" devices="tripinfo_flow_route_74_duration_20250327_2230.2" vType="car" speedFactor="0.89" vaporized=""/>
    <tripinfo id="flow_route_73_duration_20250327_2230.1" depart="30.00" departLane="380593307#0_0" departPos="103.51" departSpeed="0.00" departDelay="0.00" arrival="134.00" arrivalLane="380585337#0_0" arrivalPos="19.69" arrivalSpeed="16.37" duration="104.00" routeLength="252.86" waitingTime="65.00" waitingCount="1" stopTime="0.00" timeLoss="87.97" rerouteNo="0" devices="tripinfo_flow_route_73_duration_20250327_2230.1" vType="car" speedFactor="1.16" vaporized=""/>
    <tripinfo id="flow_route_74_duration_20250327_2230.0" depart="0.00" departLane="380593307#0_0" departPos="118.68" departSpeed="0.00" departDelay="0.00" arrival="135.00" arrivalLane="138002016#0_0" arrivalPos="237.21" arrivalSpeed="14.24" duration="135.00" routeLength="301.22" waitingTime="95.00" waitingCount="1" stopTime="0.00" timeLoss="112.54" rerouteNo="0" devices="tripinfo_flow_route_74_duration_20250327_2230.0" vType="car" speedFactor="0.86" vaporized=""/>
    <tripinfo id="flow_route_72_duration_20250327_2230.1" depart="30.00" departLane="1369578052#0_0" departPos="131.90" departSpeed="0.00" departDelay="0.00" arrival="159.00" arrivalLane="133342692#0_0" arrivalPos="41.39" arrivalSpeed="9.64" duration="129.00" routeLength="109.57" waitingTime="103.00" waitingCount="1" stopTime="0.00" timeLoss="120.60" rerouteNo="0" devices="tripinfo_flow_route_72_duration_20250327_2230.1" vType="car" speedFactor="0.94" vaporized=""/>
</tripinfos>
