<?xml version="1.0" encoding="UTF-8"?>

<!-- generated on 2025-05-06 21:08:22 by Eclipse SUMO sumo Version 1.20.0
<configuration xmlns:xsi="http://www.w3.org/2001/XMLSchema-instance" xsi:noNamespaceSchemaLocation="http://sumo.dlr.de/xsd/sumoConfiguration.xsd">

    <input>
        <net-file value="osm.net.xml"/>
        <route-files value="xml/route_rl_cluster_356722183_3828703848_4.rou.xml"/>
    </input>

    <output>
        <tripinfo-output value="xml/tripinfo_rl_cluster_356722183_3828703848_4.xml"/>
    </output>

    <traci_server>
        <remote-port value="39315"/>
    </traci_server>

</configuration>
-->

<tripinfos xmlns:xsi="http://www.w3.org/2001/XMLSchema-instance" xsi:noNamespaceSchemaLocation="http://sumo.dlr.de/xsd/tripinfo_file.xsd">
    <tripinfo id="flow_route_18_duration_20250327_2200.0" depart="0.00" departLane="133126040#0_0" departPos="80.59" departSpeed="0.00" departDelay="0.00" arrival="13.00" arrivalLane="1318893695#0_0" arrivalPos="9.11" arrivalSpeed="10.10" duration="13.00" routeLength="59.37" waitingTime="0.00" waitingCount="0" stopTime="0.00" timeLoss="8.94" rerouteNo="0" devices="tripinfo_flow_route_18_duration_20250327_2200.0" vType="car" speedFactor="1.01" vaporized=""/>
    <tripinfo id="flow_route_1_duration_20250327_2200.0" depart="3.00" departLane="1318793176#1_0" departPos="0.49" departSpeed="0.00" departDelay="3.00" arrival="28.00" arrivalLane="1318793173#0_1" arrivalPos="77.00" arrivalSpeed="15.45" duration="25.00" routeLength="200.41" waitingTime="1.00" waitingCount="1" stopTime="0.00" timeLoss="11.46" rerouteNo="0" devices="tripinfo_flow_route_1_duration_20250327_2200.0" vType="car" speedFactor="0.94" vaporized=""/>
    <tripinfo id="flow_route_0_duration_20250327_2200.2" depart="13.00" departLane="1318793176#1_0" departPos="1.80" departSpeed="0.00" departDelay="7.29" arrival="32.00" arrivalLane="133126031#0_0" arrivalPos="10.78" arrivalSpeed="13.78" duration="19.00" routeLength="129.40" waitingTime="0.00" waitingCount="0" stopTime="0.00" timeLoss="10.75" rerouteNo="0" devices="tripinfo_flow_route_0_duration_20250327_2200.2" vType="car" speedFactor="1.09" vaporized=""/>
    <tripinfo id="flow_route_19_duration_20250327_2200.1" depart="3.00" departLane="133126040#0_0" departPos="68.52" departSpeed="0.00" departDelay="0.50" arrival="33.00" arrivalLane="133126031#0_1" arrivalPos="227.33" arrivalSpeed="16.46" duration="30.00" routeLength="287.69" waitingTime="0.00" waitingCount="0" stopTime="0.00" timeLoss="10.75" rerouteNo="0" devices="tripinfo_flow_route_19_duration_20250327_2200.1" vType="car" speedFactor="0.94" vaporized=""/>
    <tripinfo id="flow_route_0_duration_20250327_2200.0" depart="0.00" departLane="1318793176#1_0" departPos="2.64" departSpeed="0.00" departDelay="0.00" arrival="36.00" arrivalLane="133126031#0_0" arrivalPos="296.30" arrivalSpeed="16.19" duration="36.00" routeLength="414.08" waitingTime="0.00" waitingCount="0" stopTime="0.00" timeLoss="10.42" rerouteNo="0" devices="tripinfo_flow_route_0_duration_20250327_2200.0" vType="car" speedFactor="1.06" vaporized=""/>
    <tripinfo id="flow_route_0_duration_20250327_2200.1" depart="10.00" departLane="1318793176#1_0" departPos="6.10" departSpeed="0.00" departDelay="7.14" arrival="36.00" arrivalLane="133126031#0_0" arrivalPos="107.07" arrivalSpeed="16.35" duration="26.00" routeLength="221.38" waitingTime="0.00" waitingCount="0" stopTime="0.00" timeLoss="11.21" rerouteNo="0" devices="tripinfo_flow_route_0_duration_20250327_2200.1" vType="car" speedFactor="0.89" vaporized=""/>
    <tripinfo id="flow_route_19_duration_20250327_2200.0" depart="0.00" departLane="133126040#0_0" departPos="0.65" departSpeed="0.00" departDelay="0.00" arrival="44.00" arrivalLane="133126031#0_1" arrivalPos="163.43" arrivalSpeed="16.36" duration="44.00" routeLength="291.65" waitingTime="4.00" waitingCount="1" stopTime="0.00" timeLoss="25.08" rerouteNo="0" devices="tripinfo_flow_route_19_duration_20250327_2200.0" vType="car" speedFactor="1.08" vaporized=""/>
    <tripinfo id="flow_route_19_duration_20250327_2200.5" depart="13.00" departLane="133126040#0_0" departPos="69.40" departSpeed="0.00" departDelay="0.50" arrival="51.00" arrivalLane="133126031#0_1" arrivalPos="192.90" arrivalSpeed="16.27" duration="38.00" routeLength="252.37" waitingTime="1.00" waitingCount="1" stopTime="0.00" timeLoss="20.59" rerouteNo="0" devices="tripinfo_flow_route_19_duration_20250327_2200.5" vType="car" speedFactor="0.94" vaporized=""/>
    <tripinfo id="flow_route_0_duration_20250327_2200.5" depart="28.00" departLane="1318793176#1_0" departPos="1.33" departSpeed="0.00" departDelay="13.72" arrival="51.00" arrivalLane="133126031#0_0" arrivalPos="92.73" arrivalSpeed="16.52" duration="23.00" routeLength="211.82" waitingTime="0.00" waitingCount="0" stopTime="0.00" timeLoss="9.86" rerouteNo="0" devices="tripinfo_flow_route_0_duration_20250327_2200.5" vType="car" speedFactor="1.16" vaporized=""/>
    <tripinfo id="flow_route_19_duration_20250327_2200.3" depart="8.00" departLane="133126040#0_0" departPos="44.49" departSpeed="0.00" departDelay="0.50" arrival="55.00" arrivalLane="133126031#0_1" arrivalPos="227.82" arrivalSpeed="16.40" duration="47.00" routeLength="312.20" waitingTime="1.00" waitingCount="1" stopTime="0.00" timeLoss="26.14" rerouteNo="0" devices="tripinfo_flow_route_19_duration_20250327_2200.3" vType="car" speedFactor="1.05" vaporized=""/>
    <tripinfo id="flow_route_0_duration_20250327_2200.6" depart="35.00" departLane="1318793176#1_0" departPos="0.16" departSpeed="0.00" departDelay="17.86" arrival="55.00" arrivalLane="133126031#0_0" arrivalPos="15.58" arrivalSpeed="11.75" duration="20.00" routeLength="135.84" waitingTime="0.00" waitingCount="0" stopTime="0.00" timeLoss="9.77" rerouteNo="0" devices="tripinfo_flow_route_0_duration_20250327_2200.6" vType="car" speedFactor="0.89" vaporized=""/>
    <tripinfo id="flow_route_0_duration_20250327_2200.3" depart="19.00" departLane="1318793176#1_0" departPos="2.27" departSpeed="0.00" departDelay="10.43" arrival="56.00" arrivalLane="133126031#0_0" arrivalPos="320.76" arrivalSpeed="16.22" duration="37.00" routeLength="438.91" waitingTime="0.00" waitingCount="0" stopTime="0.00" timeLoss="10.10" rerouteNo="0" devices="tripinfo_flow_route_0_duration_20250327_2200.3" vType="car" speedFactor="1.12" vaporized=""/>
    <tripinfo id="flow_route_19_duration_20250327_2200.6" depart="15.00" departLane="133126040#0_0" departPos="107.32" departSpeed="0.00" departDelay="0.00" arrival="56.00" arrivalLane="133126031#0_1" arrivalPos="308.64" arrivalSpeed="16.42" duration="41.00" routeLength="330.19" waitingTime="9.00" waitingCount="1" stopTime="0.00" timeLoss="19.46" rerouteNo="0" devices="tripinfo_flow_route_19_duration_20250327_2200.6" vType="car" speedFactor="1.01" vaporized=""/>
    <tripinfo id="flow_route_0_duration_20250327_2200.4" depart="24.00" departLane="1318793176#1_0" departPos="4.87" departSpeed="0.00" departDelay="12.57" arrival="58.00" arrivalLane="133126031#0_0" arrivalPos="229.99" arrivalSpeed="16.31" duration="34.00" routeLength="345.55" waitingTime="0.00" waitingCount="0" stopTime="0.00" timeLoss="11.62" rerouteNo="0" devices="tripinfo_flow_route_0_duration_20250327_2200.4" vType="car" speedFactor="0.88" vaporized=""/>
    <tripinfo id="flow_route_19_duration_20250327_2200.8" depart="20.00" departLane="133126040#0_0" departPos="63.28" departSpeed="0.00" departDelay="0.00" arrival="64.00" arrivalLane="133126031#0_1" arrivalPos="129.61" arrivalSpeed="14.98" duration="44.00" routeLength="195.21" waitingTime="2.00" waitingCount="1" stopTime="0.00" timeLoss="29.64" rerouteNo="0" devices="tripinfo_flow_route_19_duration_20250327_2200.8" vType="car" speedFactor="0.92" vaporized=""/>
    <tripinfo id="flow_route_19_duration_20250327_2200.11" depart="28.00" departLane="133126040#0_0" departPos="40.19" departSpeed="0.00" departDelay="0.50" arrival="64.00" arrivalLane="133126031#0_1" arrivalPos="93.52" arrivalSpeed="13.83" duration="36.00" routeLength="182.19" waitingTime="1.00" waitingCount="1" stopTime="0.00" timeLoss="23.75" rerouteNo="0" devices="tripinfo_flow_route_19_duration_20250327_2200.11" vType="car" speedFactor="1.17" vaporized=""/>
    <tripinfo id="flow_route_19_duration_20250327_2200.14" depart="35.00" departLane="133126040#0_0" departPos="97.71" departSpeed="0.00" departDelay="0.00" arrival="65.00" arrivalLane="133126031#0_0" arrivalPos="182.65" arrivalSpeed="16.38" duration="30.00" routeLength="213.81" waitingTime="2.00" waitingCount="2" stopTime="0.00" timeLoss="15.81" rerouteNo="0" devices="tripinfo_flow_route_19_duration_20250327_2200.14" vType="car" speedFactor="1.09" vaporized=""/>
    <tripinfo id="flow_route_19_duration_20250327_2200.2" depart="5.00" departLane="133126040#0_0" departPos="25.60" departSpeed="0.00" departDelay="0.00" arrival="67.00" arrivalLane="133126031#0_1" arrivalPos="295.18" arrivalSpeed="16.50" duration="62.00" routeLength="398.45" waitingTime="1.00" waitingCount="1" stopTime="0.00" timeLoss="35.57" rerouteNo="0" devices="tripinfo_flow_route_19_duration_20250327_2200.2" vType="car" speedFactor="0.86" vaporized=""/>
    <tripinfo id="flow_route_19_duration_20250327_2200.12" depart="30.00" departLane="133126040#0_0" departPos="97.82" departSpeed="0.00" departDelay="0.00" arrival="67.00" arrivalLane="133126031#0_1" arrivalPos="325.30" arrivalSpeed="16.38" duration="37.00" routeLength="356.35" waitingTime="1.00" waitingCount="1" stopTime="0.00" timeLoss="14.18" rerouteNo="0" devices="tripinfo_flow_route_19_duration_20250327_2200.12" vType="car" speedFactor="1.18" vaporized=""/>
    <tripinfo id="flow_route_19_duration_20250327_2200.22" depart="55.00" departLane="133126040#0_0" departPos="101.89" departSpeed="0.00" departDelay="0.00" arrival="71.00" arrivalLane="133126031#0_1" arrivalPos="3.87" arrivalSpeed="6.53" duration="16.00" routeLength="30.85" waitingTime="5.00" waitingCount="3" stopTime="0.00" timeLoss="12.70" rerouteNo="0" devices="tripinfo_flow_route_19_duration_20250327_2200.22" vType="car" speedFactor="0.99" vaporized=""/>
    <tripinfo id="flow_route_19_duration_20250327_2200.4" depart="10.00" departLane="133126040#0_0" departPos="9.63" departSpeed="0.00" departDelay="0.00" arrival="73.00" arrivalLane="133126031#0_1" arrivalPos="55.85" arrivalSpeed="11.18" duration="63.00" routeLength="175.09" waitingTime="2.00" waitingCount="2" stopTime="0.00" timeLoss="50.89" rerouteNo="0" devices="tripinfo_flow_route_19_duration_20250327_2200.4" vType="car" speedFactor="0.99" vaporized=""/>
    <tripinfo id="flow_route_0_duration_20250327_2200.7" depart="41.00" departLane="1318793176#1_0" departPos="8.37" departSpeed="0.00" departDelay="21.00" arrival="73.00" arrivalLane="133126031#0_0" arrivalPos="204.56" arrivalSpeed="16.38" duration="32.00" routeLength="316.60" waitingTime="0.00" waitingCount="0" stopTime="0.00" timeLoss="10.73" rerouteNo="0" devices="tripinfo_flow_route_0_duration_20250327_2200.7" vType="car" speedFactor="0.87" vaporized=""/>
    <tripinfo id="flow_route_0_duration_20250327_2200.8" depart="45.00" departLane="1318793176#1_0" departPos="1.04" departSpeed="0.00" departDelay="22.14" arrival="81.00" arrivalLane="133126031#0_0" arrivalPos="291.16" arrivalSpeed="16.41" duration="36.00" routeLength="410.54" waitingTime="0.00" waitingCount="0" stopTime="0.00" timeLoss="10.14" rerouteNo="0" devices="tripinfo_flow_route_0_duration_20250327_2200.8" vType="car" speedFactor="1.13" vaporized=""/>
    <tripinfo id="flow_route_0_duration_20250327_2200.9" depart="51.00" departLane="1318793176#1_0" departPos="1.28" departSpeed="0.00" departDelay="25.29" arrival="83.00" arrivalLane="133126031#0_0" arrivalPos="232.61" arrivalSpeed="16.44" duration="32.00" routeLength="351.76" waitingTime="0.00" waitingCount="0" stopTime="0.00" timeLoss="10.26" rerouteNo="0" devices="tripinfo_flow_route_0_duration_20250327_2200.9" vType="car" speedFactor="1.01" vaporized=""/>
    <tripinfo id="flow_route_19_duration_20250327_2200.15" depart="38.00" departLane="133126040#0_0" departPos="98.33" departSpeed="0.00" departDelay="0.50" arrival="83.00" arrivalLane="133126031#0_1" arrivalPos="305.49" arrivalSpeed="16.53" duration="45.00" routeLength="336.03" waitingTime="5.00" waitingCount="3" stopTime="0.00" timeLoss="23.05" rerouteNo="0" devices="tripinfo_flow_route_19_duration_20250327_2200.15" vType="car" speedFactor="1.09" vaporized=""/>
    <tripinfo id="flow_route_19_duration_20250327_2200.21" depart="53.00" departLane="133126040#0_0" departPos="106.24" departSpeed="0.00" departDelay="0.50" arrival="84.00" arrivalLane="133126031#0_0" arrivalPos="245.77" arrivalSpeed="16.18" duration="31.00" routeLength="268.39" waitingTime="2.00" waitingCount="1" stopTime="0.00" timeLoss="13.09" rerouteNo="0" devices="tripinfo_flow_route_19_duration_20250327_2200.21" vType="car" speedFactor="1.12" vaporized=""/>
    <tripinfo id="flow_route_48_duration_20250327_2200.0" depart="2.00" departLane="380351865#0_0" departPos="1.03" departSpeed="0.00" departDelay="2.00" arrival="85.00" arrivalLane="133126031#0_0" arrivalPos="14.50" arrivalSpeed="8.81" duration="83.00" routeLength="180.64" waitingTime="48.00" waitingCount="1" stopTime="0.00" timeLoss="64.82" rerouteNo="0" devices="tripinfo_flow_route_48_duration_20250327_2200.0" vType="car" speedFactor="0.83" vaporized=""/>
    <tripinfo id="flow_route_0_duration_20250327_2200.10" depart="57.00" departLane="1318793176#1_0" departPos="9.78" departSpeed="0.00" departDelay="28.43" arrival="85.00" arrivalLane="133126031#0_0" arrivalPos="159.63" arrivalSpeed="16.55" duration="28.00" routeLength="270.27" waitingTime="0.00" waitingCount="0" stopTime="0.00" timeLoss="10.87" rerouteNo="0" devices="tripinfo_flow_route_0_duration_20250327_2200.10" vType="car" speedFactor="1.02" vaporized=""/>
    <tripinfo id="flow_route_47_duration_20250327_2200.0" depart="0.00" departLane="380351865#0_0" departPos="11.49" departSpeed="0.00" departDelay="0.00" arrival="88.00" arrivalLane="1318793173#0_1" arrivalPos="63.76" arrivalSpeed="11.51" duration="88.00" routeLength="213.71" waitingTime="54.00" waitingCount="1" stopTime="0.00" timeLoss="71.40" rerouteNo="0" devices="tripinfo_flow_route_47_duration_20250327_2200.0" vType="car" speedFactor="1.03" vaporized=""/>
    <tripinfo id="flow_route_19_duration_20250327_2200.17" depart="43.00" departLane="133126040#0_0" departPos="86.72" departSpeed="0.00" departDelay="0.50" arrival="92.00" arrivalLane="133126031#0_1" arrivalPos="240.48" arrivalSpeed="16.59" duration="49.00" routeLength="282.63" waitingTime="7.00" waitingCount="1" stopTime="0.00" timeLoss="29.10" rerouteNo="0" devices="tripinfo_flow_route_19_duration_20250327_2200.17" vType="car" speedFactor="0.85" vaporized=""/>
    <tripinfo id="flow_route_48_duration_20250327_2200.1" depart="12.00" departLane="380351865#0_0" departPos="5.25" departSpeed="0.00" departDelay="6.55" arrival="93.00" arrivalLane="133126031#0_1" arrivalPos="100.35" arrivalSpeed="14.36" duration="81.00" routeLength="262.27" waitingTime="42.00" waitingCount="1" stopTime="0.00" timeLoss="61.45" rerouteNo="0" devices="tripinfo_flow_route_48_duration_20250327_2200.1" vType="car" speedFactor="1.03" vaporized=""/>
    <tripinfo id="flow_route_47_duration_20250327_2200.3" depart="51.00" departLane="380351865#0_0" departPos="0.13" departSpeed="0.00" departDelay="15.00" arrival="94.00" arrivalLane="1318793173#0_1" arrivalPos="18.10" arrivalSpeed="10.69" duration="43.00" routeLength="179.42" waitingTime="9.00" waitingCount="1" stopTime="0.00" timeLoss="28.41" rerouteNo="0" devices="tripinfo_flow_route_47_duration_20250327_2200.3" vType="car" speedFactor="1.04" vaporized=""/>
    <tripinfo id="flow_route_47_duration_20250327_2200.1" depart="22.00" departLane="380351865#0_0" departPos="5.17" departSpeed="0.00" departDelay="10.00" arrival="95.00" arrivalLane="1318793173#0_1" arrivalPos="101.05" arrivalSpeed="14.41" duration="73.00" routeLength="257.32" waitingTime="33.00" waitingCount="1" stopTime="0.00" timeLoss="51.58" rerouteNo="0" devices="tripinfo_flow_route_47_duration_20250327_2200.1" vType="car" speedFactor="0.94" vaporized=""/>
    <tripinfo id="flow_route_49_duration_20250327_2200.0" depart="8.00" departLane="380351865#0_0" departPos="5.66" departSpeed="0.00" departDelay="8.00" arrival="96.00" arrivalLane="1318893695#0_0" arrivalPos="148.83" arrivalSpeed="15.83" duration="88.00" routeLength="287.05" waitingTime="47.00" waitingCount="1" stopTime="0.00" timeLoss="65.76" rerouteNo="0" devices="tripinfo_flow_route_49_duration_20250327_2200.0" vType="car" speedFactor="1.05" vaporized=""/>
    <tripinfo id="flow_route_48_duration_20250327_2200.3" depart="28.00" departLane="380351865#0_0" departPos="2.41" departSpeed="0.00" departDelay="11.64" arrival="96.00" arrivalLane="133126031#0_0" arrivalPos="28.61" arrivalSpeed="9.10" duration="68.00" routeLength="193.37" waitingTime="28.00" waitingCount="1" stopTime="0.00" timeLoss="52.10" rerouteNo="0" devices="tripinfo_flow_route_48_duration_20250327_2200.3" vType="car" speedFactor="0.97" vaporized=""/>
    <tripinfo id="flow_route_47_duration_20250327_2200.2" depart="37.00" departLane="380351865#0_0" departPos="5.78" departSpeed="0.00" departDelay="13.00" arrival="97.00" arrivalLane="1318793173#0_1" arrivalPos="76.81" arrivalSpeed="15.01" duration="60.00" routeLength="232.47" waitingTime="23.00" waitingCount="1" stopTime="0.00" timeLoss="43.36" rerouteNo="0" devices="tripinfo_flow_route_47_duration_20250327_2200.2" vType="car" speedFactor="1.18" vaporized=""/>
    <tripinfo id="flow_route_47_duration_20250327_2200.4" depart="61.00" departLane="380351865#0_0" departPos="0.54" departSpeed="0.00" departDelay="13.00" arrival="99.00" arrivalLane="1318793173#0_1" arrivalPos="25.77" arrivalSpeed="12.88" duration="38.00" routeLength="186.67" waitingTime="3.00" waitingCount="1" stopTime="0.00" timeLoss="20.05" rerouteNo="0" devices="tripinfo_flow_route_47_duration_20250327_2200.4" vType="car" speedFactor="0.90" vaporized=""/>
    <tripinfo id="flow_route_0_duration_20250327_2200.11" depart="63.00" departLane="1318793176#1_0" departPos="3.66" departSpeed="0.00" departDelay="31.57" arrival="102.00" arrivalLane="133126031#0_0" arrivalPos="143.28" arrivalSpeed="15.09" duration="39.00" routeLength="260.04" waitingTime="0.00" waitingCount="0" stopTime="0.00" timeLoss="22.97" rerouteNo="0" devices="tripinfo_flow_route_0_duration_20250327_2200.11" vType="car" speedFactor="1.10" vaporized=""/>
    <tripinfo id="flow_route_48_duration_20250327_2200.9" depart="65.00" departLane="380351865#0_0" departPos="8.65" departSpeed="0.00" departDelay="15.91" arrival="103.00" arrivalLane="133126031#0_0" arrivalPos="11.52" arrivalSpeed="9.98" duration="38.00" routeLength="170.03" waitingTime="0.00" waitingCount="0" stopTime="0.00" timeLoss="23.32" rerouteNo="0" devices="tripinfo_flow_route_48_duration_20250327_2200.9" vType="car" speedFactor="0.97" vaporized=""/>
    <tripinfo id="flow_route_48_duration_20250327_2200.7" depart="57.00" departLane="380351865#0_0" departPos="3.21" departSpeed="0.00" departDelay="18.82" arrival="105.00" arrivalLane="133126031#0_1" arrivalPos="136.96" arrivalSpeed="15.72" duration="48.00" routeLength="300.92" waitingTime="3.00" waitingCount="1" stopTime="0.00" timeLoss="25.65" rerouteNo="0" devices="tripinfo_flow_route_48_duration_20250327_2200.7" vType="car" speedFactor="1.00" vaporized=""/>
    <tripinfo id="flow_route_48_duration_20250327_2200.8" depart="58.00" departLane="380351865#0_0" departPos="14.14" departSpeed="0.00" departDelay="14.37" arrival="105.00" arrivalLane="133126031#0_0" arrivalPos="52.41" arrivalSpeed="12.68" duration="47.00" routeLength="205.45" waitingTime="5.00" waitingCount="1" stopTime="0.00" timeLoss="31.93" rerouteNo="0" devices="tripinfo_flow_route_48_duration_20250327_2200.8" vType="car" speedFactor="1.17" vaporized=""/>
    <tripinfo id="flow_route_48_duration_20250327_2200.2" depart="17.00" departLane="380351865#0_0" departPos="3.54" departSpeed="0.00" departDelay="6.09" arrival="109.00" arrivalLane="133126031#0_1" arrivalPos="222.19" arrivalSpeed="16.15" duration="92.00" routeLength="385.82" waitingTime="38.00" waitingCount="1" stopTime="0.00" timeLoss="63.19" rerouteNo="0" devices="tripinfo_flow_route_48_duration_20250327_2200.2" vType="car" speedFactor="0.93" vaporized=""/>
    <tripinfo id="flow_route_48_duration_20250327_2200.4" depart="35.00" departLane="380351865#0_0" departPos="15.14" departSpeed="0.00" departDelay="13.18" arrival="110.00" arrivalLane="133126031#0_1" arrivalPos="324.84" arrivalSpeed="16.47" duration="75.00" routeLength="476.87" waitingTime="23.00" waitingCount="1" stopTime="0.00" timeLoss="42.20" rerouteNo="0" devices="tripinfo_flow_route_48_duration_20250327_2200.4" vType="car" speedFactor="0.95" vaporized=""/>
    <tripinfo id="flow_route_48_duration_20250327_2200.10" depart="68.00" departLane="380351865#0_0" departPos="5.01" departSpeed="0.00" departDelay="13.46" arrival="112.00" arrivalLane="133126031#0_1" arrivalPos="192.61" arrivalSpeed="16.48" duration="44.00" routeLength="354.77" waitingTime="0.00" waitingCount="0" stopTime="0.00" timeLoss="17.24" rerouteNo="0" devices="tripinfo_flow_route_48_duration_20250327_2200.10" vType="car" speedFactor="0.94" vaporized=""/>
    <tripinfo id="flow_route_48_duration_20250327_2200.5" depart="42.00" departLane="380351865#0_0" departPos="2.62" departSpeed="0.00" departDelay="14.73" arrival="113.00" arrivalLane="133126031#0_0" arrivalPos="236.85" arrivalSpeed="16.27" duration="71.00" routeLength="401.40" waitingTime="18.00" waitingCount="1" stopTime="0.00" timeLoss="42.52" rerouteNo="0" devices="tripinfo_flow_route_48_duration_20250327_2200.5" vType="car" speedFactor="0.99" vaporized=""/>
    <tripinfo id="flow_route_48_duration_20250327_2200.6" depart="48.00" departLane="380351865#0_0" departPos="3.77" departSpeed="0.00" departDelay="15.28" arrival="114.00" arrivalLane="133126031#0_0" arrivalPos="226.42" arrivalSpeed="16.40" duration="66.00" routeLength="389.82" waitingTime="13.00" waitingCount="1" stopTime="0.00" timeLoss="38.70" rerouteNo="0" devices="tripinfo_flow_route_48_duration_20250327_2200.6" vType="car" speedFactor="1.03" vaporized=""/>
    <tripinfo id="flow_route_0_duration_20250327_2200.15" depart="80.00" departLane="1318793176#1_0" departPos="9.81" departSpeed="0.00" departDelay="37.15" arrival="123.00" arrivalLane="133126031#0_0" arrivalPos="107.56" arrivalSpeed="13.88" duration="43.00" routeLength="218.16" waitingTime="6.00" waitingCount="1" stopTime="0.00" timeLoss="27.47" rerouteNo="0" devices="tripinfo_flow_route_0_duration_20250327_2200.15" vType="car" speedFactor="0.85" vaporized=""/>
    <tripinfo id="flow_route_1_duration_20250327_2200.1" depart="34.00" departLane="1318793176#1_0" departPos="9.15" departSpeed="0.00" departDelay="19.00" arrival="125.00" arrivalLane="1318793173#0_1" arrivalPos="59.09" arrivalSpeed="11.22" duration="91.00" routeLength="173.84" waitingTime="60.00" waitingCount="1" stopTime="0.00" timeLoss="80.47" rerouteNo="0" devices="tripinfo_flow_route_1_duration_20250327_2200.1" vType="car" speedFactor="1.02" vaporized=""/>
    <tripinfo id="flow_route_0_duration_20250327_2200.18" depart="98.00" departLane="1318793176#1_0" departPos="3.50" departSpeed="0.00" departDelay="46.57" arrival="125.00" arrivalLane="133126031#0_0" arrivalPos="28.29" arrivalSpeed="11.87" duration="27.00" routeLength="145.21" waitingTime="0.00" waitingCount="0" stopTime="0.00" timeLoss="17.13" rerouteNo="0" devices="tripinfo_flow_route_0_duration_20250327_2200.18" vType="car" speedFactor="1.08" vaporized=""/>
    <tripinfo id="flow_route_1_duration_20250327_2200.2" depart="58.00" departLane="1318793176#1_0" departPos="3.23" departSpeed="0.00" departDelay="28.00" arrival="127.00" arrivalLane="1318793173#0_1" arrivalPos="72.98" arrivalSpeed="12.42" duration="69.00" routeLength="193.65" waitingTime="37.00" waitingCount="2" stopTime="0.00" timeLoss="56.72" rerouteNo="0" devices="tripinfo_flow_route_1_duration_20250327_2200.2" vType="car" speedFactor="0.97" vaporized=""/>
    <tripinfo id="flow_route_0_duration_20250327_2200.13" depart="73.00" departLane="1318793176#1_0" departPos="2.58" departSpeed="0.00" departDelay="35.86" arrival="128.00" arrivalLane="133126031#0_0" arrivalPos="219.03" arrivalSpeed="16.29" duration="55.00" routeLength="336.87" waitingTime="11.00" waitingCount="1" stopTime="0.00" timeLoss="33.92" rerouteNo="0" devices="tripinfo_flow_route_0_duration_20250327_2200.13" vType="car" speedFactor="1.04" vaporized=""/>
    <tripinfo id="flow_route_1_duration_20250327_2200.3" depart="86.00" departLane="1318793176#1_0" departPos="4.24" departSpeed="0.00" departDelay="41.00" arrival="131.00" arrivalLane="1318793173#0_1" arrivalPos="85.32" arrivalSpeed="13.60" duration="45.00" routeLength="204.99" waitingTime="9.00" waitingCount="1" stopTime="0.00" timeLoss="32.02" rerouteNo="0" devices="tripinfo_flow_route_1_duration_20250327_2200.3" vType="car" speedFactor="1.02" vaporized=""/>
    <tripinfo id="flow_route_0_duration_20250327_2200.12" depart="68.00" departLane="1318793176#1_0" departPos="3.65" departSpeed="0.00" departDelay="33.72" arrival="132.00" arrivalLane="133126031#0_0" arrivalPos="314.19" arrivalSpeed="16.28" duration="64.00" routeLength="430.96" waitingTime="14.00" waitingCount="1" stopTime="0.00" timeLoss="36.38" rerouteNo="0" devices="tripinfo_flow_route_0_duration_20250327_2200.12" vType="car" speedFactor="0.96" vaporized=""/>
    <tripinfo id="flow_route_0_duration_20250327_2200.20" depart="108.00" departLane="1318793176#1_0" departPos="3.73" departSpeed="0.00" departDelay="50.86" arrival="133.00" arrivalLane="133126031#0_0" arrivalPos="87.89" arrivalSpeed="14.94" duration="25.00" routeLength="204.58" waitingTime="0.00" waitingCount="0" stopTime="0.00" timeLoss="10.84" rerouteNo="0" devices="tripinfo_flow_route_0_duration_20250327_2200.20" vType="car" speedFactor="0.88" vaporized=""/>
    <tripinfo id="flow_route_0_duration_20250327_2200.14" depart="79.00" departLane="1318793176#1_0" departPos="0.12" departSpeed="0.00" departDelay="39.00" arrival="135.00" arrivalLane="133126031#0_0" arrivalPos="272.47" arrivalSpeed="16.27" duration="56.00" routeLength="392.78" waitingTime="5.00" waitingCount="1" stopTime="0.00" timeLoss="30.70" rerouteNo="0" devices="tripinfo_flow_route_0_duration_20250327_2200.14" vType="car" speedFactor="0.90" vaporized=""/>
    <tripinfo id="flow_route_19_duration_20250327_2200.7" depart="18.00" departLane="133126040#0_0" departPos="31.37" departSpeed="0.00" departDelay="0.50" arrival="137.00" arrivalLane="133126031#0_1" arrivalPos="26.60" arrivalSpeed="9.45" duration="119.00" routeLength="124.10" waitingTime="52.00" waitingCount="4" stopTime="0.00" timeLoss="108.68" rerouteNo="0" devices="tripinfo_flow_route_19_duration_20250327_2200.7" vType="car" speedFactor="0.83" vaporized=""/>
    <tripinfo id="flow_route_0_duration_20250327_2200.19" depart="102.00" departLane="1318793176#1_0" departPos="0.18" departSpeed="0.00" departDelay="47.72" arrival="137.00" arrivalLane="133126031#0_0" arrivalPos="175.69" arrivalSpeed="16.30" duration="35.00" routeLength="295.94" waitingTime="0.00" waitingCount="0" stopTime="0.00" timeLoss="16.30" rerouteNo="0" devices="tripinfo_flow_route_0_duration_20250327_2200.19" vType="car" speedFactor="1.02" vaporized=""/>
    <tripinfo id="flow_route_19_duration_20250327_2200.19" depart="48.00" departLane="133126040#0_0" departPos="61.50" departSpeed="0.00" departDelay="0.50" arrival="138.00" arrivalLane="133126031#0_1" arrivalPos="63.36" arrivalSpeed="11.46" duration="90.00" routeLength="130.73" waitingTime="52.00" waitingCount="4" stopTime="0.00" timeLoss="80.75" rerouteNo="0" devices="tripinfo_flow_route_19_duration_20250327_2200.19" vType="car" speedFactor="1.00" vaporized=""/>
    <tripinfo id="flow_route_0_duration_20250327_2200.17" depart="93.00" departLane="1318793176#1_0" departPos="4.34" departSpeed="0.00" departDelay="44.43" arrival="138.00" arrivalLane="133126031#0_0" arrivalPos="263.71" arrivalSpeed="16.48" duration="45.00" routeLength="379.79" waitingTime="0.00" waitingCount="0" stopTime="0.00" timeLoss="21.42" rerouteNo="0" devices="tripinfo_flow_route_0_duration_20250327_2200.17" vType="car" speedFactor="1.14" vaporized=""/>
    <tripinfo id="flow_route_0_duration_20250327_2200.16" depart="90.00" departLane="1318793176#1_0" departPos="9.89" departSpeed="0.00" departDelay="44.29" arrival="139.00" arrivalLane="133126031#0_0" arrivalPos="305.80" arrivalSpeed="16.50" duration="49.00" routeLength="416.33" waitingTime="0.00" waitingCount="0" stopTime="0.00" timeLoss="22.63" rerouteNo="0" devices="tripinfo_flow_route_0_duration_20250327_2200.16" vType="car" speedFactor="1.00" vaporized=""/>
    <tripinfo id="flow_route_19_duration_20250327_2200.23" depart="58.00" departLane="133126040#0_0" departPos="101.40" departSpeed="0.00" departDelay="0.50" arrival="143.00" arrivalLane="133126031#0_1" arrivalPos="148.64" arrivalSpeed="16.11" duration="85.00" routeLength="176.11" waitingTime="54.00" waitingCount="5" stopTime="0.00" timeLoss="72.04" rerouteNo="0" devices="tripinfo_flow_route_19_duration_20250327_2200.23" vType="car" speedFactor="0.91" vaporized=""/>
    <tripinfo id="flow_route_19_duration_20250327_2200.20" depart="50.00" departLane="133126040#0_0" departPos="72.05" departSpeed="0.00" departDelay="0.00" arrival="151.00" arrivalLane="133126031#0_1" arrivalPos="189.41" arrivalSpeed="16.28" duration="101.00" routeLength="246.24" waitingTime="59.00" waitingCount="4" stopTime="0.00" timeLoss="83.87" rerouteNo="0" devices="tripinfo_flow_route_19_duration_20250327_2200.20" vType="car" speedFactor="1.02" vaporized=""/>