<?xml version="1.0" encoding="UTF-8"?>

<!-- generated on 2025-05-06 21:07:51 by Eclipse SUMO sumo Version 1.20.0
<configuration xmlns:xsi="http://www.w3.org/2001/XMLSchema-instance" xsi:noNamespaceSchemaLocation="http://sumo.dlr.de/xsd/sumoConfiguration.xsd">

    <input>
        <net-file value="osm.net.xml"/>
        <route-files value="xml/route_rl_cluster10852700972_12154751993_1.rou.xml"/>
    </input>

    <output>
        <tripinfo-output value="xml/tripinfo_rl_cluster10852700972_12154751993_1.xml"/>
    </output>

    <traci_server>
        <remote-port value="52649"/>
    </traci_server>

</configuration>
-->

<tripinfos xmlns:xsi="http://www.w3.org/2001/XMLSchema-instance" xsi:noNamespaceSchemaLocation="http://sumo.dlr.de/xsd/tripinfo_file.xsd">
    <tripinfo id="flow_route_60_duration_20250327_2010.1" depart="6.00" departLane="186407684#0_0" departPos="41.08" departSpeed="0.00" departDelay="1.00" arrival="19.00" arrivalLane="791826085_0" arrivalPos="1.97" arrivalSpeed="10.47" duration="13.00" routeLength="69.82" waitingTime="0.00" waitingCount="0" stopTime="0.00" timeLoss="7.85" rerouteNo="0" devices="tripinfo_flow_route_60_duration_20250327_2010.1" vType="car" speedFactor="0.83" vaporized=""/>
    <tripinfo id="flow_route_60_duration_20250327_2010.0" depart="0.00" departLane="186407684#0_0" departPos="48.06" departSpeed="0.00" departDelay="0.00" arrival="24.00" arrivalLane="791826085_0" arrivalPos="160.28" arrivalSpeed="16.26" duration="24.00" routeLength="221.15" waitingTime="0.00" waitingCount="0" stopTime="0.00" timeLoss="10.54" rerouteNo="0" devices="tripinfo_flow_route_60_duration_20250327_2010.0" vType="car" speedFactor="1.08" vaporized=""/>
    <tripinfo id="flow_route_61_duration_20250327_2010.0" depart="0.00" departLane="186407684#0_0" departPos="65.67" departSpeed="0.00" departDelay="0.00" arrival="24.00" arrivalLane="1341093416#0_1" arrivalPos="161.76" arrivalSpeed="16.51" duration="24.00" routeLength="210.27" waitingTime="0.00" waitingCount="0" stopTime="0.00" timeLoss="9.94" rerouteNo="0" devices="tripinfo_flow_route_61_duration_20250327_2010.0" vType="car" speedFactor="1.03" vaporized=""/>
    <tripinfo id="flow_route_60_duration_20250327_2010.2" depart="10.00" departLane="186407684#0_0" departPos="5.31" departSpeed="0.00" departDelay="0.00" arrival="33.00" arrivalLane="791826085_1" arrivalPos="86.27" arrivalSpeed="14.42" duration="23.00" routeLength="189.89" waitingTime="0.00" waitingCount="0" stopTime="0.00" timeLoss="9.50" rerouteNo="0" devices="tripinfo_flow_route_60_duration_20250327_2010.2" vType="car" speedFactor="0.89" vaporized=""/>
    <tripinfo id="flow_route_60_duration_20250327_2010.3" depart="18.00" departLane="186407684#0_0" departPos="47.97" departSpeed="0.00" departDelay="3.00" arrival="38.00" arrivalLane="791826085_0" arrivalPos="100.14" arrivalSpeed="16.14" duration="20.00" routeLength="161.10" waitingTime="0.00" waitingCount="0" stopTime="0.00" timeLoss="9.81" rerouteNo="0" devices="tripinfo_flow_route_60_duration_20250327_2010.3" vType="car" speedFactor="1.09" vaporized=""/>
    <tripinfo id="flow_route_60_duration_20250327_2010.4" depart="20.00" departLane="186407684#0_0" departPos="14.02" departSpeed="0.00" departDelay="0.00" arrival="43.00" arrivalLane="791826085_0" arrivalPos="98.41" arrivalSpeed="16.11" duration="23.00" routeLength="193.32" waitingTime="0.00" waitingCount="0" stopTime="0.00" timeLoss="10.98" rerouteNo="0" devices="tripinfo_flow_route_60_duration_20250327_2010.4" vType="car" speedFactor="1.12" vaporized=""/>
    <tripinfo id="flow_route_56_duration_20250327_2010.0" depart="0.00" departLane="1341093415#0_0" departPos="44.11" departSpeed="0.00" departDelay="0.00" arrival="46.00" arrivalLane="409155823_0" arrivalPos="4.00" arrivalSpeed="6.35" duration="46.00" routeLength="164.73" waitingTime="18.00" waitingCount="1" stopTime="0.00" timeLoss="35.25" rerouteNo="0" devices="tripinfo_flow_route_56_duration_20250327_2010.0" vType="car" speedFactor="1.01" vaporized=""/>
    <tripinfo id="flow_route_61_duration_20250327_2010.1" depart="18.00" departLane="186407684#0_0" departPos="20.86" departSpeed="0.00" departDelay="3.00" arrival="46.00" arrivalLane="1341093416#0_1" arrivalPos="173.69" arrivalSpeed="16.59" duration="28.00" routeLength="267.01" waitingTime="0.00" waitingCount="0" stopTime="0.00" timeLoss="10.57" rerouteNo="0" devices="tripinfo_flow_route_61_duration_20250327_2010.1" vType="car" speedFactor="1.03" vaporized=""/>
    <tripinfo id="flow_route_55_duration_20250327_2010.1" depart="20.00" departLane="1341093415#0_0" departPos="136.26" departSpeed="0.00" departDelay="0.00" arrival="50.00" arrivalLane="791826085_0" arrivalPos="10.57" arrivalSpeed="7.59" duration="30.00" routeLength="64.02" waitingTime="10.00" waitingCount="1" stopTime="0.00" timeLoss="25.16" rerouteNo="0" devices="tripinfo_flow_route_55_duration_20250327_2010.1" vType="car" speedFactor="1.05" vaporized=""/>
    <tripinfo id="flow_route_56_duration_20250327_2010.1" depart="14.00" departLane="1341093415#0_0" departPos="8.23" departSpeed="0.00" departDelay="2.00" arrival="56.00" arrivalLane="409155823_0" arrivalPos="77.08" arrivalSpeed="12.34" duration="42.00" routeLength="273.68" waitingTime="1.00" waitingCount="1" stopTime="0.00" timeLoss="24.03" rerouteNo="0" devices="tripinfo_flow_route_56_duration_20250327_2010.1" vType="car" speedFactor="0.94" vaporized=""/>
    <tripinfo id="flow_route_56_duration_20250327_2010.2" depart="24.00" departLane="1341093415#0_0" departPos="59.05" departSpeed="0.00" departDelay="0.00" arrival="57.00" arrivalLane="409155823_0" arrivalPos="60.31" arrivalSpeed="11.90" duration="33.00" routeLength="206.09" waitingTime="0.00" waitingCount="0" stopTime="0.00" timeLoss="18.72" rerouteNo="0" devices="tripinfo_flow_route_56_duration_20250327_2010.2" vType="car" speedFactor="0.93" vaporized=""/>
    <tripinfo id="flow_route_54_duration_20250327_2010.4" depart="30.00" departLane="1341093415#0_0" departPos="39.77" departSpeed="0.00" departDelay="0.00" arrival="58.00" arrivalLane="1341093416#0_1" arrivalPos="112.79" arrivalSpeed="16.34" duration="28.00" routeLength="279.84" waitingTime="0.00" waitingCount="0" stopTime="0.00" timeLoss="10.30" rerouteNo="0" devices="tripinfo_flow_route_54_duration_20250327_2010.4" vType="car" speedFactor="0.94" vaporized=""/>
    <tripinfo id="flow_route_54_duration_20250327_2010.1" depart="8.00" departLane="1341093415#0_0" departPos="100.93" departSpeed="0.00" departDelay="0.50" arrival="59.00" arrivalLane="1341093416#0_0" arrivalPos="123.96" arrivalSpeed="15.25" duration="51.00" routeLength="229.85" waitingTime="16.00" waitingCount="1" stopTime="0.00" timeLoss="37.10" rerouteNo="0" devices="tripinfo_flow_route_54_duration_20250327_2010.1" vType="car" speedFactor="1.05" vaporized=""/>
    <tripinfo id="flow_route_54_duration_20250327_2010.2" depart="15.00" departLane="1341093415#0_0" departPos="167.37" departSpeed="0.00" departDelay="0.00" arrival="59.00" arrivalLane="1341093416#0_0" arrivalPos="140.65" arrivalSpeed="15.81" duration="44.00" routeLength="180.10" waitingTime="17.00" waitingCount="1" stopTime="0.00" timeLoss="32.58" rerouteNo="0" devices="tripinfo_flow_route_54_duration_20250327_2010.2" vType="car" speedFactor="0.86" vaporized=""/>
    <tripinfo id="flow_route_55_duration_20250327_2010.0" depart="0.00" departLane="1341093415#0_0" departPos="132.48" departSpeed="0.00" departDelay="0.00" arrival="63.00" arrivalLane="791826085_0" arrivalPos="232.37" arrivalSpeed="15.32" duration="63.00" routeLength="289.60" waitingTime="25.00" waitingCount="1" stopTime="0.00" timeLoss="43.43" rerouteNo="0" devices="tripinfo_flow_route_55_duration_20250327_2010.0" vType="car" speedFactor="0.94" vaporized=""/>
    <tripinfo id="flow_route_56_duration_20250327_2010.3" depart="37.00" departLane="1341093415#0_0" departPos="54.86" departSpeed="0.00" departDelay="1.00" arrival="63.00" arrivalLane="409155823_0" arrivalPos="52.49" arrivalSpeed="13.35" duration="26.00" routeLength="202.47" waitingTime="0.00" waitingCount="0" stopTime="0.00" timeLoss="13.07" rerouteNo="0" devices="tripinfo_flow_route_56_duration_20250327_2010.3" vType="car" speedFactor="1.01" vaporized=""/>
    <tripinfo id="flow_route_54_duration_20250327_2010.5" depart="38.00" departLane="1341093415#0_0" departPos="103.39" departSpeed="0.00" departDelay="0.50" arrival="63.00" arrivalLane="1341093416#0_0" arrivalPos="135.06" arrivalSpeed="16.27" duration="25.00" routeLength="238.49" waitingTime="0.00" waitingCount="0" stopTime="0.00" timeLoss="10.37" rerouteNo="0" devices="tripinfo_flow_route_54_duration_20250327_2010.5" vType="car" speedFactor="0.97" vaporized=""/>
    <tripinfo id="flow_route_54_duration_20250327_2010.0" depart="0.00" departLane="1341093415#0_0" departPos="7.77" departSpeed="0.00" departDelay="0.00" arrival="65.00" arrivalLane="1341093416#0_1" arrivalPos="244.31" arrivalSpeed="16.56" duration="65.00" routeLength="443.35" waitingTime="13.00" waitingCount="1" stopTime="0.00" timeLoss="37.51" rerouteNo="0" devices="tripinfo_flow_route_54_duration_20250327_2010.0" vType="car" speedFactor="1.06" vaporized=""/>
    <tripinfo id="flow_route_54_duration_20250327_2010.6" depart="45.00" departLane="1341093415#0_0" departPos="97.46" departSpeed="0.00" departDelay="0.00" arrival="65.00" arrivalLane="1341093416#0_0" arrivalPos="41.63" arrivalSpeed="15.60" duration="20.00" routeLength="150.99" waitingTime="0.00" waitingCount="0" stopTime="0.00" timeLoss="10.11" rerouteNo="0" devices="tripinfo_flow_route_54_duration_20250327_2010.6" vType="car" speedFactor="0.87" vaporized=""/>
    <tripinfo id="flow_route_54_duration_20250327_2010.3" depart="23.00" departLane="1341093415#0_0" departPos="5.32" departSpeed="0.00" departDelay="0.50" arrival="68.00" arrivalLane="1341093416#0_2" arrivalPos="262.29" arrivalSpeed="16.39" duration="45.00" routeLength="463.79" waitingTime="0.00" waitingCount="0" stopTime="0.00" timeLoss="16.18" rerouteNo="0" devices="tripinfo_flow_route_54_duration_20250327_2010.3" vType="car" speedFactor="0.99" vaporized=""/>
    <tripinfo id="flow_route_55_duration_20250327_2010.2" depart="40.00" departLane="1341093415#0_0" departPos="32.68" departSpeed="0.00" departDelay="0.00" arrival="69.00" arrivalLane="791826085_0" arrivalPos="54.92" arrivalSpeed="11.24" duration="29.00" routeLength="211.95" waitingTime="0.00" waitingCount="0" stopTime="0.00" timeLoss="15.00" rerouteNo="0" devices="tripinfo_flow_route_55_duration_20250327_2010.2" vType="car" speedFactor="0.89" vaporized=""/>
    <tripinfo id="flow_route_56_duration_20250327_2010.4" depart="50.00" departLane="1341093415#0_0" departPos="101.09" departSpeed="0.00" departDelay="2.00" arrival="73.00" arrivalLane="409155823_0" arrivalPos="87.35" arrivalSpeed="15.84" duration="23.00" routeLength="191.10" waitingTime="0.00" waitingCount="0" stopTime="0.00" timeLoss="10.90" rerouteNo="0" devices="tripinfo_flow_route_56_duration_20250327_2010.4" vType="car" speedFactor="1.13" vaporized=""/>
    <tripinfo id="flow_route_54_duration_20250327_2010.7" depart="54.00" departLane="1341093415#0_0" departPos="62.71" departSpeed="0.00" departDelay="1.50" arrival="75.00" arrivalLane="1341093416#0_0" arrivalPos="21.94" arrivalSpeed="15.90" duration="21.00" routeLength="166.04" waitingTime="0.00" waitingCount="0" stopTime="0.00" timeLoss="10.37" rerouteNo="0" devices="tripinfo_flow_route_54_duration_20250327_2010.7" vType="car" speedFactor="1.18" vaporized=""/>
    <tripinfo id="flow_route_60_duration_20250327_2010.5" depart="25.00" departLane="186407684#0_0" departPos="11.05" departSpeed="0.00" departDelay="0.00" arrival="88.00" arrivalLane="791826085_1" arrivalPos="42.19" arrivalSpeed="10.16" duration="63.00" routeLength="140.07" waitingTime="33.00" waitingCount="1" stopTime="0.00" timeLoss="53.10" rerouteNo="0" devices="tripinfo_flow_route_60_duration_20250327_2010.5" vType="car" speedFactor="0.88" vaporized=""/>
    <tripinfo id="flow_route_60_duration_20250327_2010.9" depart="46.00" departLane="186407684#0_0" departPos="5.90" departSpeed="0.00" departDelay="1.00" arrival="89.00" arrivalLane="791826085_0" arrivalPos="9.08" arrivalSpeed="8.12" duration="43.00" routeLength="112.11" waitingTime="15.00" waitingCount="1" stopTime="0.00" timeLoss="35.25" rerouteNo="0" devices="tripinfo_flow_route_60_duration_20250327_2010.9" vType="car" speedFactor="0.92" vaporized=""/>
    <tripinfo id="flow_route_61_duration_20250327_2010.2" depart="33.00" departLane="186407684#0_0" departPos="7.85" departSpeed="0.00" departDelay="3.00" arrival="90.00" arrivalLane="1341093416#0_1" arrivalPos="72.41" arrivalSpeed="12.43" duration="57.00" routeLength="174.58" waitingTime="26.00" waitingCount="1" stopTime="0.00" timeLoss="45.94" rerouteNo="0" devices="tripinfo_flow_route_61_duration_20250327_2010.2" vType="car" speedFactor="1.16" vaporized=""/>
    <tripinfo id="flow_route_60_duration_20250327_2010.10" depart="52.00" departLane="186407684#0_0" departPos="4.13" departSpeed="0.00" departDelay="2.00" arrival="92.00" arrivalLane="791826085_1" arrivalPos="28.05" arrivalSpeed="9.49" duration="40.00" routeLength="132.85" waitingTime="10.00" waitingCount="1" stopTime="0.00" timeLoss="30.84" rerouteNo="0" devices="tripinfo_flow_route_60_duration_20250327_2010.10" vType="car" speedFactor="0.93" vaporized=""/>
    <tripinfo id="flow_route_61_duration_20250327_2010.3" depart="46.00" departLane="186407684#0_0" departPos="15.77" departSpeed="0.00" departDelay="1.00" arrival="94.00" arrivalLane="1341093416#0_2" arrivalPos="76.46" arrivalSpeed="13.56" duration="48.00" routeLength="170.70" waitingTime="16.00" waitingCount="1" stopTime="0.00" timeLoss="36.18" rerouteNo="0" devices="tripinfo_flow_route_61_duration_20250327_2010.3" vType="car" speedFactor="0.95" vaporized=""/>
    <tripinfo id="flow_route_60_duration_20250327_2010.11" depart="55.00" departLane="186407684#0_0" departPos="18.72" departSpeed="0.00" departDelay="0.00" arrival="98.00" arrivalLane="791826085_0" arrivalPos="94.59" arrivalSpeed="14.42" duration="43.00" routeLength="184.80" waitingTime="11.00" waitingCount="1" stopTime="0.00" timeLoss="31.68" rerouteNo="0" devices="tripinfo_flow_route_60_duration_20250327_2010.11" vType="car" speedFactor="1.15" vaporized=""/>
    <tripinfo id="flow_route_60_duration_20250327_2010.7" depart="37.00" departLane="186407684#0_0" departPos="84.60" departSpeed="0.00" departDelay="2.00" arrival="101.00" arrivalLane="791826085_0" arrivalPos="217.90" arrivalSpeed="16.33" duration="64.00" routeLength="242.23" waitingTime="35.00" waitingCount="1" stopTime="0.00" timeLoss="48.76" rerouteNo="0" devices="tripinfo_flow_route_60_duration_20250327_2010.7" vType="car" speedFactor="1.02" vaporized=""/>
    <tripinfo id="flow_route_60_duration_20250327_2010.6" depart="31.00" departLane="186407684#0_0" departPos="50.38" departSpeed="0.00" departDelay="1.00" arrival="109.00" arrivalLane="791826085_0" arrivalPos="314.57" arrivalSpeed="15.30" duration="78.00" routeLength="373.12" waitingTime="34.00" waitingCount="1" stopTime="0.00" timeLoss="53.87" rerouteNo="0" devices="tripinfo_flow_route_60_duration_20250327_2010.6" vType="car" speedFactor="0.94" vaporized=""/>
    <tripinfo id="flow_route_60_duration_20250327_2010.8" depart="40.00" departLane="186407684#0_0" departPos="56.55" departSpeed="0.00" departDelay="0.00" arrival="112.00" arrivalLane="791826085_1" arrivalPos="311.42" arrivalSpeed="13.69" duration="72.00" routeLength="363.81" waitingTime="27.00" waitingCount="1" stopTime="0.00" timeLoss="45.08" rerouteNo="0" devices="tripinfo_flow_route_60_duration_20250327_2010.8" vType="car" speedFactor="0.83" vaporized=""/>
</tripinfos>
