<?xml version="1.0" encoding="UTF-8"?>

<!-- generated on 2025-05-06 16:33:59 by Eclipse SUMO sumo Version 1.20.0
<configuration xmlns:xsi="http://www.w3.org/2001/XMLSchema-instance" xsi:noNamespaceSchemaLocation="http://sumo.dlr.de/xsd/sumoConfiguration.xsd">

    <input>
        <net-file value="osm.net.xml"/>
        <route-files value="xml/routes_ddpg_cluster_11648561419_11648561420_2271142975_4854142869.rou.xml"/>
    </input>

    <output>
        <tripinfo-output value="xml/tripinfo_42371.xml"/>
    </output>

    <traci_server>
        <remote-port value="50461"/>
    </traci_server>

</configuration>
-->

<tripinfos xmlns:xsi="http://www.w3.org/2001/XMLSchema-instance" xsi:noNamespaceSchemaLocation="http://sumo.dlr.de/xsd/tripinfo_file.xsd">
    <tripinfo id="flow_route_97_duration_20250327_2140.0" depart="0.00" departLane="1328664748#0_0" departPos="149.74" departSpeed="0.00" departDelay="0.00" arrival="27.00" arrivalLane="135474719#0_0" arrivalPos="137.46" arrivalSpeed="15.89" duration="27.00" routeLength="222.45" waitingTime="0.00" waitingCount="0" stopTime="0.00" timeLoss="12.53" rerouteNo="0" devices="tripinfo_flow_route_97_duration_20250327_2140.0" vType="car" speedFactor="1.06" vaporized=""/>
    <tripinfo id="flow_route_98_duration_20250327_2140.0" depart="0.00" departLane="1328664748#0_0" departPos="103.72" departSpeed="0.00" departDelay="0.00" arrival="27.00" arrivalLane="177211987#1_0" arrivalPos="104.29" arrivalSpeed="15.20" duration="27.00" routeLength="249.04" waitingTime="0.00" waitingCount="0" stopTime="0.00" timeLoss="10.92" rerouteNo="0" devices="tripinfo_flow_route_98_duration_20250327_2140.0" vType="car" speedFactor="0.94" vaporized=""/>
    <tripinfo id="flow_route_99_duration_20250327_2140.0" depart="1.00" departLane="1328664748#0_0" departPos="68.32" departSpeed="0.00" departDelay="1.00" arrival="27.00" arrivalLane="1253188486#8_2" arrivalPos="11.16" arrivalSpeed="9.90" duration="26.00" routeLength="200.71" waitingTime="0.00" waitingCount="0" stopTime="0.00" timeLoss="13.26" rerouteNo="0" devices="tripinfo_flow_route_99_duration_20250327_2140.0" vType="car" speedFactor="1.01" vaporized=""/>
    <tripinfo id="flow_route_118_duration_20250327_2140.1" depart="4.00" departLane="134194079#0_0" departPos="277.04" departSpeed="0.00" departDelay="0.25" arrival="27.00" arrivalLane="1328664744#0_0" arrivalPos="140.54" arrivalSpeed="15.74" duration="23.00" routeLength="184.65" waitingTime="0.00" waitingCount="0" stopTime="0.00" timeLoss="11.30" rerouteNo="0" devices="tripinfo_flow_route_118_duration_20250327_2140.1" vType="car" speedFactor="1.03" vaporized=""/>
    <tripinfo id="flow_route_110_duration_20250327_2140.0" depart="0.00" departLane="1254519225#0.109_0" departPos="3.76" departSpeed="0.00" departDelay="0.00" arrival="43.00" arrivalLane="177211987#1_2" arrivalPos="6.38" arrivalSpeed="7.41" duration="43.00" routeLength="190.24" waitingTime="12.00" waitingCount="1" stopTime="0.00" timeLoss="28.37" rerouteNo="0" devices="tripinfo_flow_route_110_duration_20250327_2140.0" vType="car" speedFactor="0.83" vaporized=""/>
    <tripinfo id="flow_route_99_duration_20250327_2140.1" depart="15.00" departLane="1328664748#0_0" departPos="159.20" departSpeed="0.00" departDelay="0.00" arrival="48.00" arrivalLane="1253188486#8_2" arrivalPos="199.14" arrivalSpeed="16.28" duration="33.00" routeLength="297.81" waitingTime="0.00" waitingCount="0" stopTime="0.00" timeLoss="13.76" rerouteNo="0" devices="tripinfo_flow_route_99_duration_20250327_2140.1" vType="car" speedFactor="1.02" vaporized=""/>
    <tripinfo id="flow_route_110_duration_20250327_2140.1" depart="20.00" departLane="1254519225#0.109_0" departPos="1.74" departSpeed="0.00" departDelay="0.00" arrival="50.00" arrivalLane="177211987#1_2" arrivalPos="26.84" arrivalSpeed="11.48" duration="30.00" routeLength="212.72" waitingTime="0.00" waitingCount="0" stopTime="0.00" timeLoss="15.18" rerouteNo="0" devices="tripinfo_flow_route_110_duration_20250327_2140.1" vType="car" speedFactor="0.95" vaporized=""/>
    <tripinfo id="flow_route_108_duration_20250327_2140.0" depart="0.00" departLane="1254519225#0.109_0" departPos="35.33" departSpeed="0.00" departDelay="0.00" arrival="51.00" arrivalLane="135474719#0_0" arrivalPos="75.82" arrivalSpeed="13.66" duration="51.00" routeLength="240.24" waitingTime="14.00" waitingCount="1" stopTime="0.00" timeLoss="35.86" rerouteNo="0" devices="tripinfo_flow_route_108_duration_20250327_2140.0" vType="car" speedFactor="1.08" vaporized=""/>
    <tripinfo id="flow_route_109_duration_20250327_2140.1" depart="8.00" departLane="1254519225#0.109_0" departPos="9.93" departSpeed="0.00" departDelay="0.50" arrival="52.00" arrivalLane="1328664744#0_0" arrivalPos="66.95" arrivalSpeed="12.62" duration="44.00" routeLength="231.25" waitingTime="7.00" waitingCount="1" stopTime="0.00" timeLoss="28.80" rerouteNo="0" devices="tripinfo_flow_route_109_duration_20250327_2140.1" vType="car" speedFactor="0.99" vaporized=""/>
    <tripinfo id="flow_route_109_duration_20250327_2140.0" depart="0.00" departLane="1254519225#0.109_0" departPos="16.50" departSpeed="0.00" departDelay="0.00" arrival="55.00" arrivalLane="1328664744#0_0" arrivalPos="130.88" arrivalSpeed="16.25" duration="55.00" routeLength="288.61" waitingTime="13.00" waitingCount="1" stopTime="0.00" timeLoss="36.04" rerouteNo="0" devices="tripinfo_flow_route_109_duration_20250327_2140.0" vType="car" speedFactor="1.03" vaporized=""/>
    <tripinfo id="flow_route_108_duration_20250327_2140.1" depart="20.00" departLane="1254519225#0.109_0" departPos="9.47" departSpeed="0.00" departDelay="0.00" arrival="57.00" arrivalLane="135474719#0_2" arrivalPos="147.32" arrivalSpeed="15.18" duration="37.00" routeLength="337.60" waitingTime="0.00" waitingCount="0" stopTime="0.00" timeLoss="14.32" rerouteNo="0" devices="tripinfo_flow_route_108_duration_20250327_2140.1" vType="car" speedFactor="0.92" vaporized=""/>
    <tripinfo id="flow_route_114_duration_20250327_2140.0" depart="0.00" departLane="1253188486#4_0" departPos="49.31" departSpeed="0.00" departDelay="0.00" arrival="60.00" arrivalLane="177211987#1_0" arrivalPos="36.23" arrivalSpeed="9.65" duration="60.00" routeLength="153.37" waitingTime="29.00" waitingCount="1" stopTime="0.00" timeLoss="48.92" rerouteNo="0" devices="tripinfo_flow_route_114_duration_20250327_2140.0" vType="car" speedFactor="0.89" vaporized=""/>
    <tripinfo id="flow_route_113_duration_20250327_2140.2" depart="13.00" departLane="1253188486#4_0" departPos="25.72" departSpeed="0.00" departDelay="1.00" arrival="62.00" arrivalLane="1253188486#8_1" arrivalPos="30.76" arrivalSpeed="11.87" duration="49.00" routeLength="203.67" waitingTime="14.00" waitingCount="1" stopTime="0.00" timeLoss="36.41" rerouteNo="0" devices="tripinfo_flow_route_113_duration_20250327_2140.2" vType="car" speedFactor="0.94" vaporized=""/>
    <tripinfo id="flow_route_115_duration_20250327_2140.0" depart="0.00" departLane="1253188486#4_0" departPos="104.70" departSpeed="0.00" departDelay="0.00" arrival="66.00" arrivalLane="1328664744#0_2" arrivalPos="120.97" arrivalSpeed="15.36" duration="66.00" routeLength="201.67" waitingTime="34.00" waitingCount="1" stopTime="0.00" timeLoss="51.48" rerouteNo="0" devices="tripinfo_flow_route_115_duration_20250327_2140.0" vType="car" speedFactor="0.94" vaporized=""/>
    <tripinfo id="flow_route_113_duration_20250327_2140.4" depart="24.00" departLane="1253188486#4_0" departPos="86.86" departSpeed="0.00" departDelay="0.00" arrival="68.00" arrivalLane="1253188486#8_0" arrivalPos="77.00" arrivalSpeed="14.21" duration="44.00" routeLength="188.77" waitingTime="11.00" waitingCount="1" stopTime="0.00" timeLoss="32.49" rerouteNo="0" devices="tripinfo_flow_route_113_duration_20250327_2140.4" vType="car" speedFactor="1.15" vaporized=""/>
    <tripinfo id="flow_route_119_duration_20250327_2140.0" depart="0.00" departLane="134194079#0_0" departPos="151.34" departSpeed="0.00" departDelay="0.00" arrival="69.00" arrivalLane="1253188486#8_0" arrivalPos="1.48" arrivalSpeed="5.09" duration="69.00" routeLength="161.10" waitingTime="41.00" waitingCount="1" stopTime="0.00" timeLoss="58.39" rerouteNo="0" devices="tripinfo_flow_route_119_duration_20250327_2140.0" vType="car" speedFactor="1.09" vaporized=""/>
    <tripinfo id="flow_route_115_duration_20250327_2140.1" depart="10.00" departLane="1253188486#4_0" departPos="19.82" departSpeed="0.00" departDelay="0.00" arrival="70.00" arrivalLane="1328664744#0_2" arrivalPos="151.98" arrivalSpeed="14.50" duration="60.00" routeLength="317.57" waitingTime="18.00" waitingCount="1" stopTime="0.00" timeLoss="37.62" rerouteNo="0" devices="tripinfo_flow_route_115_duration_20250327_2140.1" vType="car" speedFactor="0.88" vaporized=""/>
    <tripinfo id="flow_route_115_duration_20250327_2140.3" depart="30.00" departLane="1253188486#4_0" departPos="55.93" departSpeed="0.00" departDelay="0.00" arrival="70.00" arrivalLane="1328664744#0_2" arrivalPos="93.89" arrivalSpeed="14.44" duration="40.00" routeLength="223.36" waitingTime="3.00" waitingCount="1" stopTime="0.00" timeLoss="25.62" rerouteNo="0" devices="tripinfo_flow_route_115_duration_20250327_2140.3" vType="car" speedFactor="1.10" vaporized=""/>
    <tripinfo id="flow_route_113_duration_20250327_2140.0" depart="0.00" departLane="1253188486#4_0" departPos="134.10" departSpeed="0.00" departDelay="0.00" arrival="71.00" arrivalLane="1253188486#8_0" arrivalPos="182.35" arrivalSpeed="16.48" duration="71.00" routeLength="246.88" waitingTime="38.00" waitingCount="1" stopTime="0.00" timeLoss="55.33" rerouteNo="0" devices="tripinfo_flow_route_113_duration_20250327_2140.0" vType="car" speedFactor="1.05" vaporized=""/>
    <tripinfo id="flow_route_113_duration_20250327_2140.1" depart="7.00" departLane="1253188486#4_0" departPos="36.26" departSpeed="0.00" departDelay="1.00" arrival="71.00" arrivalLane="1253188486#8_1" arrivalPos="202.24" arrivalSpeed="16.35" duration="64.00" routeLength="364.61" waitingTime="19.00" waitingCount="1" stopTime="0.00" timeLoss="41.75" rerouteNo="0" devices="tripinfo_flow_route_113_duration_20250327_2140.1" vType="car" speedFactor="1.05" vaporized=""/>
    <tripinfo id="flow_route_115_duration_20250327_2140.2" depart="21.00" departLane="1253188486#4_0" departPos="83.74" departSpeed="0.00" departDelay="1.00" arrival="71.00" arrivalLane="1328664744#0_2" arrivalPos="142.35" arrivalSpeed="15.91" duration="50.00" routeLength="244.00" waitingTime="14.00" waitingCount="1" stopTime="0.00" timeLoss="34.05" rerouteNo="0" devices="tripinfo_flow_route_115_duration_20250327_2140.2" vType="car" speedFactor="1.13" vaporized=""/>
    <tripinfo id="flow_route_118_duration_20250327_2140.7" depart="28.00" departLane="134194079#0_0" departPos="212.97" departSpeed="0.00" departDelay="1.75" arrival="74.00" arrivalLane="1328664744#0_2" arrivalPos="10.39" arrivalSpeed="8.65" duration="46.00" routeLength="118.57" waitingTime="20.00" waitingCount="1" stopTime="0.00" timeLoss="38.54" rerouteNo="0" devices="tripinfo_flow_route_118_duration_20250327_2140.7" vType="car" speedFactor="1.17" vaporized=""/>
    <tripinfo id="flow_route_97_duration_20250327_2140.1" depart="30.00" departLane="1328664748#0_0" departPos="114.10" departSpeed="0.00" departDelay="0.00" arrival="75.00" arrivalLane="135474719#0_0" arrivalPos="54.28" arrivalSpeed="10.34" duration="45.00" routeLength="174.91" waitingTime="14.00" waitingCount="1" stopTime="0.00" timeLoss="33.23" rerouteNo="0" devices="tripinfo_flow_route_97_duration_20250327_2140.1" vType="car" speedFactor="0.99" vaporized=""/>
    <tripinfo id="flow_route_113_duration_20250327_2140.6" depart="37.00" departLane="1253188486#4_0" departPos="108.86" departSpeed="0.00" departDelay="1.00" arrival="75.00" arrivalLane="1253188486#8_0" arrivalPos="153.39" arrivalSpeed="16.58" duration="38.00" routeLength="243.17" waitingTime="2.00" waitingCount="1" stopTime="0.00" timeLoss="22.73" rerouteNo="0" devices="tripinfo_flow_route_113_duration_20250327_2140.6" vType="car" speedFactor="1.09" vaporized=""/>
    <tripinfo id="flow_route_113_duration_20250327_2140.5" depart="30.00" departLane="1253188486#4_0" departPos="63.89" departSpeed="0.00" departDelay="0.00" arrival="76.00" arrivalLane="1253188486#8_1" arrivalPos="166.51" arrivalSpeed="16.14" duration="46.00" routeLength="301.24" waitingTime="3.00" waitingCount="1" stopTime="0.00" timeLoss="26.98" rerouteNo="0" devices="tripinfo_flow_route_113_duration_20250327_2140.5" vType="car" speedFactor="1.18" vaporized=""/>
    <tripinfo id="flow_route_113_duration_20250327_2140.3" depart="18.00" departLane="1253188486#4_0" departPos="47.14" departSpeed="0.00" departDelay="0.00" arrival="77.00" arrivalLane="1253188486#8_1" arrivalPos="229.41" arrivalSpeed="16.49" duration="59.00" routeLength="380.90" waitingTime="13.00" waitingCount="1" stopTime="0.00" timeLoss="35.58" rerouteNo="0" devices="tripinfo_flow_route_113_duration_20250327_2140.3" vType="car" speedFactor="0.89" vaporized=""/>
    <tripinfo id="flow_route_118_duration_20250327_2140.6" depart="24.00" departLane="134194079#0_0" departPos="25.38" departSpeed="0.00" departDelay="1.50" arrival="77.00" arrivalLane="1328664744#0_2" arrivalPos="14.86" arrivalSpeed="9.62" duration="53.00" routeLength="310.63" waitingTime="10.00" waitingCount="1" stopTime="0.00" timeLoss="33.90" rerouteNo="0" devices="tripinfo_flow_route_118_duration_20250327_2140.6" vType="car" speedFactor="1.18" vaporized=""/>
    <tripinfo id="flow_route_118_duration_20250327_2140.9" depart="34.00" departLane="134194079#0_0" departPos="258.30" departSpeed="0.00" departDelay="0.25" arrival="78.00" arrivalLane="1328664744#0_0" arrivalPos="23.23" arrivalSpeed="9.74" duration="44.00" routeLength="86.08" waitingTime="21.00" waitingCount="1" stopTime="0.00" timeLoss="38.14" rerouteNo="0" devices="tripinfo_flow_route_118_duration_20250327_2140.9" vType="car" speedFactor="0.96" vaporized=""/>
    <tripinfo id="flow_route_118_duration_20250327_2140.3" depart="13.00" departLane="134194079#0_0" departPos="168.64" departSpeed="0.00" departDelay="1.75" arrival="82.00" arrivalLane="1328664744#0_1" arrivalPos="91.26" arrivalSpeed="13.83" duration="69.00" routeLength="243.77" waitingTime="26.00" waitingCount="2" stopTime="0.00" timeLoss="52.59" rerouteNo="0" devices="tripinfo_flow_route_118_duration_20250327_2140.3" vType="car" speedFactor="0.94" vaporized=""/>
    <tripinfo id="flow_route_118_duration_20250327_2140.11" depart="42.00" departLane="134194079#0_0" departPos="210.43" departSpeed="0.00" departDelay="0.75" arrival="84.00" arrivalLane="1328664744#0_1" arrivalPos="62.39" arrivalSpeed="12.92" duration="42.00" routeLength="173.11" waitingTime="8.00" waitingCount="1" stopTime="0.00" timeLoss="29.64" rerouteNo="0" devices="tripinfo_flow_route_118_duration_20250327_2140.11" vType="car" speedFactor="0.85" vaporized=""/>
    <tripinfo id="flow_route_118_duration_20250327_2140.2" depart="10.00" departLane="134194079#0_0" departPos="97.74" departSpeed="0.00" departDelay="2.50" arrival="85.00" arrivalLane="1328664744#0_1" arrivalPos="169.60" arrivalSpeed="15.16" duration="75.00" routeLength="393.01" waitingTime="27.00" waitingCount="1" stopTime="0.00" timeLoss="48.74" rerouteNo="0" devices="tripinfo_flow_route_118_duration_20250327_2140.2" vType="car" speedFactor="0.93" vaporized=""/>
    <tripinfo id="flow_route_118_duration_20250327_2140.0" depart="0.00" departLane="134194079#0_0" departPos="13.63" departSpeed="0.00" departDelay="0.00" arrival="86.00" arrivalLane="1328664744#0_0" arrivalPos="165.30" arrivalSpeed="14.10" duration="86.00" routeLength="472.83" waitingTime="31.00" waitingCount="1" stopTime="0.00" timeLoss="52.09" rerouteNo="0" devices="tripinfo_flow_route_118_duration_20250327_2140.0" vType="car" speedFactor="0.86" vaporized=""/>
    <tripinfo id="flow_route_118_duration_20250327_2140.4" depart="15.00" departLane="134194079#0_0" departPos="204.04" departSpeed="0.00" departDelay="0.00" arrival="86.00" arrivalLane="1328664744#0_0" arrivalPos="148.22" arrivalSpeed="14.88" duration="71.00" routeLength="265.34" waitingTime="32.00" waitingCount="1" stopTime="0.00" timeLoss="54.36" rerouteNo="0" devices="tripinfo_flow_route_118_duration_20250327_2140.4" vType="car" speedFactor="0.97" vaporized=""/>
    <tripinfo id="flow_route_118_duration_20250327_2140.5" depart="19.00" departLane="134194079#0_0" departPos="49.68" departSpeed="0.00" departDelay="0.25" arrival="87.00" arrivalLane="1328664744#0_1" arrivalPos="128.69" arrivalSpeed="14.48" duration="68.00" routeLength="400.16" waitingTime="19.00" waitingCount="1" stopTime="0.00" timeLoss="39.65" rerouteNo="0" devices="tripinfo_flow_route_118_duration_20250327_2140.5" vType="car" speedFactor="0.87" vaporized=""/>
    <tripinfo id="flow_route_118_duration_20250327_2140.8" depart="31.00" departLane="134194079#0_0" departPos="7.03" departSpeed="0.00" departDelay="1.00" arrival="88.00" arrivalLane="1328664744#0_2" arrivalPos="136.46" arrivalSpeed="14.72" duration="57.00" routeLength="450.58" waitingTime="4.00" waitingCount="1" stopTime="0.00" timeLoss="26.57" rerouteNo="0" devices="tripinfo_flow_route_118_duration_20250327_2140.8" vType="car" speedFactor="0.90" vaporized=""/>
    <tripinfo id="flow_route_118_duration_20250327_2140.12" depart="45.00" departLane="134194079#0_0" departPos="199.24" departSpeed="0.00" departDelay="0.00" arrival="88.00" arrivalLane="1328664744#0_2" arrivalPos="106.49" arrivalSpeed="14.79" duration="43.00" routeLength="228.41" waitingTime="4.00" waitingCount="1" stopTime="0.00" timeLoss="29.22" rerouteNo="0" devices="tripinfo_flow_route_118_duration_20250327_2140.12" vType="car" speedFactor="1.00" vaporized=""/>
    <tripinfo id="flow_route_119_duration_20250327_2140.3" depart="18.00" departLane="134194079#0_0" departPos="145.32" departSpeed="0.00" departDelay="0.00" arrival="95.00" arrivalLane="1253188486#8_0" arrivalPos="235.51" arrivalSpeed="16.20" duration="77.00" routeLength="401.14" waitingTime="19.00" waitingCount="1" stopTime="0.00" timeLoss="49.42" rerouteNo="0" devices="tripinfo_flow_route_119_duration_20250327_2140.3" vType="car" speedFactor="0.83" vaporized=""/>
    <tripinfo id="flow_route_118_duration_20250327_2140.10" depart="39.00" departLane="134194079#0_0" departPos="87.42" departSpeed="0.00" departDelay="1.50" arrival="95.00" arrivalLane="1328664744#0_1" arrivalPos="193.86" arrivalSpeed="16.25" duration="56.00" routeLength="427.59" waitingTime="3.00" waitingCount="1" stopTime="0.00" timeLoss="29.56" rerouteNo="0" devices="tripinfo_flow_route_118_duration_20250327_2140.10" vType="car" speedFactor="1.09" vaporized=""/>
    <tripinfo id="flow_route_118_duration_20250327_2140.14" depart="55.00" departLane="134194079#0_0" departPos="142.40" departSpeed="0.00" departDelay="2.50" arrival="95.00" arrivalLane="1328664744#0_2" arrivalPos="190.03" arrivalSpeed="16.16" duration="40.00" routeLength="368.77" waitingTime="0.00" waitingCount="0" stopTime="0.00" timeLoss="17.77" rerouteNo="0" devices="tripinfo_flow_route_118_duration_20250327_2140.14" vType="car" speedFactor="1.08" vaporized=""/>
    <tripinfo id="flow_route_118_duration_20250327_2140.15" depart="57.00" departLane="134194079#0_0" departPos="99.97" departSpeed="0.00" departDelay="0.75" arrival="95.00" arrivalLane="1328664744#0_1" arrivalPos="177.03" arrivalSpeed="16.17" duration="38.00" routeLength="398.21" waitingTime="0.00" waitingCount="0" stopTime="0.00" timeLoss="13.71" rerouteNo="0" devices="tripinfo_flow_route_118_duration_20250327_2140.15" vType="car" speedFactor="0.99" vaporized=""/>
    <tripinfo id="flow_route_119_duration_20250327_2140.1" depart="7.00" departLane="134194079#0_0" departPos="9.56" departSpeed="0.00" departDelay="1.00" arrival="97.00" arrivalLane="1253188486#8_0" arrivalPos="217.77" arrivalSpeed="16.43" duration="90.00" routeLength="519.16" waitingTime="18.00" waitingCount="1" stopTime="0.00" timeLoss="57.49" rerouteNo="0" devices="tripinfo_flow_route_119_duration_20250327_2140.1" vType="car" speedFactor="1.12" vaporized=""/>
    <tripinfo id="flow_route_119_duration_20250327_2140.2" depart="13.00" departLane="134194079#0_0" departPos="71.21" departSpeed="0.00" departDelay="1.00" arrival="97.00" arrivalLane="1253188486#8_0" arrivalPos="236.64" arrivalSpeed="16.46" duration="84.00" routeLength="476.38" waitingTime="18.00" waitingCount="1" stopTime="0.00" timeLoss="53.82" rerouteNo="0" devices="tripinfo_flow_route_119_duration_20250327_2140.2" vType="car" speedFactor="1.16" vaporized=""/>
    <tripinfo id="flow_route_99_duration_20250327_2140.2" depart="30.00" departLane="1328664748#0_0" departPos="183.67" departSpeed="0.00" departDelay="0.00" arrival="99.00" arrivalLane="1253188486#8_2" arrivalPos="71.16" arrivalSpeed="12.23" duration="69.00" routeLength="145.36" waitingTime="35.00" waitingCount="2" stopTime="0.00" timeLoss="59.45" rerouteNo="0" devices="tripinfo_flow_route_99_duration_20250327_2140.2" vType="car" speedFactor="1.02" vaporized=""/>
    <tripinfo id="flow_route_119_duration_20250327_2140.6" depart="36.00" departLane="134194079#0_0" departPos="125.41" departSpeed="0.00" departDelay="0.00" arrival="99.00" arrivalLane="1253188486#8_0" arrivalPos="226.92" arrivalSpeed="16.47" duration="63.00" routeLength="412.45" waitingTime="4.00" waitingCount="2" stopTime="0.00" timeLoss="37.08" rerouteNo="0" devices="tripinfo_flow_route_119_duration_20250327_2140.6" vType="car" speedFactor="1.04" vaporized=""/>
    <tripinfo id="flow_route_109_duration_20250327_2140.2" depart="15.00" departLane="1254519225#0.109_0" departPos="37.20" departSpeed="0.00" departDelay="0.00" arrival="106.00" arrivalLane="1328664744#0_0" arrivalPos="19.75" arrivalSpeed="7.44" duration="91.00" routeLength="156.78" waitingTime="55.00" waitingCount="2" stopTime="0.00" timeLoss="80.69" rerouteNo="0" devices="tripinfo_flow_route_109_duration_20250327_2140.2" vType="car" speedFactor="1.01" vaporized=""/>
    <tripinfo id="flow_route_110_duration_20250327_2140.2" depart="40.00" departLane="1254519225#0.109_0" departPos="29.09" departSpeed="0.00" departDelay="0.00" arrival="111.00" arrivalLane="177211987#1_2" arrivalPos="50.19" arrivalSpeed="10.88" duration="71.00" routeLength="208.71" waitingTime="35.00" waitingCount="1" stopTime="0.00" timeLoss="56.28" rerouteNo="0" devices="tripinfo_flow_route_110_duration_20250327_2140.2" vType="car" speedFactor="0.90" vaporized=""/>
    <tripinfo id="flow_route_99_duration_20250327_2140.3" depart="45.00" departLane="1328664748#0_0" departPos="9.48" departSpeed="0.00" departDelay="0.00" arrival="111.00" arrivalLane="1253188486#8_2" arrivalPos="216.39" arrivalSpeed="16.56" duration="66.00" routeLength="464.78" waitingTime="13.00" waitingCount="1" stopTime="0.00" timeLoss="37.20" rerouteNo="0" devices="tripinfo_flow_route_99_duration_20250327_2140.3" vType="car" speedFactor="1.02" vaporized=""/>
    <tripinfo id="flow_route_109_duration_20250327_2140.4" depart="30.00" departLane="1254519225#0.109_0" departPos="36.50" departSpeed="0.00" departDelay="0.00" arrival="113.00" arrivalLane="1328664744#0_0" arrivalPos="47.11" arrivalSpeed="10.65" duration="83.00" routeLength="184.84" waitingTime="49.00" waitingCount="1" stopTime="0.00" timeLoss="70.77" rerouteNo="0" devices="tripinfo_flow_route_109_duration_20250327_2140.4" vType="car" speedFactor="0.97" vaporized=""/>
    <tripinfo id="flow_route_108_duration_20250327_2140.2" depart="40.00" departLane="1254519225#0.109_0" departPos="6.33" departSpeed="0.00" departDelay="0.00" arrival="115.00" arrivalLane="135474719#0_2" arrivalPos="63.42" arrivalSpeed="13.40" duration="75.00" routeLength="256.84" waitingTime="34.00" waitingCount="1" stopTime="0.00" timeLoss="59.39" rerouteNo="0" devices="tripinfo_flow_route_108_duration_20250327_2140.2" vType="car" speedFactor="1.00" vaporized=""/>
    <tripinfo id="flow_route_109_duration_20250327_2140.3" depart="23.00" departLane="1254519225#0.109_0" departPos="11.17" departSpeed="0.00" departDelay="0.50" arrival="123.00" arrivalLane="1328664744#0_0" arrivalPos="205.90" arrivalSpeed="15.05" duration="100.00" routeLength="368.96" waitingTime="50.00" waitingCount="1" stopTime="0.00" timeLoss="74.87" rerouteNo="0" devices="tripinfo_flow_route_109_duration_20250327_2140.3" vType="car" speedFactor="0.93" vaporized=""/>
    <tripinfo id="flow_route_115_duration_20250327_2140.5" depart="51.00" departLane="1253188486#4_0" departPos="90.78" departSpeed="0.00" departDelay="1.00" arrival="129.00" arrivalLane="1328664744#0_2" arrivalPos="95.59" arrivalSpeed="13.80" duration="78.00" routeLength="190.21" waitingTime="45.00" waitingCount="1" stopTime="0.00" timeLoss="65.56" rerouteNo="0" devices="tripinfo_flow_route_115_duration_20250327_2140.5" vType="car" speedFactor="1.02" vaporized=""/>
    <tripinfo id="flow_route_115_duration_20250327_2140.4" depart="40.00" departLane="1253188486#4_0" departPos="101.36" departSpeed="0.00" departDelay="0.00" arrival="131.00" arrivalLane="1328664744#0_2" arrivalPos="155.18" arrivalSpeed="14.20" duration="91.00" routeLength="239.22" waitingTime="50.00" waitingCount="2" stopTime="0.00" timeLoss="74.10" rerouteNo="0" devices="tripinfo_flow_route_115_duration_20250327_2140.4" vType="car" speedFactor="0.88" vaporized=""/>
    <tripinfo id="flow_route_113_duration_20250327_2140.7" depart="42.00" departLane="1253188486#4_0" departPos="19.04" departSpeed="0.00" departDelay="0.00" arrival="135.00" arrivalLane="1253188486#8_0" arrivalPos="191.61" arrivalSpeed="16.39" duration="93.00" routeLength="371.20" waitingTime="47.00" waitingCount="1" stopTime="0.00" timeLoss="69.94" rerouteNo="0" devices="tripinfo_flow_route_113_duration_20250327_2140.7" vType="car" speedFactor="0.85" vaporized=""/>
    <tripinfo id="flow_route_113_duration_20250327_2140.8" depart="48.00" departLane="1253188486#4_0" departPos="23.52" departSpeed="0.00" departDelay="0.00" arrival="138.00" arrivalLane="1253188486#8_0" arrivalPos="239.99" arrivalSpeed="16.11" duration="90.00" routeLength="415.11" waitingTime="42.00" waitingCount="1" stopTime="0.00" timeLoss="64.26" rerouteNo="0" devices="tripinfo_flow_route_113_duration_20250327_2140.8" vType="car" speedFactor="1.00" vaporized=""/>
    <tripinfo id="flow_route_113_duration_20250327_2140.9" depart="58.00" departLane="1253188486#4_0" departPos="0.13" departSpeed="0.00" departDelay="4.00" arrival="139.00" arrivalLane="1253188486#8_0" arrivalPos="231.79" arrivalSpeed="16.44" duration="81.00" routeLength="430.29" waitingTime="31.00" waitingCount="1" stopTime="0.00" timeLoss="54.45" rerouteNo="0" devices="tripinfo_flow_route_113_duration_20250327_2140.9" vType="car" speedFactor="1.12" vaporized=""/>
    <tripinfo id="flow_route_118_duration_20250327_2140.13" depart="54.00" departLane="134194079#0_0" departPos="4.31" departSpeed="0.00" departDelay="5.25" arrival="141.00" arrivalLane="1328664744#0_0" arrivalPos="76.44" arrivalSpeed="12.22" duration="87.00" routeLength="393.28" waitingTime="41.00" waitingCount="1" stopTime="0.00" timeLoss="63.21" rerouteNo="0" devices="tripinfo_flow_route_118_duration_20250327_2140.13" vType="car" speedFactor="1.14" vaporized=""/>
    <tripinfo id="flow_route_119_duration_20250327_2140.5" depart="31.00" departLane="134194079#0_0" departPos="89.31" departSpeed="0.00" departDelay="1.00" arrival="143.00" arrivalLane="1253188486#8_0" arrivalPos="95.62" arrivalSpeed="12.32" duration="112.00" routeLength="317.26" waitingTime="44.00" waitingCount="3" stopTime="0.00" timeLoss="91.95" rerouteNo="0" devices="tripinfo_flow_route_119_duration_20250327_2140.5" vType="car" speedFactor="1.03" vaporized=""/>
    <tripinfo id="flow_route_119_duration_20250327_2140.4" depart="25.00" departLane="134194079#0_0" departPos="53.30" departSpeed="0.00" departDelay="1.00" arrival="144.00" arrivalLane="1253188486#8_0" arrivalPos="83.17" arrivalSpeed="12.59" duration="119.00" routeLength="340.82" waitingTime="42.00" waitingCount="3" stopTime="0.00" timeLoss="97.52" rerouteNo="0" devices="tripinfo_flow_route_119_duration_20250327_2140.4" vType="car" speedFactor="1.01" vaporized=""/>
    <tripinfo id="flow_route_119_duration_20250327_2140.7" depart="42.00" departLane="134194079#0_0" departPos="41.64" departSpeed="0.00" departDelay="0.00" arrival="154.00" arrivalLane="1253188486#8_0" arrivalPos="174.74" arrivalSpeed="16.58" duration="112.00" routeLength="444.04" waitingTime="39.00" waitingCount="1" stopTime="0.00" timeLoss="84.25" rerouteNo="0" devices="tripinfo_flow_route_119_duration_20250327_2140.7" vType="car" speedFactor="1.17" vaporized=""/>
    <tripinfo id="flow_route_119_duration_20250327_2140.8" depart="51.00" departLane="134194079#0_0" departPos="111.95" departSpeed="0.00" departDelay="3.00" arrival="154.00" arrivalLane="1253188486#8_0" arrivalPos="207.43" arrivalSpeed="16.17" duration="103.00" routeLength="406.43" waitingTime="39.00" waitingCount="1" stopTime="0.00" timeLoss="75.76" rerouteNo="0" devices="tripinfo_flow_route_119_duration_20250327_2140.8" vType="car" speedFactor="0.90" vaporized=""/>
    <tripinfo id="flow_route_119_duration_20250327_2140.9" depart="55.00" departLane="134194079#0_0" departPos="49.42" departSpeed="0.00" departDelay="1.00" arrival="154.00" arrivalLane="1253188486#8_0" arrivalPos="134.75" arrivalSpeed="16.52" duration="99.00" routeLength="396.28" waitingTime="38.00" waitingCount="1" stopTime="0.00" timeLoss="73.09" rerouteNo="0" devices="tripinfo_flow_route_119_duration_20250327_2140.9" vType="car" speedFactor="1.02" vaporized=""/>
    <tripinfo id="flow_route_109_duration_20250327_2140.7" depart="53.00" departLane="1254519225#0.109_0" departPos="51.23" departSpeed="0.00" departDelay="0.50" arrival="174.00" arrivalLane="1328664744#0_0" arrivalPos="22.82" arrivalSpeed="9.31" duration="121.00" routeLength="145.82" waitingTime="83.00" waitingCount="2" stopTime="0.00" timeLoss="111.03" rerouteNo="0" devices="tripinfo_flow_route_109_duration_20250327_2140.7" vType="car" speedFactor="0.97" vaporized=""/>