<?xml version="1.0" encoding="UTF-8"?>

<!-- generated on 2025-05-06 21:07:52 by Eclipse SUMO sumo Version 1.20.0
<configuration xmlns:xsi="http://www.w3.org/2001/XMLSchema-instance" xsi:noNamespaceSchemaLocation="http://sumo.dlr.de/xsd/sumoConfiguration.xsd">

    <input>
        <net-file value="osm.net.xml"/>
        <route-files value="xml/route_rl_632031937_1.rou.xml"/>
    </input>

    <output>
        <tripinfo-output value="xml/tripinfo_rl_632031937_1.xml"/>
    </output>

    <traci_server>
        <remote-port value="41011"/>
    </traci_server>

</configuration>
-->

<tripinfos xmlns:xsi="http://www.w3.org/2001/XMLSchema-instance" xsi:noNamespaceSchemaLocation="http://sumo.dlr.de/xsd/tripinfo_file.xsd">
    <tripinfo id="flow_route_53_duration_20250327_1930.1" depart="3.00" departLane="138002006#0_0" departPos="77.73" departSpeed="0.00" departDelay="0.14" arrival="18.00" arrivalLane="1369578052#0_0" arrivalPos="48.76" arrivalSpeed="10.51" duration="15.00" routeLength="78.95" waitingTime="0.00" waitingCount="0" stopTime="0.00" timeLoss="9.34" rerouteNo="0" devices="tripinfo_flow_route_53_duration_20250327_1930.1" vType="car" speedFactor="0.89" vaporized=""/>
    <tripinfo id="flow_route_66_duration_20250327_1930.0" depart="0.00" departLane="-138002002#2_0" departPos="85.87" departSpeed="0.00" departDelay="0.00" arrival="20.00" arrivalLane="-138002006#3_1" arrivalPos="3.87" arrivalSpeed="13.11" duration="20.00" routeLength="121.39" waitingTime="0.00" waitingCount="0" stopTime="0.00" timeLoss="10.61" rerouteNo="0" devices="tripinfo_flow_route_66_duration_20250327_1930.0" vType="car" speedFactor="0.83" vaporized=""/>
    <tripinfo id="flow_route_53_duration_20250327_1930.0" depart="0.00" departLane="138002006#0_0" departPos="48.40" departSpeed="0.00" departDelay="0.00" arrival="22.00" arrivalLane="1369578052#0_1" arrivalPos="131.33" arrivalSpeed="15.42" duration="22.00" routeLength="190.85" waitingTime="0.00" waitingCount="0" stopTime="0.00" timeLoss="9.47" rerouteNo="0" devices="tripinfo_flow_route_53_duration_20250327_1930.0" vType="car" speedFactor="0.94" vaporized=""/>
    <tripinfo id="flow_route_53_duration_20250327_1930.4" depart="12.00" departLane="138002006#0_0" departPos="29.41" departSpeed="0.00" departDelay="0.57" arrival="26.00" arrivalLane="1369578052#0_0" arrivalPos="5.50" arrivalSpeed="11.05" duration="14.00" routeLength="84.01" waitingTime="0.00" waitingCount="0" stopTime="0.00" timeLoss="8.22" rerouteNo="0" devices="tripinfo_flow_route_53_duration_20250327_1930.4" vType="car" speedFactor="0.88" vaporized=""/>
    <tripinfo id="flow_route_53_duration_20250327_1930.2" depart="6.00" departLane="138002006#0_0" departPos="45.54" departSpeed="0.00" departDelay="0.29" arrival="29.00" arrivalLane="1369578052#0_0" arrivalPos="126.01" arrivalSpeed="13.79" duration="23.00" routeLength="188.39" waitingTime="0.00" waitingCount="0" stopTime="0.00" timeLoss="9.70" rerouteNo="0" devices="tripinfo_flow_route_53_duration_20250327_1930.2" vType="car" speedFactor="0.86" vaporized=""/>
    <tripinfo id="flow_route_52_duration_20250327_1930.0" depart="0.00" departLane="138002006#0_0" departPos="21.97" departSpeed="0.00" departDelay="0.00" arrival="30.00" arrivalLane="380351865#0_1" arrivalPos="15.21" arrivalSpeed="11.55" duration="30.00" routeLength="234.80" waitingTime="0.00" waitingCount="0" stopTime="0.00" timeLoss="10.38" rerouteNo="0" devices="tripinfo_flow_route_52_duration_20250327_1930.0" vType="car" speedFactor="1.06" vaporized=""/>
    <tripinfo id="flow_route_67_duration_20250327_1930.1" depart="10.00" departLane="-138002002#2_0" departPos="176.21" departSpeed="0.00" departDelay="0.00" arrival="33.00" arrivalLane="380351865#0_0" arrivalPos="5.15" arrivalSpeed="10.05" duration="23.00" routeLength="161.99" waitingTime="0.00" waitingCount="0" stopTime="0.00" timeLoss="6.22" rerouteNo="0" devices="tripinfo_flow_route_67_duration_20250327_1930.1" vType="car" speedFactor="0.93" vaporized=""/>
    <tripinfo id="flow_route_53_duration_20250327_1930.5" depart="16.00" departLane="138002006#0_0" departPos="19.81" departSpeed="0.00" departDelay="1.72" arrival="33.00" arrivalLane="1369578052#0_1" arrivalPos="23.11" arrivalSpeed="11.79" duration="17.00" routeLength="111.22" waitingTime="0.00" waitingCount="0" stopTime="0.00" timeLoss="9.82" rerouteNo="0" devices="tripinfo_flow_route_53_duration_20250327_1930.5" vType="car" speedFactor="0.94" vaporized=""/>
    <tripinfo id="flow_route_53_duration_20250327_1930.8" depart="24.00" departLane="138002006#0_0" departPos="82.39" departSpeed="0.00" departDelay="1.14" arrival="33.00" arrivalLane="1369578052#0_0" arrivalPos="5.13" arrivalSpeed="6.83" duration="9.00" routeLength="30.66" waitingTime="0.00" waitingCount="0" stopTime="0.00" timeLoss="6.85" rerouteNo="0" devices="tripinfo_flow_route_53_duration_20250327_1930.8" vType="car" speedFactor="0.95" vaporized=""/>
    <tripinfo id="flow_route_66_duration_20250327_1930.1" depart="9.00" departLane="-138002002#2_0" departPos="5.97" departSpeed="0.00" departDelay="0.43" arrival="34.00" arrivalLane="-138002006#3_1" arrivalPos="35.21" arrivalSpeed="16.24" duration="25.00" routeLength="232.63" waitingTime="0.00" waitingCount="0" stopTime="0.00" timeLoss="10.49" rerouteNo="0" devices="tripinfo_flow_route_66_duration_20250327_1930.1" vType="car" speedFactor="0.99" vaporized=""/>
    <tripinfo id="flow_route_67_duration_20250327_1930.0" depart="1.00" departLane="-138002002#2_0" departPos="104.31" departSpeed="0.00" departDelay="1.00" arrival="35.00" arrivalLane="380351865#0_0" arrivalPos="12.69" arrivalSpeed="11.57" duration="34.00" routeLength="241.42" waitingTime="0.00" waitingCount="0" stopTime="0.00" timeLoss="14.31" rerouteNo="0" devices="tripinfo_flow_route_67_duration_20250327_1930.0" vType="car" speedFactor="1.05" vaporized=""/>
    <tripinfo id="flow_route_53_duration_20250327_1930.3" depart="10.00" departLane="138002006#0_0" departPos="14.12" departSpeed="0.00" departDelay="1.43" arrival="37.00" arrivalLane="1369578052#0_1" arrivalPos="151.94" arrivalSpeed="16.11" duration="27.00" routeLength="245.74" waitingTime="0.00" waitingCount="0" stopTime="0.00" timeLoss="12.15" rerouteNo="0" devices="tripinfo_flow_route_53_duration_20250327_1930.3" vType="car" speedFactor="1.05" vaporized=""/>
    <tripinfo id="flow_route_66_duration_20250327_1930.2" depart="18.00" departLane="-138002002#2_0" departPos="109.83" departSpeed="0.00" departDelay="0.86" arrival="39.00" arrivalLane="-138002006#3_0" arrivalPos="72.06" arrivalSpeed="14.48" duration="21.00" routeLength="165.62" waitingTime="0.00" waitingCount="0" stopTime="0.00" timeLoss="9.28" rerouteNo="0" devices="tripinfo_flow_route_66_duration_20250327_1930.2" vType="car" speedFactor="0.89" vaporized=""/>
    <tripinfo id="flow_route_52_duration_20250327_1930.1" depart="10.00" departLane="138002006#0_0" departPos="67.86" departSpeed="0.00" departDelay="1.43" arrival="42.00" arrivalLane="380351865#0_1" arrivalPos="16.03" arrivalSpeed="11.40" duration="32.00" routeLength="189.72" waitingTime="0.00" waitingCount="0" stopTime="0.00" timeLoss="15.11" rerouteNo="0" devices="tripinfo_flow_route_52_duration_20250327_1930.1" vType="car" speedFactor="1.03" vaporized=""/>
    <tripinfo id="flow_route_53_duration_20250327_1930.10" depart="29.00" departLane="138002006#0_0" departPos="60.25" departSpeed="0.00" departDelay="0.43" arrival="46.00" arrivalLane="1369578052#0_0" arrivalPos="64.86" arrivalSpeed="12.60" duration="17.00" routeLength="112.53" waitingTime="0.00" waitingCount="0" stopTime="0.00" timeLoss="10.19" rerouteNo="0" devices="tripinfo_flow_route_53_duration_20250327_1930.10" vType="car" speedFactor="1.17" vaporized=""/>
    <tripinfo id="flow_route_53_duration_20250327_1930.7" depart="22.00" departLane="138002006#0_0" departPos="56.96" departSpeed="0.00" departDelay="2.00" arrival="49.00" arrivalLane="1369578052#0_0" arrivalPos="172.36" arrivalSpeed="13.35" duration="27.00" routeLength="223.32" waitingTime="0.00" waitingCount="0" stopTime="0.00" timeLoss="10.35" rerouteNo="0" devices="tripinfo_flow_route_53_duration_20250327_1930.7" vType="car" speedFactor="0.83" vaporized=""/>
    <tripinfo id="flow_route_52_duration_20250327_1930.2" depart="18.00" departLane="138002006#0_0" departPos="7.90" departSpeed="0.00" departDelay="0.86" arrival="55.00" arrivalLane="380351865#0_1" arrivalPos="2.87" arrivalSpeed="11.21" duration="37.00" routeLength="236.52" waitingTime="1.00" waitingCount="1" stopTime="0.00" timeLoss="16.78" rerouteNo="0" devices="tripinfo_flow_route_52_duration_20250327_1930.2" vType="car" speedFactor="1.02" vaporized=""/>
    <tripinfo id="flow_route_53_duration_20250327_1930.6" depart="22.00" departLane="138002006#0_0" departPos="16.28" departSpeed="0.00" departDelay="4.86" arrival="55.00" arrivalLane="1369578052#0_1" arrivalPos="105.36" arrivalSpeed="13.55" duration="33.00" routeLength="197.01" waitingTime="0.00" waitingCount="0" stopTime="0.00" timeLoss="20.57" rerouteNo="0" devices="tripinfo_flow_route_53_duration_20250327_1930.6" vType="car" speedFactor="1.01" vaporized=""/>
    <tripinfo id="flow_route_53_duration_20250327_1930.11" depart="32.00" departLane="138002006#0_0" departPos="51.93" departSpeed="0.00" departDelay="0.57" arrival="56.00" arrivalLane="1369578052#0_0" arrivalPos="152.17" arrivalSpeed="15.81" duration="24.00" routeLength="208.16" waitingTime="0.00" waitingCount="0" stopTime="0.00" timeLoss="11.15" rerouteNo="0" devices="tripinfo_flow_route_53_duration_20250327_1930.11" vType="car" speedFactor="0.97" vaporized=""/>
    <tripinfo id="flow_route_52_duration_20250327_1930.3" depart="28.00" departLane="138002006#0_0" departPos="4.16" departSpeed="0.00" departDelay="2.29" arrival="60.00" arrivalLane="380351865#0_1" arrivalPos="3.06" arrivalSpeed="9.88" duration="32.00" routeLength="240.46" waitingTime="0.00" waitingCount="0" stopTime="0.00" timeLoss="10.63" rerouteNo="0" devices="tripinfo_flow_route_52_duration_20250327_1930.3" vType="car" speedFactor="0.93" vaporized=""/>
    <tripinfo id="flow_route_53_duration_20250327_1930.9" depart="29.00" departLane="138002006#0_0" departPos="25.75" departSpeed="0.00" departDelay="3.29" arrival="60.00" arrivalLane="1369578052#0_0" arrivalPos="182.91" arrivalSpeed="16.31" duration="31.00" routeLength="265.08" waitingTime="0.00" waitingCount="0" stopTime="0.00" timeLoss="14.51" rerouteNo="0" devices="tripinfo_flow_route_53_duration_20250327_1930.9" vType="car" speedFactor="1.18" vaporized=""/>
    <tripinfo id="flow_route_52_duration_20250327_1930.4" depart="38.00" departLane="138002006#0_0" departPos="36.49" departSpeed="0.00" departDelay="3.72" arrival="64.00" arrivalLane="380351865#0_1" arrivalPos="0.41" arrivalSpeed="12.03" duration="26.00" routeLength="205.48" waitingTime="0.00" waitingCount="0" stopTime="0.00" timeLoss="9.32" rerouteNo="0" devices="tripinfo_flow_route_52_duration_20250327_1930.4" vType="car" speedFactor="1.10" vaporized=""/>
    <tripinfo id="flow_route_53_duration_20250327_1930.14" depart="41.00" departLane="138002006#0_0" departPos="42.61" departSpeed="0.00" departDelay="1.00" arrival="64.00" arrivalLane="1369578052#0_1" arrivalPos="143.96" arrivalSpeed="16.14" duration="23.00" routeLength="209.27" waitingTime="0.00" waitingCount="0" stopTime="0.00" timeLoss="10.37" rerouteNo="0" devices="tripinfo_flow_route_53_duration_20250327_1930.14" vType="car" speedFactor="1.04" vaporized=""/>
    <tripinfo id="flow_route_53_duration_20250327_1930.12" depart="41.00" departLane="138002006#0_0" departPos="12.53" departSpeed="0.00" departDelay="6.72" arrival="68.00" arrivalLane="1369578052#0_1" arrivalPos="55.80" arrivalSpeed="11.28" duration="27.00" routeLength="151.19" waitingTime="0.00" waitingCount="0" stopTime="0.00" timeLoss="16.46" rerouteNo="0" devices="tripinfo_flow_route_53_duration_20250327_1930.12" vType="car" speedFactor="0.90" vaporized=""/>
    <tripinfo id="flow_route_53_duration_20250327_1930.13" depart="41.00" departLane="138002006#0_0" departPos="32.99" departSpeed="0.00" departDelay="3.86" arrival="69.00" arrivalLane="1369578052#0_0" arrivalPos="179.07" arrivalSpeed="16.48" duration="28.00" routeLength="254.01" waitingTime="0.00" waitingCount="0" stopTime="0.00" timeLoss="12.59" rerouteNo="0" devices="tripinfo_flow_route_53_duration_20250327_1930.13" vType="car" speedFactor="1.09" vaporized=""/>
    <tripinfo id="flow_route_53_duration_20250327_1930.16" depart="49.00" departLane="138002006#0_0" departPos="30.70" departSpeed="0.00" departDelay="3.29" arrival="73.00" arrivalLane="1369578052#0_1" arrivalPos="105.68" arrivalSpeed="14.37" duration="24.00" routeLength="182.90" waitingTime="0.00" waitingCount="0" stopTime="0.00" timeLoss="12.96" rerouteNo="0" devices="tripinfo_flow_route_53_duration_20250327_1930.16" vType="car" speedFactor="1.17" vaporized=""/>
    <tripinfo id="flow_route_53_duration_20250327_1930.18" depart="58.00" departLane="138002006#0_0" departPos="70.09" departSpeed="0.00" departDelay="6.57" arrival="75.00" arrivalLane="1369578052#0_0" arrivalPos="75.92" arrivalSpeed="12.34" duration="17.00" routeLength="113.75" waitingTime="0.00" waitingCount="0" stopTime="0.00" timeLoss="10.12" rerouteNo="0" devices="tripinfo_flow_route_53_duration_20250327_1930.18" vType="car" speedFactor="1.14" vaporized=""/>
    <tripinfo id="flow_route_52_duration_20250327_1930.5" depart="47.00" departLane="138002006#0_0" departPos="83.87" departSpeed="0.00" departDelay="4.15" arrival="76.00" arrivalLane="380351865#0_1" arrivalPos="16.70" arrivalSpeed="9.75" duration="29.00" routeLength="174.39" waitingTime="2.00" waitingCount="2" stopTime="0.00" timeLoss="10.70" rerouteNo="0" devices="tripinfo_flow_route_52_duration_20250327_1930.5" vType="car" speedFactor="0.90" vaporized=""/>
    <tripinfo id="flow_route_53_duration_20250327_1930.17" depart="50.00" departLane="138002006#0_0" departPos="0.08" departSpeed="0.00" departDelay="1.43" arrival="78.00" arrivalLane="1369578052#0_0" arrivalPos="88.97" arrivalSpeed="13.61" duration="28.00" routeLength="196.82" waitingTime="0.00" waitingCount="0" stopTime="0.00" timeLoss="15.84" rerouteNo="0" devices="tripinfo_flow_route_53_duration_20250327_1930.17" vType="car" speedFactor="1.10" vaporized=""/>
    <tripinfo id="flow_route_59_duration_20250327_1930.2" depart="7.00" departLane="186407685_0" departPos="112.17" departSpeed="0.00" departDelay="1.00" arrival="84.00" arrivalLane="1369578052#0_0" arrivalPos="8.52" arrivalSpeed="7.26" duration="77.00" routeLength="82.46" waitingTime="55.00" waitingCount="1" stopTime="0.00" timeLoss="70.83" rerouteNo="0" devices="tripinfo_flow_route_59_duration_20250327_1930.2" vType="car" speedFactor="1.09" vaporized=""/>
    <tripinfo id="flow_route_58_duration_20250327_1930.0" depart="0.00" departLane="186407685_0" departPos="1.07" departSpeed="0.00" departDelay="0.00" arrival="85.00" arrivalLane="-138002006#3_1" arrivalPos="43.63" arrivalSpeed="10.07" duration="85.00" routeLength="235.82" waitingTime="48.00" waitingCount="1" stopTime="0.00" timeLoss="69.88" rerouteNo="0" devices="tripinfo_flow_route_58_duration_20250327_1930.0" vType="car" speedFactor="1.08" vaporized=""/>
    <tripinfo id="flow_route_52_duration_20250327_1930.6" depart="53.00" departLane="138002006#0_0" departPos="43.27" departSpeed="0.00" departDelay="1.57" arrival="86.00" arrivalLane="380351865#0_1" arrivalPos="15.52" arrivalSpeed="9.87" duration="33.00" routeLength="213.81" waitingTime="1.00" waitingCount="1" stopTime="0.00" timeLoss="12.34" rerouteNo="0" devices="tripinfo_flow_route_52_duration_20250327_1930.6" vType="car" speedFactor="0.90" vaporized=""/>
    <tripinfo id="flow_route_59_duration_20250327_1930.1" depart="3.00" departLane="186407685_0" departPos="57.01" departSpeed="0.00" departDelay="0.00" arrival="87.00" arrivalLane="1369578052#0_0" arrivalPos="11.11" arrivalSpeed="6.90" duration="84.00" routeLength="140.21" waitingTime="54.00" waitingCount="1" stopTime="0.00" timeLoss="74.71" rerouteNo="0" devices="tripinfo_flow_route_59_duration_20250327_1930.1" vType="car" speedFactor="0.94" vaporized=""/>
    <tripinfo id="flow_route_59_duration_20250327_1930.0" depart="0.00" departLane="186407685_0" departPos="119.17" departSpeed="0.00" departDelay="0.00" arrival="91.00" arrivalLane="1369578052#0_0" arrivalPos="108.75" arrivalSpeed="12.90" duration="91.00" routeLength="175.69" waitingTime="60.00" waitingCount="1" stopTime="0.00" timeLoss="79.63" rerouteNo="0" devices="tripinfo_flow_route_59_duration_20250327_1930.0" vType="car" speedFactor="1.03" vaporized=""/>
    <tripinfo id="flow_route_59_duration_20250327_1930.6" depart="18.00" departLane="186407685_0" departPos="126.70" departSpeed="0.00" departDelay="0.00" arrival="93.00" arrivalLane="1369578052#0_0" arrivalPos="44.50" arrivalSpeed="10.00" duration="75.00" routeLength="103.90" waitingTime="51.00" waitingCount="1" stopTime="0.00" timeLoss="67.36" rerouteNo="0" devices="tripinfo_flow_route_59_duration_20250327_1930.6" vType="car" speedFactor="0.97" vaporized=""/>
    <tripinfo id="flow_route_57_duration_20250327_1930.0" depart="0.00" departLane="186407685_0" departPos="131.94" departSpeed="0.00" departDelay="0.00" arrival="94.00" arrivalLane="380351865#0_0" arrivalPos="0.78" arrivalSpeed="11.09" duration="94.00" routeLength="205.45" waitingTime="60.00" waitingCount="1" stopTime="0.00" timeLoss="76.82" rerouteNo="0" devices="tripinfo_flow_route_57_duration_20250327_1930.0" vType="car" speedFactor="1.01" vaporized=""/>
    <tripinfo id="flow_route_59_duration_20250327_1930.5" depart="15.00" departLane="186407685_0" departPos="46.76" departSpeed="0.00" departDelay="0.00" arrival="100.00" arrivalLane="1369578052#0_0" arrivalPos="75.82" arrivalSpeed="12.52" duration="85.00" routeLength="215.17" waitingTime="47.00" waitingCount="1" stopTime="0.00" timeLoss="71.24" rerouteNo="0" devices="tripinfo_flow_route_59_duration_20250327_1930.5" vType="car" speedFactor="1.16" vaporized=""/>
    <tripinfo id="flow_route_59_duration_20250327_1930.3" depart="9.00" departLane="186407685_0" departPos="41.92" departSpeed="0.00" departDelay="0.00" arrival="104.00" arrivalLane="1369578052#0_0" arrivalPos="163.62" arrivalSpeed="16.52" duration="95.00" routeLength="307.81" waitingTime="50.00" waitingCount="1" stopTime="0.00" timeLoss="75.02" rerouteNo="0" devices="tripinfo_flow_route_59_duration_20250327_1930.3" vType="car" speedFactor="1.12" vaporized=""/>
    <tripinfo id="flow_route_59_duration_20250327_1930.10" depart="30.00" departLane="186407685_0" departPos="69.01" departSpeed="0.00" departDelay="0.00" arrival="106.00" arrivalLane="1369578052#0_0" arrivalPos="78.01" arrivalSpeed="11.75" duration="76.00" routeLength="195.11" waitingTime="38.00" waitingCount="1" stopTime="0.00" timeLoss="63.44" rerouteNo="0" devices="tripinfo_flow_route_59_duration_20250327_1930.10" vType="car" speedFactor="0.99" vaporized=""/>
    <tripinfo id="flow_route_59_duration_20250327_1930.4" depart="12.00" departLane="186407685_0" departPos="22.91" departSpeed="0.00" departDelay="0.00" arrival="107.00" arrivalLane="1369578052#0_0" arrivalPos="126.28" arrivalSpeed="14.74" duration="95.00" routeLength="289.48" waitingTime="46.00" waitingCount="1" stopTime="0.00" timeLoss="75.84" rerouteNo="0" devices="tripinfo_flow_route_59_duration_20250327_1930.4" vType="car" speedFactor="0.94" vaporized=""/>
    <tripinfo id="flow_route_59_duration_20250327_1930.7" depart="22.00" departLane="186407685_0" departPos="26.88" departSpeed="0.00" departDelay="1.00" arrival="111.00" arrivalLane="1369578052#0_0" arrivalPos="106.92" arrivalSpeed="13.85" duration="89.00" routeLength="266.15" waitingTime="38.00" waitingCount="1" stopTime="0.00" timeLoss="70.79" rerouteNo="0" devices="tripinfo_flow_route_59_duration_20250327_1930.7" vType="car" speedFactor="0.92" vaporized=""/>
    <tripinfo id="flow_route_59_duration_20250327_1930.9" depart="29.00" departLane="186407685_0" departPos="37.60" departSpeed="0.00" departDelay="2.00" arrival="113.00" arrivalLane="1369578052#0_0" arrivalPos="104.54" arrivalSpeed="14.07" duration="84.00" routeLength="253.05" waitingTime="37.00" waitingCount="2" stopTime="0.00" timeLoss="67.75" rerouteNo="0" devices="tripinfo_flow_route_59_duration_20250327_1930.9" vType="car" speedFactor="1.01" vaporized=""/>
    <tripinfo id="flow_route_59_duration_20250327_1930.8" depart="24.00" departLane="186407685_0" departPos="11.86" departSpeed="0.00" departDelay="0.00" arrival="114.00" arrivalLane="1369578052#0_0" arrivalPos="100.79" arrivalSpeed="13.41" duration="90.00" routeLength="275.04" waitingTime="36.00" waitingCount="1" stopTime="0.00" timeLoss="72.33" rerouteNo="0" devices="tripinfo_flow_route_59_duration_20250327_1930.8" vType="car" speedFactor="1.13" vaporized=""/>
    <tripinfo id="flow_route_59_duration_20250327_1930.12" depart="44.00" departLane="186407685_0" departPos="76.29" departSpeed="0.00" departDelay="8.00" arrival="117.00" arrivalLane="1369578052#0_0" arrivalPos="90.82" arrivalSpeed="13.15" duration="73.00" routeLength="200.63" waitingTime="35.00" waitingCount="1" stopTime="0.00" timeLoss="59.51" rerouteNo="0" devices="tripinfo_flow_route_59_duration_20250327_1930.12" vType="car" speedFactor="0.96" vaporized=""/>
    <tripinfo id="flow_route_66_duration_20250327_1930.3" depart="26.00" departLane="-138002002#2_0" departPos="15.85" departSpeed="0.00" departDelay="0.29" arrival="120.00" arrivalLane="-138002006#3_0" arrivalPos="27.86" arrivalSpeed="8.48" duration="94.00" routeLength="215.41" waitingTime="61.00" waitingCount="1" stopTime="0.00" timeLoss="80.83" rerouteNo="0" devices="tripinfo_flow_route_66_duration_20250327_1930.3" vType="car" speedFactor="1.15" vaporized=""/>
    <tripinfo id="flow_route_66_duration_20250327_1930.4" depart="36.00" departLane="-138002002#2_0" departPos="83.96" departSpeed="0.00" departDelay="1.72" arrival="120.00" arrivalLane="-138002006#3_1" arrivalPos="9.30" arrivalSpeed="8.24" duration="84.00" routeLength="128.73" waitingTime="58.00" waitingCount="1" stopTime="0.00" timeLoss="75.84" rerouteNo="0" devices="tripinfo_flow_route_66_duration_20250327_1930.4" vType="car" speedFactor="1.03" vaporized=""/>
    <tripinfo id="flow_route_66_duration_20250327_1930.6" depart="53.00" departLane="-138002002#2_0" departPos="144.43" departSpeed="0.00" departDelay="1.57" arrival="122.00" arrivalLane="-138002006#3_1" arrivalPos="10.15" arrivalSpeed="8.54" duration="69.00" routeLength="69.11" waitingTime="48.00" waitingCount="1" stopTime="0.00" timeLoss="64.48" rerouteNo="0" devices="tripinfo_flow_route_66_duration_20250327_1930.6" vType="car" speedFactor="1.02" vaporized=""/>
    <tripinfo id="flow_route_66_duration_20250327_1930.5" depart="43.00" departLane="-138002002#2_0" departPos="122.19" departSpeed="0.00" departDelay="0.15" arrival="123.00" arrivalLane="-138002006#3_0" arrivalPos="13.63" arrivalSpeed="8.83" duration="80.00" routeLength="94.84" waitingTime="56.00" waitingCount="1" stopTime="0.00" timeLoss="73.04" rerouteNo="0" devices="tripinfo_flow_route_66_duration_20250327_1930.5" vType="car" speedFactor="0.85" vaporized=""/>
    <tripinfo id="flow_route_53_duration_20250327_1930.19" depart="58.00" departLane="138002006#0_0" departPos="10.18" departSpeed="0.00" departDelay="3.72" arrival="124.00" arrivalLane="1369578052#0_0" arrivalPos="38.25" arrivalSpeed="9.99" duration="66.00" routeLength="135.99" waitingTime="34.00" waitingCount="1" stopTime="0.00" timeLoss="57.30" rerouteNo="0" devices="tripinfo_flow_route_53_duration_20250327_1930.19" vType="car" speedFactor="1.08" vaporized=""/>
    <tripinfo id="flow_route_53_duration_20250327_1930.20" depart="59.00" departLane="138002006#0_0" departPos="20.22" departSpeed="0.00" departDelay="1.86" arrival="127.00" arrivalLane="1369578052#0_0" arrivalPos="106.83" arrivalSpeed="13.61" duration="68.00" routeLength="194.53" waitingTime="34.00" waitingCount="1" stopTime="0.00" timeLoss="56.11" rerouteNo="0" devices="tripinfo_flow_route_53_duration_20250327_1930.20" vType="car" speedFactor="1.02" vaporized=""/>
    <tripinfo id="flow_route_53_duration_20250327_1930.15" depart="49.00" departLane="138002006#0_0" departPos="14.87" departSpeed="0.00" departDelay="6.15" arrival="130.00" arrivalLane="1369578052#0_0" arrivalPos="155.85" arrivalSpeed="14.27" duration="81.00" routeLength="248.90" waitingTime="39.00" waitingCount="2" stopTime="0.00" timeLoss="63.74" rerouteNo="0" devices="tripinfo_flow_route_53_duration_20250327_1930.15" vType="car" speedFactor="0.88" vaporized=""/>
    <tripinfo id="flow_route_67_duration_20250327_1930.2" depart="20.00" departLane="-138002002#2_0" departPos="90.74" departSpeed="0.00" departDelay="0.00" arrival="132.00" arrivalLane="380351865#0_0" arrivalPos="16.39" arrivalSpeed="9.23" duration="112.00" routeLength="258.70" waitingTime="70.00" waitingCount="1" stopTime="0.00" timeLoss="88.10" rerouteNo="0" devices="tripinfo_flow_route_67_duration_20250327_1930.2" vType="car" speedFactor="0.87" vaporized=""/>
    <tripinfo id="flow_route_67_duration_20250327_1930.3" depart="30.00" departLane="-138002002#2_0" departPos="94.47" departSpeed="0.00" departDelay="0.00" arrival="134.00" arrivalLane="380351865#0_0" arrivalPos="10.50" arrivalSpeed="11.03" duration="104.00" routeLength="249.08" waitingTime="64.00" waitingCount="1" stopTime="0.00" timeLoss="83.27" rerouteNo="0" devices="tripinfo_flow_route_67_duration_20250327_1930.3" vType="car" speedFactor="1.02" vaporized=""/>
    <tripinfo id="flow_route_67_duration_20250327_1930.5" depart="50.00" departLane="-138002002#2_0" departPos="121.33" departSpeed="0.00" departDelay="0.00" arrival="137.00" arrivalLane="380351865#0_0" arrivalPos="8.03" arrivalSpeed="10.76" duration="87.00" routeLength="219.75" waitingTime="51.00" waitingCount="1" stopTime="0.00" timeLoss="68.45" rerouteNo="0" devices="tripinfo_flow_route_67_duration_20250327_1930.5" vType="car" speedFactor="1.00" vaporized=""/>
    <tripinfo id="flow_route_67_duration_20250327_1930.4" depart="41.00" departLane="-138002002#2_0" departPos="7.85" departSpeed="0.00" departDelay="1.00" arrival="139.00" arrivalLane="380351865#0_0" arrivalPos="4.80" arrivalSpeed="11.64" duration="98.00" routeLength="330.00" waitingTime="50.00" waitingCount="1" stopTime="0.00" timeLoss="73.69" rerouteNo="0" devices="tripinfo_flow_route_67_duration_20250327_1930.4" vType="car" speedFactor="1.09" vaporized=""/>
    <tripinfo id="flow_route_59_duration_20250327_1930.11" depart="39.00" departLane="186407685_0" departPos="17.98" departSpeed="0.00" departDelay="6.00" arrival="197.00" arrivalLane="1369578052#0_0" arrivalPos="76.90" arrivalSpeed="10.88" duration="158.00" routeLength="245.03" waitingTime="108.00" waitingCount="2" stopTime="0.00" timeLoss="142.74" rerouteNo="0" devices="tripinfo_flow_route_59_duration_20250327_1930.11" vType="car" speedFactor="1.18" vaporized=""/>
    <tripinfo id="flow_route_59_duration_20250327_1930.15" depart="55.00" departLane="186407685_0" departPos="27.15" departSpeed="0.00" departDelay="10.00" arrival="201.00" arrivalLane="1369578052#0_0" arrivalPos="69.95" arrivalSpeed="11.53" duration="146.00" routeLength="228.90" waitingTime="96.00" waitingCount="2" stopTime="0.00" timeLoss="130.05" rerouteNo="0" devices="tripinfo_flow_route_59_duration_20250327_1930.15" vType="car" speedFactor="0.85" vaporized=""/>
    <tripinfo id="flow_route_59_duration_20250327_1930.16" depart="66.00" departLane="186407685_0" departPos="33.74" departSpeed="0.00" departDelay="18.00" arrival="201.00" arrivalLane="1369578052#0_0" arrivalPos="2.70" arrivalSpeed="6.73" duration="135.00" routeLength="155.07" waitingTime="93.00" waitingCount="2" stopTime="0.00" timeLoss="124.81" rerouteNo="0" devices="tripinfo_flow_route_59_duration_20250327_1930.16" vType="car" speedFactor="1.02" vaporized=""/>
    <tripinfo id="flow_route_59_duration_20250327_1930.13" depart="46.00" departLane="186407685_0" departPos="18.22" departSpeed="0.00" departDelay="7.00" arrival="203.00" arrivalLane="1369578052#0_0" arrivalPos="128.94" arrivalSpeed="13.74" duration="157.00" routeLength="296.83" waitingTime="103.00" waitingCount="3" stopTime="0.00" timeLoss="138.36" rerouteNo="0" devices="tripinfo_flow_route_59_duration_20250327_1930.13" vType="car" speedFactor="1.04" vaporized=""/>
    <tripinfo id="flow_route_59_duration_20250327_1930.14" depart="51.00" departLane="186407685_0" departPos="2.07" departSpeed="0.00" departDelay="9.00" arrival="203.00" arrivalLane="1369578052#0_0" arrivalPos="72.01" arrivalSpeed="11.91" duration="152.00" routeLength="256.05" waitingTime="96.00" waitingCount="2" stopTime="0.00" timeLoss="135.79" rerouteNo="0" devices="tripinfo_flow_route_59_duration_20250327_1930.14" vType="car" speedFactor="1.00" vaporized=""/>
    <tripinfo id="flow_route_59_duration_20250327_1930.18" depart="72.00" departLane="186407685_0" departPos="14.98" departSpeed="0.00" departDelay="18.00" arrival="212.00" arrivalLane="1369578052#0_0" arrivalPos="85.32" arrivalSpeed="12.42" duration="140.00" routeLength="256.46" waitingTime="87.00" waitingCount="2" stopTime="0.00" timeLoss="122.99" rerouteNo="0" devices="tripinfo_flow_route_59_duration_20250327_1930.18" vType="car" speedFactor="0.97" vaporized=""/>
    <tripinfo id="flow_route_59_duration_20250327_1930.19" depart="73.00" departLane="186407685_0" departPos="6.13" departSpeed="0.00" departDelay="16.00" arrival="212.00" arrivalLane="1369578052#0_0" arrivalPos="67.56" arrivalSpeed="11.69" duration="139.00" routeLength="247.54" waitingTime="85.00" waitingCount="2" stopTime="0.00" timeLoss="123.60" rerouteNo="0" devices="tripinfo_flow_route_59_duration_20250327_1930.19" vType="car" speedFactor="1.12" vaporized=""/>