<?xml version="1.0" encoding="UTF-8"?>

<!-- generated on 2025-05-06 21:07:54 by Eclipse SUMO sumo Version 1.20.0
<configuration xmlns:xsi="http://www.w3.org/2001/XMLSchema-instance" xsi:noNamespaceSchemaLocation="http://sumo.dlr.de/xsd/sumoConfiguration.xsd">

    <input>
        <net-file value="osm.net.xml"/>
        <route-files value="xml/route_static_cluster_356722183_3828703848_1.rou.xml"/>
    </input>

    <output>
        <tripinfo-output value="xml/tripinfo_static_cluster_356722183_3828703848_1.xml"/>
    </output>

    <traci_server>
        <remote-port value="58605"/>
    </traci_server>

</configuration>
-->

<tripinfos xmlns:xsi="http://www.w3.org/2001/XMLSchema-instance" xsi:noNamespaceSchemaLocation="http://sumo.dlr.de/xsd/tripinfo_file.xsd">
    <tripinfo id="flow_route_18_duration_20250327_1940.0" depart="0.00" departLane="133126040#0_0" departPos="80.59" departSpeed="0.00" departDelay="0.00" arrival="13.00" arrivalLane="1318893695#0_0" arrivalPos="9.11" arrivalSpeed="10.10" duration="13.00" routeLength="59.37" waitingTime="0.00" waitingCount="0" stopTime="0.00" timeLoss="8.94" rerouteNo="0" devices="tripinfo_flow_route_18_duration_20250327_1940.0" vType="car" speedFactor="1.01" vaporized=""/>
    <tripinfo id="flow_route_19_duration_20250327_1940.1" depart="3.00" departLane="133126040#0_0" departPos="55.48" departSpeed="0.00" departDelay="0.50" arrival="28.00" arrivalLane="133126031#0_1" arrivalPos="107.07" arrivalSpeed="14.09" duration="25.00" routeLength="180.46" waitingTime="0.00" waitingCount="0" stopTime="0.00" timeLoss="12.15" rerouteNo="0" devices="tripinfo_flow_route_19_duration_20250327_1940.1" vType="car" speedFactor="0.89" vaporized=""/>
    <tripinfo id="flow_route_19_duration_20250327_1940.0" depart="0.00" departLane="133126040#0_0" departPos="0.65" departSpeed="0.00" departDelay="0.00" arrival="34.00" arrivalLane="133126031#0_1" arrivalPos="163.43" arrivalSpeed="16.53" duration="34.00" routeLength="291.65" waitingTime="0.00" waitingCount="0" stopTime="0.00" timeLoss="14.77" rerouteNo="0" devices="tripinfo_flow_route_19_duration_20250327_1940.0" vType="car" speedFactor="1.08" vaporized=""/>
    <tripinfo id="flow_route_0_duration_20250327_1940.1" depart="8.00" departLane="1318793176#1_0" departPos="1.34" departSpeed="0.00" departDelay="4.47" arrival="34.00" arrivalLane="133126031#0_0" arrivalPos="102.11" arrivalSpeed="16.41" duration="26.00" routeLength="221.19" waitingTime="1.00" waitingCount="1" stopTime="0.00" timeLoss="11.59" rerouteNo="0" devices="tripinfo_flow_route_0_duration_20250327_1940.1" vType="car" speedFactor="0.94" vaporized=""/>
    <tripinfo id="flow_route_0_duration_20250327_1940.0" depart="0.00" departLane="1318793176#1_0" departPos="2.64" departSpeed="0.00" departDelay="0.00" arrival="36.00" arrivalLane="133126031#0_0" arrivalPos="296.30" arrivalSpeed="16.48" duration="36.00" routeLength="414.08" waitingTime="0.00" waitingCount="0" stopTime="0.00" timeLoss="10.54" rerouteNo="0" devices="tripinfo_flow_route_0_duration_20250327_1940.0" vType="car" speedFactor="1.06" vaporized=""/>
    <tripinfo id="flow_route_19_duration_20250327_1940.3" depart="8.00" departLane="133126040#0_0" departPos="28.56" departSpeed="0.00" departDelay="0.50" arrival="38.00" arrivalLane="133126031#0_1" arrivalPos="110.18" arrivalSpeed="14.98" duration="30.00" routeLength="210.48" waitingTime="0.00" waitingCount="0" stopTime="0.00" timeLoss="15.21" rerouteNo="0" devices="tripinfo_flow_route_19_duration_20250327_1940.3" vType="car" speedFactor="1.05" vaporized=""/>
    <tripinfo id="flow_route_19_duration_20250327_1940.5" depart="13.00" departLane="133126040#0_0" departPos="69.40" departSpeed="0.00" departDelay="0.50" arrival="39.00" arrivalLane="133126031#0_1" arrivalPos="163.80" arrivalSpeed="16.20" duration="26.00" routeLength="223.28" waitingTime="0.00" waitingCount="0" stopTime="0.00" timeLoss="10.80" rerouteNo="0" devices="tripinfo_flow_route_19_duration_20250327_1940.5" vType="car" speedFactor="0.94" vaporized=""/>
    <tripinfo id="flow_route_19_duration_20250327_1940.6" depart="15.00" departLane="133126040#0_0" departPos="33.95" departSpeed="0.00" departDelay="0.00" arrival="42.00" arrivalLane="133126031#0_1" arrivalPos="22.27" arrivalSpeed="9.39" duration="27.00" routeLength="117.19" waitingTime="0.00" waitingCount="0" stopTime="0.00" timeLoss="18.78" rerouteNo="0" devices="tripinfo_flow_route_19_duration_20250327_1940.6" vType="car" speedFactor="1.01" vaporized=""/>
    <tripinfo id="flow_route_0_duration_20250327_1940.2" depart="13.00" departLane="1318793176#1_0" departPos="1.80" departSpeed="0.00" departDelay="5.94" arrival="47.00" arrivalLane="133126031#0_0" arrivalPos="227.82" arrivalSpeed="16.19" duration="34.00" routeLength="346.44" waitingTime="0.00" waitingCount="0" stopTime="0.00" timeLoss="12.15" rerouteNo="0" devices="tripinfo_flow_route_0_duration_20250327_1940.2" vType="car" speedFactor="1.03" vaporized=""/>
    <tripinfo id="flow_route_0_duration_20250327_1940.3" depart="19.00" departLane="1318793176#1_0" departPos="2.27" departSpeed="0.00" departDelay="8.41" arrival="51.00" arrivalLane="133126031#0_0" arrivalPos="222.19" arrivalSpeed="16.19" duration="32.00" routeLength="340.34" waitingTime="0.00" waitingCount="0" stopTime="0.00" timeLoss="10.41" rerouteNo="0" devices="tripinfo_flow_route_0_duration_20250327_1940.3" vType="car" speedFactor="0.93" vaporized=""/>
    <tripinfo id="flow_route_19_duration_20250327_1940.8" depart="20.00" departLane="133126040#0_0" departPos="63.28" departSpeed="0.00" departDelay="0.00" arrival="52.00" arrivalLane="133126031#0_1" arrivalPos="204.56" arrivalSpeed="16.30" duration="32.00" routeLength="270.15" waitingTime="0.00" waitingCount="0" stopTime="0.00" timeLoss="13.68" rerouteNo="0" devices="tripinfo_flow_route_19_duration_20250327_1940.8" vType="car" speedFactor="0.87" vaporized=""/>
    <tripinfo id="flow_route_48_duration_20250327_1940.0" depart="2.00" departLane="380351865#0_0" departPos="1.03" departSpeed="0.00" departDelay="2.00" arrival="53.00" arrivalLane="133126031#0_0" arrivalPos="14.50" arrivalSpeed="8.49" duration="51.00" routeLength="180.64" waitingTime="17.00" waitingCount="1" stopTime="0.00" timeLoss="32.92" rerouteNo="0" devices="tripinfo_flow_route_48_duration_20250327_1940.0" vType="car" speedFactor="0.83" vaporized=""/>
    <tripinfo id="flow_route_0_duration_20250327_1940.4" depart="25.00" departLane="1318793176#1_0" departPos="4.39" departSpeed="0.00" departDelay="10.88" arrival="55.00" arrivalLane="133126031#0_0" arrivalPos="181.83" arrivalSpeed="16.54" duration="30.00" routeLength="297.86" waitingTime="0.00" waitingCount="0" stopTime="0.00" timeLoss="11.24" rerouteNo="0" devices="tripinfo_flow_route_0_duration_20250327_1940.4" vType="car" speedFactor="1.16" vaporized=""/>
    <tripinfo id="flow_route_0_duration_20250327_1940.5" depart="34.00" departLane="1318793176#1_0" departPos="8.77" departSpeed="0.00" departDelay="16.36" arrival="55.00" arrivalLane="133126031#0_0" arrivalPos="15.58" arrivalSpeed="9.13" duration="21.00" routeLength="127.23" waitingTime="0.00" waitingCount="0" stopTime="0.00" timeLoss="11.55" rerouteNo="0" devices="tripinfo_flow_route_0_duration_20250327_1940.5" vType="car" speedFactor="0.89" vaporized=""/>
    <tripinfo id="flow_route_47_duration_20250327_1940.0" depart="0.00" departLane="380351865#0_0" departPos="11.49" departSpeed="0.00" departDelay="0.00" arrival="57.00" arrivalLane="1318793173#0_1" arrivalPos="63.76" arrivalSpeed="12.64" duration="57.00" routeLength="213.71" waitingTime="22.00" waitingCount="1" stopTime="0.00" timeLoss="39.79" rerouteNo="0" devices="tripinfo_flow_route_47_duration_20250327_1940.0" vType="car" speedFactor="1.03" vaporized=""/>
    <tripinfo id="flow_route_48_duration_20250327_1940.2" depart="14.00" departLane="380351865#0_0" departPos="2.59" departSpeed="0.00" departDelay="6.00" arrival="59.00" arrivalLane="133126031#0_0" arrivalPos="43.02" arrivalSpeed="11.47" duration="45.00" routeLength="207.60" waitingTime="8.00" waitingCount="1" stopTime="0.00" timeLoss="29.82" rerouteNo="0" devices="tripinfo_flow_route_48_duration_20250327_1940.2" vType="car" speedFactor="1.12" vaporized=""/>
    <tripinfo id="flow_route_47_duration_20250327_1940.1" depart="21.00" departLane="380351865#0_0" departPos="7.12" departSpeed="0.00" departDelay="9.00" arrival="62.00" arrivalLane="1318793173#0_1" arrivalPos="74.74" arrivalSpeed="12.68" duration="41.00" routeLength="229.06" waitingTime="2.00" waitingCount="1" stopTime="0.00" timeLoss="20.75" rerouteNo="0" devices="tripinfo_flow_route_47_duration_20250327_1940.1" vType="car" speedFactor="0.88" vaporized=""/>
    <tripinfo id="flow_route_49_duration_20250327_1940.0" depart="7.00" departLane="380351865#0_0" departPos="2.72" departSpeed="0.00" departDelay="7.00" arrival="63.00" arrivalLane="1318893695#0_0" arrivalPos="148.83" arrivalSpeed="15.14" duration="56.00" routeLength="289.99" waitingTime="16.00" waitingCount="1" stopTime="0.00" timeLoss="34.30" rerouteNo="0" devices="tripinfo_flow_route_49_duration_20250327_1940.0" vType="car" speedFactor="1.05" vaporized=""/>
    <tripinfo id="flow_route_47_duration_20250327_1940.2" depart="41.00" departLane="380351865#0_0" departPos="14.40" departSpeed="0.00" departDelay="17.00" arrival="65.00" arrivalLane="1318793173#0_1" arrivalPos="45.94" arrivalSpeed="15.08" duration="24.00" routeLength="192.98" waitingTime="0.00" waitingCount="0" stopTime="0.00" timeLoss="7.22" rerouteNo="0" devices="tripinfo_flow_route_47_duration_20250327_1940.2" vType="car" speedFactor="0.93" vaporized=""/>
    <tripinfo id="flow_route_48_duration_20250327_1940.4" depart="28.00" departLane="380351865#0_0" departPos="2.41" departSpeed="0.00" departDelay="12.00" arrival="67.00" arrivalLane="133126031#0_1" arrivalPos="112.74" arrivalSpeed="15.66" duration="39.00" routeLength="277.50" waitingTime="1.00" waitingCount="1" stopTime="0.00" timeLoss="17.53" rerouteNo="0" devices="tripinfo_flow_route_48_duration_20250327_1940.4" vType="car" speedFactor="0.97" vaporized=""/>
    <tripinfo id="flow_route_0_duration_20250327_1940.6" depart="37.00" departLane="1318793176#1_0" departPos="0.01" departSpeed="0.00" departDelay="15.83" arrival="67.00" arrivalLane="133126031#0_0" arrivalPos="7.93" arrivalSpeed="6.59" duration="30.00" routeLength="128.34" waitingTime="3.00" waitingCount="1" stopTime="0.00" timeLoss="21.22" rerouteNo="0" devices="tripinfo_flow_route_0_duration_20250327_1940.6" vType="car" speedFactor="0.95" vaporized=""/>
    <tripinfo id="flow_route_48_duration_20250327_1940.1" depart="13.00" departLane="380351865#0_0" departPos="9.90" departSpeed="0.00" departDelay="9.00" arrival="69.00" arrivalLane="133126031#0_1" arrivalPos="210.66" arrivalSpeed="16.34" duration="56.00" routeLength="367.93" waitingTime="9.00" waitingCount="1" stopTime="0.00" timeLoss="27.77" rerouteNo="0" devices="tripinfo_flow_route_48_duration_20250327_1940.1" vType="car" speedFactor="0.86" vaporized=""/>
    <tripinfo id="flow_route_48_duration_20250327_1940.5" depart="33.00" departLane="380351865#0_0" departPos="1.76" departSpeed="0.00" departDelay="13.00" arrival="69.00" arrivalLane="133126031#0_0" arrivalPos="129.61" arrivalSpeed="16.45" duration="36.00" routeLength="295.03" waitingTime="0.00" waitingCount="0" stopTime="0.00" timeLoss="12.60" rerouteNo="0" devices="tripinfo_flow_route_48_duration_20250327_1940.5" vType="car" speedFactor="0.92" vaporized=""/>
    <tripinfo id="flow_route_1_duration_20250327_1940.0" depart="5.00" departLane="1318793176#1_0" departPos="4.24" departSpeed="0.00" departDelay="5.00" arrival="78.00" arrivalLane="1318793173#0_1" arrivalPos="77.00" arrivalSpeed="12.54" duration="73.00" routeLength="196.66" waitingTime="39.00" waitingCount="1" stopTime="0.00" timeLoss="60.25" rerouteNo="0" devices="tripinfo_flow_route_1_duration_20250327_1940.0" vType="car" speedFactor="0.94" vaporized=""/>
    <tripinfo id="flow_route_48_duration_20250327_1940.3" depart="25.00" departLane="380351865#0_0" departPos="5.06" departSpeed="0.00" departDelay="13.00" arrival="78.00" arrivalLane="133126031#0_0" arrivalPos="310.95" arrivalSpeed="16.46" duration="53.00" routeLength="473.06" waitingTime="1.00" waitingCount="1" stopTime="0.00" timeLoss="19.68" rerouteNo="0" devices="tripinfo_flow_route_48_duration_20250327_1940.3" vType="car" speedFactor="0.94" vaporized=""/>
    <tripinfo id="flow_route_1_duration_20250327_1940.1" depart="29.00" departLane="1318793176#1_0" departPos="0.45" departSpeed="0.00" departDelay="14.00" arrival="80.00" arrivalLane="1318793173#0_2" arrivalPos="100.30" arrivalSpeed="12.98" duration="51.00" routeLength="223.75" waitingTime="15.00" waitingCount="1" stopTime="0.00" timeLoss="37.46" rerouteNo="0" devices="tripinfo_flow_route_1_duration_20250327_1940.1" vType="car" speedFactor="1.02" vaporized=""/>
    <tripinfo id="flow_route_0_duration_20250327_1940.7" depart="42.00" departLane="1318793176#1_0" departPos="3.45" departSpeed="0.00" departDelay="17.30" arrival="83.00" arrivalLane="133126031#0_0" arrivalPos="190.77" arrivalSpeed="16.57" duration="41.00" routeLength="307.73" waitingTime="0.00" waitingCount="0" stopTime="0.00" timeLoss="21.84" rerouteNo="0" devices="tripinfo_flow_route_0_duration_20250327_1940.7" vType="car" speedFactor="1.15" vaporized=""/>
    <tripinfo id="flow_route_1_duration_20250327_1940.2" depart="50.00" departLane="1318793176#1_0" departPos="0.08" departSpeed="0.00" departDelay="20.00" arrival="83.00" arrivalLane="1318793173#0_2" arrivalPos="105.72" arrivalSpeed="14.46" duration="33.00" routeLength="229.54" waitingTime="0.00" waitingCount="0" stopTime="0.00" timeLoss="17.98" rerouteNo="0" devices="tripinfo_flow_route_1_duration_20250327_1940.2" vType="car" speedFactor="0.97" vaporized=""/>
    <tripinfo id="flow_route_0_duration_20250327_1940.11" depart="62.00" departLane="1318793176#1_0" departPos="0.42" departSpeed="0.00" departDelay="23.18" arrival="83.00" arrivalLane="133126031#0_0" arrivalPos="38.02" arrivalSpeed="14.08" duration="21.00" routeLength="158.02" waitingTime="0.00" waitingCount="0" stopTime="0.00" timeLoss="10.31" rerouteNo="0" devices="tripinfo_flow_route_0_duration_20250327_1940.11" vType="car" speedFactor="1.00" vaporized=""/>
    <tripinfo id="flow_route_0_duration_20250327_1940.8" depart="46.00" departLane="1318793176#1_0" departPos="2.55" departSpeed="0.00" departDelay="17.77" arrival="84.00" arrivalLane="133126031#0_0" arrivalPos="159.63" arrivalSpeed="16.37" duration="38.00" routeLength="277.51" waitingTime="0.00" waitingCount="0" stopTime="0.00" timeLoss="20.36" rerouteNo="0" devices="tripinfo_flow_route_0_duration_20250327_1940.8" vType="car" speedFactor="1.02" vaporized=""/>
    <tripinfo id="flow_route_0_duration_20250327_1940.9" depart="54.00" departLane="1318793176#1_0" departPos="5.83" departSpeed="0.00" departDelay="22.24" arrival="88.00" arrivalLane="133126031#0_0" arrivalPos="195.90" arrivalSpeed="16.35" duration="34.00" routeLength="310.49" waitingTime="0.00" waitingCount="0" stopTime="0.00" timeLoss="14.88" rerouteNo="0" devices="tripinfo_flow_route_0_duration_20250327_1940.9" vType="car" speedFactor="1.10" vaporized=""/>
    <tripinfo id="flow_route_0_duration_20250327_1940.12" depart="67.00" departLane="1318793176#1_0" departPos="3.13" departSpeed="0.00" departDelay="24.65" arrival="90.00" arrivalLane="133126031#0_0" arrivalPos="52.41" arrivalSpeed="12.96" duration="23.00" routeLength="169.70" waitingTime="0.00" waitingCount="0" stopTime="0.00" timeLoss="10.78" rerouteNo="0" devices="tripinfo_flow_route_0_duration_20250327_1940.12" vType="car" speedFactor="0.85" vaporized=""/>
    <tripinfo id="flow_route_0_duration_20250327_1940.10" depart="58.00" departLane="1318793176#1_0" departPos="3.90" departSpeed="0.00" departDelay="22.71" arrival="96.00" arrivalLane="133126031#0_1" arrivalPos="300.41" arrivalSpeed="16.34" duration="38.00" routeLength="416.93" waitingTime="0.00" waitingCount="0" stopTime="0.00" timeLoss="11.82" rerouteNo="0" devices="tripinfo_flow_route_0_duration_20250327_1940.10" vType="car" speedFactor="1.09" vaporized=""/>
    <tripinfo id="flow_route_19_duration_20250327_1940.7" depart="18.00" departLane="133126040#0_0" departPos="31.37" departSpeed="0.00" departDelay="0.50" arrival="101.00" arrivalLane="133126031#0_1" arrivalPos="26.60" arrivalSpeed="9.81" duration="83.00" routeLength="124.10" waitingTime="33.00" waitingCount="6" stopTime="0.00" timeLoss="72.58" rerouteNo="0" devices="tripinfo_flow_route_19_duration_20250327_1940.7" vType="car" speedFactor="0.83" vaporized=""/>
    <tripinfo id="flow_route_19_duration_20250327_1940.9" depart="23.00" departLane="133126040#0_0" departPos="53.29" departSpeed="0.00" departDelay="0.50" arrival="102.00" arrivalLane="133126031#0_0" arrivalPos="291.16" arrivalSpeed="16.24" duration="79.00" routeLength="366.74" waitingTime="28.00" waitingCount="3" stopTime="0.00" timeLoss="55.22" rerouteNo="0" devices="tripinfo_flow_route_19_duration_20250327_1940.9" vType="car" speedFactor="1.13" vaporized=""/>
    <tripinfo id="flow_route_0_duration_20250327_1940.14" depart="81.00" departLane="1318793176#1_0" departPos="7.40" departSpeed="0.00" departDelay="31.59" arrival="102.00" arrivalLane="133126031#0_0" arrivalPos="39.72" arrivalSpeed="14.10" duration="21.00" routeLength="152.73" waitingTime="0.00" waitingCount="0" stopTime="0.00" timeLoss="10.95" rerouteNo="0" devices="tripinfo_flow_route_0_duration_20250327_1940.14" vType="car" speedFactor="1.02" vaporized=""/>
    <tripinfo id="flow_route_19_duration_20250327_1940.12" depart="30.00" departLane="133126040#0_0" departPos="37.27" departSpeed="0.00" departDelay="0.00" arrival="103.00" arrivalLane="133126031#0_0" arrivalPos="281.17" arrivalSpeed="16.41" duration="73.00" routeLength="372.77" waitingTime="22.00" waitingCount="2" stopTime="0.00" timeLoss="49.55" rerouteNo="0" devices="tripinfo_flow_route_19_duration_20250327_1940.12" vType="car" speedFactor="1.18" vaporized=""/>
    <tripinfo id="flow_route_19_duration_20250327_1940.13" depart="33.00" departLane="133126040#0_0" departPos="69.34" departSpeed="0.00" departDelay="0.50" arrival="103.00" arrivalLane="133126031#0_1" arrivalPos="197.10" arrivalSpeed="16.58" duration="70.00" routeLength="256.62" waitingTime="26.00" waitingCount="4" stopTime="0.00" timeLoss="52.63" rerouteNo="0" devices="tripinfo_flow_route_19_duration_20250327_1940.13" vType="car" speedFactor="1.03" vaporized=""/>
    <tripinfo id="flow_route_19_duration_20250327_1940.14" depart="36.00" departLane="133126040#0_0" departPos="36.65" departSpeed="0.00" departDelay="1.00" arrival="104.00" arrivalLane="133126031#0_1" arrivalPos="4.86" arrivalSpeed="7.26" duration="68.00" routeLength="97.08" waitingTime="32.00" waitingCount="1" stopTime="0.00" timeLoss="60.40" rerouteNo="0" devices="tripinfo_flow_route_19_duration_20250327_1940.14" vType="car" speedFactor="0.96" vaporized=""/>
    <tripinfo id="flow_route_0_duration_20250327_1940.13" depart="77.00" departLane="1318793176#1_0" departPos="6.94" departSpeed="0.00" departDelay="31.12" arrival="105.00" arrivalLane="133126031#0_0" arrivalPos="154.91" arrivalSpeed="16.24" duration="28.00" routeLength="268.39" waitingTime="0.00" waitingCount="0" stopTime="0.00" timeLoss="10.79" rerouteNo="0" devices="tripinfo_flow_route_0_duration_20250327_1940.13" vType="car" speedFactor="1.00" vaporized=""/>
    <tripinfo id="flow_route_19_duration_20250327_1940.20" depart="50.00" departLane="133126040#0_0" departPos="85.75" departSpeed="0.00" departDelay="0.00" arrival="106.00" arrivalLane="133126031#0_1" arrivalPos="151.55" arrivalSpeed="16.33" duration="56.00" routeLength="194.66" waitingTime="29.00" waitingCount="1" stopTime="0.00" timeLoss="42.45" rerouteNo="0" devices="tripinfo_flow_route_19_duration_20250327_1940.20" vType="car" speedFactor="0.97" vaporized=""/>
    <tripinfo id="flow_route_0_duration_20250327_1940.15" depart="87.00" departLane="1318793176#1_0" departPos="3.43" departSpeed="0.00" departDelay="34.07" arrival="107.00" arrivalLane="133126031#0_0" arrivalPos="36.47" arrivalSpeed="15.28" duration="20.00" routeLength="153.46" waitingTime="0.00" waitingCount="0" stopTime="0.00" timeLoss="9.51" rerouteNo="0" devices="tripinfo_flow_route_0_duration_20250327_1940.15" vType="car" speedFactor="1.12" vaporized=""/>
    <tripinfo id="flow_route_19_duration_20250327_1940.18" depart="45.00" departLane="133126040#0_0" departPos="92.02" departSpeed="0.00" departDelay="0.00" arrival="108.00" arrivalLane="133126031#0_0" arrivalPos="305.80" arrivalSpeed="16.23" duration="63.00" routeLength="342.65" waitingTime="24.00" waitingCount="4" stopTime="0.00" timeLoss="40.63" rerouteNo="0" devices="tripinfo_flow_route_19_duration_20250327_1940.18" vType="car" speedFactor="1.10" vaporized=""/>
    <tripinfo id="flow_route_19_duration_20250327_1940.16" depart="42.00" departLane="133126040#0_0" departPos="86.72" departSpeed="0.00" departDelay="2.00" arrival="115.00" arrivalLane="133126031#0_0" arrivalPos="331.47" arrivalSpeed="16.31" duration="73.00" routeLength="373.62" waitingTime="34.00" waitingCount="1" stopTime="0.00" timeLoss="48.39" rerouteNo="0" devices="tripinfo_flow_route_19_duration_20250327_1940.16" vType="car" speedFactor="0.90" vaporized=""/>
    <tripinfo id="flow_route_48_duration_20250327_1940.7" depart="46.00" departLane="380351865#0_0" departPos="3.25" departSpeed="0.00" departDelay="18.00" arrival="118.00" arrivalLane="133126031#0_1" arrivalPos="41.34" arrivalSpeed="10.56" duration="72.00" routeLength="205.25" waitingTime="38.00" waitingCount="1" stopTime="0.00" timeLoss="55.49" rerouteNo="0" devices="tripinfo_flow_route_48_duration_20250327_1940.7" vType="car" speedFactor="0.99" vaporized=""/>
    <tripinfo id="flow_route_47_duration_20250327_1940.3" depart="55.00" departLane="380351865#0_0" departPos="3.94" departSpeed="0.00" departDelay="19.00" arrival="118.00" arrivalLane="1318793173#0_1" arrivalPos="18.10" arrivalSpeed="9.12" duration="63.00" routeLength="175.60" waitingTime="30.00" waitingCount="1" stopTime="0.00" timeLoss="48.24" rerouteNo="0" devices="tripinfo_flow_route_47_duration_20250327_1940.3" vType="car" speedFactor="1.04" vaporized=""/>
    <tripinfo id="flow_route_19_duration_20250327_1940.19" depart="48.00" departLane="133126040#0_0" departPos="81.07" departSpeed="0.00" departDelay="0.50" arrival="120.00" arrivalLane="133126031#0_1" arrivalPos="263.71" arrivalSpeed="16.20" duration="72.00" routeLength="311.51" waitingTime="34.00" waitingCount="2" stopTime="0.00" timeLoss="51.75" rerouteNo="0" devices="tripinfo_flow_route_19_duration_20250327_1940.19" vType="car" speedFactor="1.00" vaporized=""/>
    <tripinfo id="flow_route_48_duration_20250327_1940.12" depart="75.00" departLane="380351865#0_0" departPos="6.77" departSpeed="0.00" departDelay="27.00" arrival="123.00" arrivalLane="133126031#0_0" arrivalPos="28.13" arrivalSpeed="10.57" duration="48.00" routeLength="188.53" waitingTime="13.00" waitingCount="1" stopTime="0.00" timeLoss="34.09" rerouteNo="0" devices="tripinfo_flow_route_48_duration_20250327_1940.12" vType="car" speedFactor="1.14" vaporized=""/>
    <tripinfo id="flow_route_47_duration_20250327_1940.4" depart="73.00" departLane="380351865#0_0" departPos="12.64" departSpeed="0.00" departDelay="25.00" arrival="124.00" arrivalLane="1318793173#0_1" arrivalPos="43.59" arrivalSpeed="11.96" duration="51.00" routeLength="192.39" waitingTime="17.00" waitingCount="1" stopTime="0.00" timeLoss="33.56" rerouteNo="0" devices="tripinfo_flow_route_47_duration_20250327_1940.4" vType="car" speedFactor="0.90" vaporized=""/>
    <tripinfo id="flow_route_48_duration_20250327_1940.8" depart="50.00" departLane="380351865#0_0" departPos="1.45" departSpeed="0.00" departDelay="18.00" arrival="125.00" arrivalLane="133126031#0_0" arrivalPos="92.21" arrivalSpeed="13.29" duration="75.00" routeLength="257.93" waitingTime="34.00" waitingCount="1" stopTime="0.00" timeLoss="53.72" rerouteNo="0" devices="tripinfo_flow_route_48_duration_20250327_1940.8" vType="car" speedFactor="0.90" vaporized=""/>
    <tripinfo id="flow_route_48_duration_20250327_1940.11" depart="71.00" departLane="380351865#0_0" departPos="0.83" departSpeed="0.00" departDelay="27.00" arrival="126.00" arrivalLane="133126031#0_1" arrivalPos="32.49" arrivalSpeed="12.00" duration="55.00" routeLength="198.83" waitingTime="16.00" waitingCount="1" stopTime="0.00" timeLoss="40.37" rerouteNo="0" devices="tripinfo_flow_route_48_duration_20250327_1940.11" vType="car" speedFactor="1.17" vaporized=""/>
    <tripinfo id="flow_route_48_duration_20250327_1940.9" depart="59.00" departLane="380351865#0_0" departPos="0.84" departSpeed="0.00" departDelay="23.00" arrival="128.00" arrivalLane="133126031#0_0" arrivalPos="115.01" arrivalSpeed="14.46" duration="69.00" routeLength="281.34" waitingTime="28.00" waitingCount="1" stopTime="0.00" timeLoss="48.58" rerouteNo="0" devices="tripinfo_flow_route_48_duration_20250327_1940.9" vType="car" speedFactor="1.04" vaporized=""/>
    <tripinfo id="flow_route_48_duration_20250327_1940.13" depart="83.00" departLane="380351865#0_0" departPos="13.49" departSpeed="0.00" departDelay="31.00" arrival="128.00" arrivalLane="133126031#0_0" arrivalPos="63.38" arrivalSpeed="14.21" duration="45.00" routeLength="217.07" waitingTime="9.00" waitingCount="1" stopTime="0.00" timeLoss="28.70" rerouteNo="0" devices="tripinfo_flow_route_48_duration_20250327_1940.13" vType="car" speedFactor="1.08" vaporized=""/>
    <tripinfo id="flow_route_48_duration_20250327_1940.10" depart="66.00" departLane="380351865#0_0" departPos="6.57" departSpeed="0.00" departDelay="26.00" arrival="131.00" arrivalLane="133126031#0_1" arrivalPos="162.10" arrivalSpeed="16.25" duration="65.00" routeLength="322.70" waitingTime="20.00" waitingCount="1" stopTime="0.00" timeLoss="39.61" rerouteNo="0" devices="tripinfo_flow_route_48_duration_20250327_1940.10" vType="car" speedFactor="0.88" vaporized=""/>
    <tripinfo id="flow_route_48_duration_20250327_1940.14" depart="83.00" departLane="380351865#0_0" departPos="0.28" departSpeed="0.00" departDelay="27.00" arrival="131.00" arrivalLane="133126031#0_0" arrivalPos="87.89" arrivalSpeed="15.05" duration="48.00" routeLength="254.78" waitingTime="7.00" waitingCount="1" stopTime="0.00" timeLoss="27.49" rerouteNo="0" devices="tripinfo_flow_route_48_duration_20250327_1940.14" vType="car" speedFactor="0.94" vaporized=""/>
    <tripinfo id="flow_route_48_duration_20250327_1940.6" depart="41.00" departLane="380351865#0_0" departPos="5.68" departSpeed="0.00" departDelay="17.00" arrival="133.00" arrivalLane="133126031#0_0" arrivalPos="236.36" arrivalSpeed="16.56" duration="92.00" routeLength="397.85" waitingTime="43.00" waitingCount="1" stopTime="0.00" timeLoss="65.14" rerouteNo="0" devices="tripinfo_flow_route_48_duration_20250327_1940.6" vType="car" speedFactor="1.18" vaporized=""/>
    <tripinfo id="flow_route_1_duration_20250327_1940.3" depart="72.00" departLane="1318793176#1_0" departPos="0.12" departSpeed="0.00" departDelay="27.00" arrival="136.00" arrivalLane="1318793173#0_1" arrivalPos="21.11" arrivalSpeed="7.88" duration="64.00" routeLength="144.89" waitingTime="36.00" waitingCount="1" stopTime="0.00" timeLoss="55.02" rerouteNo="0" devices="tripinfo_flow_route_1_duration_20250327_1940.3" vType="car" speedFactor="1.02" vaporized=""/>
    <tripinfo id="flow_route_19_duration_20250327_1940.15" depart="42.00" departLane="133126040#0_0" departPos="39.64" departSpeed="0.00" departDelay="4.50" arrival="140.00" arrivalLane="133126031#0_1" arrivalPos="3.88" arrivalSpeed="5.51" duration="98.00" routeLength="93.11" waitingTime="63.00" waitingCount="5" stopTime="0.00" timeLoss="91.35" rerouteNo="0" devices="tripinfo_flow_route_19_duration_20250327_1940.15" vType="car" speedFactor="1.09" vaporized=""/>
    <tripinfo id="flow_route_0_duration_20250327_1940.16" depart="90.00" departLane="1318793176#1_0" departPos="0.08" departSpeed="0.00" departDelay="33.54" arrival="150.00" arrivalLane="133126031#0_0" arrivalPos="253.07" arrivalSpeed="16.28" duration="60.00" routeLength="373.41" waitingTime="14.00" waitingCount="1" stopTime="0.00" timeLoss="35.83" rerouteNo="0" devices="tripinfo_flow_route_0_duration_20250327_1940.16" vType="car" speedFactor="0.88" vaporized=""/>
    <tripinfo id="flow_route_19_duration_20250327_1940.22" depart="55.00" departLane="133126040#0_0" departPos="37.50" departSpeed="0.00" departDelay="0.00" arrival="155.00" arrivalLane="133126031#0_1" arrivalPos="73.80" arrivalSpeed="13.37" duration="100.00" routeLength="165.17" waitingTime="53.00" waitingCount="3" stopTime="0.00" timeLoss="88.05" rerouteNo="0" devices="tripinfo_flow_route_19_duration_20250327_1940.22" vType="car" speedFactor="0.99" vaporized=""/>
    <tripinfo id="flow_route_19_duration_20250327_1940.2" depart="5.00" departLane="133126040#0_0" departPos="3.51" departSpeed="0.00" departDelay="0.00" arrival="164.00" arrivalLane="133126031#0_0" arrivalPos="295.18" arrivalSpeed="16.22" duration="159.00" routeLength="420.54" waitingTime="64.00" waitingCount="5" stopTime="0.00" timeLoss="132.41" rerouteNo="0" devices="tripinfo_flow_route_19_duration_20250327_1940.2" vType="car" speedFactor="1.09" vaporized=""/>
    <tripinfo id="flow_route_19_duration_20250327_1940.4" depart="10.00" departLane="133126040#0_0" departPos="9.63" departSpeed="0.00" departDelay="0.00" arrival="165.00" arrivalLane="133126031#0_1" arrivalPos="190.09" arrivalSpeed="16.31" duration="155.00" routeLength="309.33" waitingTime="67.00" waitingCount="6" stopTime="0.00" timeLoss="134.64" rerouteNo="0" devices="tripinfo_flow_route_19_duration_20250327_1940.4" vType="car" speedFactor="0.99" vaporized=""/>