<?xml version="1.0" encoding="UTF-8"?>

<!-- generated on 2025-05-06 21:08:44 by Eclipse SUMO sumo Version 1.20.0
<configuration xmlns:xsi="http://www.w3.org/2001/XMLSchema-instance" xsi:noNamespaceSchemaLocation="http://sumo.dlr.de/xsd/sumoConfiguration.xsd">

    <input>
        <net-file value="osm.net.xml"/>
        <route-files value="xml/route_rl_cluster_11648745684_256036885_3839031483_6.rou.xml"/>
    </input>

    <output>
        <tripinfo-output value="xml/tripinfo_rl_cluster_11648745684_256036885_3839031483_6.xml"/>
    </output>

    <traci_server>
        <remote-port value="49541"/>
    </traci_server>

</configuration>
-->

<tripinfos xmlns:xsi="http://www.w3.org/2001/XMLSchema-instance" xsi:noNamespaceSchemaLocation="http://sumo.dlr.de/xsd/tripinfo_file.xsd">
    <tripinfo id="flow_route_72_duration_20250327_1910.1" depart="2.00" departLane="1369578052#0_0" departPos="173.09" departSpeed="0.00" departDelay="0.00" arrival="16.00" arrivalLane="133342692#0_0" arrivalPos="52.65" arrivalSpeed="10.76" duration="14.00" routeLength="79.63" waitingTime="0.00" waitingCount="0" stopTime="0.00" timeLoss="8.36" rerouteNo="0" devices="tripinfo_flow_route_72_duration_20250327_1910.1" vType="car" speedFactor="1.03" vaporized=""/>
    <tripinfo id="flow_route_72_duration_20250327_1910.0" depart="0.00" departLane="1369578052#0_0" departPos="161.40" departSpeed="0.00" departDelay="0.00" arrival="17.00" arrivalLane="133342692#0_0" arrivalPos="42.43" arrivalSpeed="10.90" duration="17.00" routeLength="81.12" waitingTime="0.00" waitingCount="0" stopTime="0.00" timeLoss="10.17" rerouteNo="0" devices="tripinfo_flow_route_72_duration_20250327_1910.0" vType="car" speedFactor="0.89" vaporized=""/>
    <tripinfo id="flow_route_70_duration_20250327_1910.2" depart="6.00" departLane="1253209803#0_0" departPos="296.83" departSpeed="0.00" departDelay="0.00" arrival="20.00" arrivalLane="133342692#0_2" arrivalPos="15.26" arrivalSpeed="10.18" duration="14.00" routeLength="66.10" waitingTime="0.00" waitingCount="0" stopTime="0.00" timeLoss="8.56" rerouteNo="0" devices="tripinfo_flow_route_70_duration_20250327_1910.2" vType="car" speedFactor="0.97" vaporized=""/>
    <tripinfo id="flow_route_68_duration_20250327_1910.4" depart="11.00" departLane="1253209803#0_0" departPos="310.09" departSpeed="0.00" departDelay="2.73" arrival="25.00" arrivalLane="-138002002#2_0" arrivalPos="38.16" arrivalSpeed="11.59" duration="14.00" routeLength="79.39" waitingTime="0.00" waitingCount="0" stopTime="0.00" timeLoss="8.69" rerouteNo="0" devices="tripinfo_flow_route_68_duration_20250327_1910.4" vType="car" speedFactor="1.17" vaporized=""/>
    <tripinfo id="flow_route_68_duration_20250327_1910.0" depart="0.00" departLane="1253209803#0_0" departPos="143.52" departSpeed="0.00" departDelay="0.00" arrival="30.00" arrivalLane="-138002002#2_1" arrivalPos="90.53" arrivalSpeed="16.28" duration="30.00" routeLength="298.33" waitingTime="0.00" waitingCount="0" stopTime="0.00" timeLoss="12.00" rerouteNo="0" devices="tripinfo_flow_route_68_duration_20250327_1910.0" vType="car" speedFactor="1.08" vaporized=""/>
    <tripinfo id="flow_route_68_duration_20250327_1910.2" depart="5.00" departLane="1253209803#0_0" departPos="257.67" departSpeed="0.00" departDelay="0.86" arrival="32.00" arrivalLane="-138002002#2_1" arrivalPos="177.68" arrivalSpeed="16.59" duration="27.00" routeLength="271.32" waitingTime="0.00" waitingCount="0" stopTime="0.00" timeLoss="10.52" rerouteNo="0" devices="tripinfo_flow_route_68_duration_20250327_1910.2" vType="car" speedFactor="1.01" vaporized=""/>
    <tripinfo id="flow_route_69_duration_20250327_1910.0" depart="0.00" departLane="1253209803#0_0" departPos="179.76" departSpeed="0.00" departDelay="0.00" arrival="33.00" arrivalLane="380585337#0_0" arrivalPos="14.31" arrivalSpeed="16.26" duration="33.00" routeLength="299.43" waitingTime="0.00" waitingCount="0" stopTime="0.00" timeLoss="14.43" rerouteNo="0" devices="tripinfo_flow_route_69_duration_20250327_1910.0" vType="car" speedFactor="1.03" vaporized=""/>
    <tripinfo id="flow_route_72_duration_20250327_1910.5" depart="10.00" departLane="1369578052#0_0" departPos="71.84" departSpeed="0.00" departDelay="0.00" arrival="33.00" arrivalLane="133342692#0_0" arrivalPos="36.41" arrivalSpeed="12.19" duration="23.00" routeLength="164.65" waitingTime="0.00" waitingCount="0" stopTime="0.00" timeLoss="12.09" rerouteNo="0" devices="tripinfo_flow_route_72_duration_20250327_1910.5" vType="car" speedFactor="1.18" vaporized=""/>
    <tripinfo id="flow_route_71_duration_20250327_1910.1" depart="5.00" departLane="1369578052#0_0" departPos="41.13" departSpeed="0.00" departDelay="1.25" arrival="35.00" arrivalLane="138002016#0_1" arrivalPos="50.65" arrivalSpeed="14.50" duration="30.00" routeLength="227.20" waitingTime="0.00" waitingCount="0" stopTime="0.00" timeLoss="14.12" rerouteNo="0" devices="tripinfo_flow_route_71_duration_20250327_1910.1" vType="car" speedFactor="0.88" vaporized=""/>
    <tripinfo id="flow_route_72_duration_20250327_1910.6" depart="12.00" departLane="1369578052#0_0" departPos="179.07" departSpeed="0.00" departDelay="0.00" arrival="35.00" arrivalLane="133342692#0_0" arrivalPos="158.58" arrivalSpeed="16.21" duration="23.00" routeLength="179.58" waitingTime="0.00" waitingCount="0" stopTime="0.00" timeLoss="10.63" rerouteNo="0" devices="tripinfo_flow_route_72_duration_20250327_1910.6" vType="car" speedFactor="1.04" vaporized=""/>
    <tripinfo id="flow_route_72_duration_20250327_1910.2" depart="6.00" departLane="1369578052#0_0" departPos="127.48" departSpeed="0.00" departDelay="2.00" arrival="37.00" arrivalLane="133342692#0_0" arrivalPos="164.01" arrivalSpeed="15.28" duration="31.00" routeLength="236.60" waitingTime="0.00" waitingCount="0" stopTime="0.00" timeLoss="13.95" rerouteNo="0" devices="tripinfo_flow_route_72_duration_20250327_1910.2" vType="car" speedFactor="0.94" vaporized=""/>
    <tripinfo id="flow_route_71_duration_20250327_1910.0" depart="0.00" departLane="1369578052#0_0" departPos="11.11" departSpeed="0.00" departDelay="0.00" arrival="38.00" arrivalLane="138002016#0_1" arrivalPos="236.62" arrivalSpeed="16.36" duration="38.00" routeLength="443.19" waitingTime="0.00" waitingCount="0" stopTime="0.00" timeLoss="11.16" rerouteNo="0" devices="tripinfo_flow_route_71_duration_20250327_1910.0" vType="car" speedFactor="1.05" vaporized=""/>
    <tripinfo id="flow_route_72_duration_20250327_1910.7" depart="17.00" departLane="1369578052#0_0" departPos="163.54" departSpeed="0.00" departDelay="3.00" arrival="38.00" arrivalLane="133342692#0_0" arrivalPos="122.29" arrivalSpeed="14.00" duration="21.00" routeLength="158.83" waitingTime="0.00" waitingCount="0" stopTime="0.00" timeLoss="8.50" rerouteNo="0" devices="tripinfo_flow_route_72_duration_20250327_1910.7" vType="car" speedFactor="0.85" vaporized=""/>
    <tripinfo id="flow_route_68_duration_20250327_1910.7" depart="16.00" departLane="1253209803#0_0" departPos="182.01" departSpeed="0.00" departDelay="1.52" arrival="38.00" arrivalLane="-138002002#2_1" arrivalPos="7.85" arrivalSpeed="16.59" duration="22.00" routeLength="177.16" waitingTime="0.00" waitingCount="0" stopTime="0.00" timeLoss="10.65" rerouteNo="0" devices="tripinfo_flow_route_68_duration_20250327_1910.7" vType="car" speedFactor="1.17" vaporized=""/>
    <tripinfo id="flow_route_68_duration_20250327_1910.6" depart="16.00" departLane="1253209803#0_0" departPos="216.14" departSpeed="0.00" departDelay="3.59" arrival="39.00" arrivalLane="-138002002#2_1" arrivalPos="63.16" arrivalSpeed="14.81" duration="23.00" routeLength="198.35" waitingTime="0.00" waitingCount="0" stopTime="0.00" timeLoss="10.59" rerouteNo="0" devices="tripinfo_flow_route_68_duration_20250327_1910.6" vType="car" speedFactor="0.90" vaporized=""/>
    <tripinfo id="flow_route_70_duration_20250327_1910.0" depart="0.00" departLane="1253209803#0_0" departPos="83.97" departSpeed="0.00" departDelay="0.00" arrival="41.00" arrivalLane="133342692#0_2" arrivalPos="7.48" arrivalSpeed="7.00" duration="41.00" routeLength="271.18" waitingTime="4.00" waitingCount="1" stopTime="0.00" timeLoss="22.50" rerouteNo="0" devices="tripinfo_flow_route_70_duration_20250327_1910.0" vType="car" speedFactor="0.83" vaporized=""/>
    <tripinfo id="flow_route_68_duration_20250327_1910.1" depart="3.00" departLane="1253209803#0_0" departPos="75.15" departSpeed="0.00" departDelay="0.93" arrival="41.00" arrivalLane="-138002002#2_1" arrivalPos="151.85" arrivalSpeed="16.36" duration="38.00" routeLength="428.02" waitingTime="0.00" waitingCount="0" stopTime="0.00" timeLoss="11.83" rerouteNo="0" devices="tripinfo_flow_route_68_duration_20250327_1910.1" vType="car" speedFactor="1.05" vaporized=""/>
    <tripinfo id="flow_route_71_duration_20250327_1910.3" depart="12.00" departLane="1369578052#0_0" departPos="105.74" departSpeed="0.00" departDelay="0.75" arrival="41.00" arrivalLane="138002016#0_1" arrivalPos="199.04" arrivalSpeed="16.56" duration="29.00" routeLength="310.98" waitingTime="0.00" waitingCount="0" stopTime="0.00" timeLoss="10.15" rerouteNo="0" devices="tripinfo_flow_route_71_duration_20250327_1910.3" vType="car" speedFactor="1.09" vaporized=""/>
    <tripinfo id="flow_route_68_duration_20250327_1910.3" depart="7.00" departLane="1253209803#0_0" departPos="8.84" departSpeed="0.00" departDelay="0.80" arrival="42.00" arrivalLane="-138002002#2_1" arrivalPos="31.02" arrivalSpeed="15.49" duration="35.00" routeLength="373.50" waitingTime="0.00" waitingCount="0" stopTime="0.00" timeLoss="12.01" rerouteNo="0" devices="tripinfo_flow_route_68_duration_20250327_1910.3" vType="car" speedFactor="0.95" vaporized=""/>
    <tripinfo id="flow_route_69_duration_20250327_1910.1" depart="18.00" departLane="1253209803#0_0" departPos="291.62" departSpeed="0.00" departDelay="3.00" arrival="42.00" arrivalLane="380585337#0_0" arrivalPos="9.48" arrivalSpeed="16.31" duration="24.00" routeLength="182.74" waitingTime="0.00" waitingCount="0" stopTime="0.00" timeLoss="11.54" rerouteNo="0" devices="tripinfo_flow_route_69_duration_20250327_1910.1" vType="car" speedFactor="1.02" vaporized=""/>
    <tripinfo id="flow_route_68_duration_20250327_1910.9" depart="24.00" departLane="1253209803#0_0" departPos="235.25" departSpeed="0.00" departDelay="5.39" arrival="43.00" arrivalLane="-138002002#2_0" arrivalPos="21.06" arrivalSpeed="14.57" duration="19.00" routeLength="137.13" waitingTime="0.00" waitingCount="0" stopTime="0.00" timeLoss="9.98" rerouteNo="0" devices="tripinfo_flow_route_68_duration_20250327_1910.9" vType="car" speedFactor="0.91" vaporized=""/>
    <tripinfo id="flow_route_72_duration_20250327_1910.3" depart="7.00" departLane="1369578052#0_0" departPos="27.99" departSpeed="0.00" departDelay="1.00" arrival="44.00" arrivalLane="133342692#0_0" arrivalPos="114.55" arrivalSpeed="14.72" duration="37.00" routeLength="286.64" waitingTime="0.00" waitingCount="0" stopTime="0.00" timeLoss="16.32" rerouteNo="0" devices="tripinfo_flow_route_72_duration_20250327_1910.3" vType="car" speedFactor="0.89" vaporized=""/>
    <tripinfo id="flow_route_71_duration_20250327_1910.2" depart="8.00" departLane="1369578052#0_0" departPos="57.85" departSpeed="0.00" departDelay="0.50" arrival="45.00" arrivalLane="138002016#0_0" arrivalPos="174.06" arrivalSpeed="15.47" duration="37.00" routeLength="333.89" waitingTime="0.00" waitingCount="0" stopTime="0.00" timeLoss="14.81" rerouteNo="0" devices="tripinfo_flow_route_71_duration_20250327_1910.2" vType="car" speedFactor="0.93" vaporized=""/>
    <tripinfo id="flow_route_68_duration_20250327_1910.5" depart="12.00" departLane="1253209803#0_0" departPos="225.63" departSpeed="0.00" departDelay="1.66" arrival="46.00" arrivalLane="-138002002#2_0" arrivalPos="152.07" arrivalSpeed="15.00" duration="34.00" routeLength="277.76" waitingTime="0.00" waitingCount="0" stopTime="0.00" timeLoss="15.78" rerouteNo="0" devices="tripinfo_flow_route_68_duration_20250327_1910.5" vType="car" speedFactor="0.90" vaporized=""/>
    <tripinfo id="flow_route_70_duration_20250327_1910.3" depart="11.00" departLane="1253209803#0_0" departPos="7.57" departSpeed="0.00" departDelay="2.00" arrival="51.00" arrivalLane="133342692#0_2" arrivalPos="30.97" arrivalSpeed="10.24" duration="40.00" routeLength="371.07" waitingTime="0.00" waitingCount="0" stopTime="0.00" timeLoss="16.22" rerouteNo="0" devices="tripinfo_flow_route_70_duration_20250327_1910.3" vType="car" speedFactor="0.99" vaporized=""/>
    <tripinfo id="flow_route_68_duration_20250327_1910.8" depart="19.00" departLane="1253209803#0_0" departPos="154.74" departSpeed="0.00" departDelay="2.46" arrival="54.00" arrivalLane="-138002002#2_1" arrivalPos="151.25" arrivalSpeed="16.52" duration="35.00" routeLength="347.84" waitingTime="0.00" waitingCount="0" stopTime="0.00" timeLoss="13.80" rerouteNo="0" devices="tripinfo_flow_route_68_duration_20250327_1910.8" vType="car" speedFactor="1.08" vaporized=""/>
    <tripinfo id="flow_route_70_duration_20250327_1910.1" depart="3.00" departLane="1253209803#0_0" departPos="10.29" departSpeed="0.00" departDelay="0.00" arrival="56.00" arrivalLane="133342692#0_2" arrivalPos="152.18" arrivalSpeed="16.30" duration="53.00" routeLength="489.56" waitingTime="0.00" waitingCount="0" stopTime="0.00" timeLoss="22.05" rerouteNo="0" devices="tripinfo_flow_route_70_duration_20250327_1910.1" vType="car" speedFactor="1.12" vaporized=""/>
    <tripinfo id="flow_route_68_duration_20250327_1910.18" depart="39.00" departLane="1253209803#0_0" departPos="285.92" departSpeed="0.00" departDelay="1.78" arrival="56.00" arrivalLane="-138002002#2_0" arrivalPos="40.61" arrivalSpeed="13.13" duration="17.00" routeLength="106.01" waitingTime="0.00" waitingCount="0" stopTime="0.00" timeLoss="9.96" rerouteNo="0" devices="tripinfo_flow_route_68_duration_20250327_1910.18" vType="car" speedFactor="1.03" vaporized=""/>
    <tripinfo id="flow_route_70_duration_20250327_1910.4" depart="16.00" departLane="1253209803#0_0" departPos="120.46" departSpeed="0.00" departDelay="4.00" arrival="57.00" arrivalLane="133342692#0_2" arrivalPos="150.11" arrivalSpeed="15.90" duration="41.00" routeLength="377.32" waitingTime="0.00" waitingCount="0" stopTime="0.00" timeLoss="16.60" rerouteNo="0" devices="tripinfo_flow_route_70_duration_20250327_1910.4" vType="car" speedFactor="0.96" vaporized=""/>
    <tripinfo id="flow_route_70_duration_20250327_1910.6" depart="20.00" departLane="1253209803#0_0" departPos="102.67" departSpeed="0.00" departDelay="2.00" arrival="57.00" arrivalLane="133342692#0_2" arrivalPos="58.10" arrivalSpeed="12.05" duration="37.00" routeLength="303.10" waitingTime="0.00" waitingCount="0" stopTime="0.00" timeLoss="17.71" rerouteNo="0" devices="tripinfo_flow_route_70_duration_20250327_1910.6" vType="car" speedFactor="0.99" vaporized=""/>
    <tripinfo id="flow_route_68_duration_20250327_1910.14" depart="33.00" departLane="1253209803#0_0" departPos="253.38" departSpeed="0.00" departDelay="4.05" arrival="59.00" arrivalLane="-138002002#2_1" arrivalPos="9.02" arrivalSpeed="9.16" duration="26.00" routeLength="106.97" waitingTime="1.00" waitingCount="1" stopTime="0.00" timeLoss="19.28" rerouteNo="0" devices="tripinfo_flow_route_68_duration_20250327_1910.14" vType="car" speedFactor="1.12" vaporized=""/>
    <tripinfo id="flow_route_70_duration_20250327_1910.12" depart="37.00" departLane="1253209803#0_0" departPos="223.68" departSpeed="0.00" departDelay="1.00" arrival="62.00" arrivalLane="133342692#0_2" arrivalPos="2.81" arrivalSpeed="9.01" duration="25.00" routeLength="126.80" waitingTime="0.00" waitingCount="0" stopTime="0.00" timeLoss="16.41" rerouteNo="0" devices="tripinfo_flow_route_70_duration_20250327_1910.12" vType="car" speedFactor="1.10" vaporized=""/>
    <tripinfo id="flow_route_70_duration_20250327_1910.13" depart="39.00" departLane="1253209803#0_0" departPos="309.38" departSpeed="0.00" departDelay="0.00" arrival="65.00" arrivalLane="133342692#0_2" arrivalPos="87.88" arrivalSpeed="13.47" duration="26.00" routeLength="126.17" waitingTime="4.00" waitingCount="2" stopTime="0.00" timeLoss="17.65" rerouteNo="0" devices="tripinfo_flow_route_70_duration_20250327_1910.13" vType="car" speedFactor="1.07" vaporized=""/>
    <tripinfo id="flow_route_68_duration_20250327_1910.16" depart="36.00" departLane="1253209803#0_0" departPos="271.52" departSpeed="0.00" departDelay="2.91" arrival="66.00" arrivalLane="-138002002#2_0" arrivalPos="170.55" arrivalSpeed="16.24" duration="30.00" routeLength="250.35" waitingTime="0.00" waitingCount="0" stopTime="0.00" timeLoss="14.32" rerouteNo="0" devices="tripinfo_flow_route_68_duration_20250327_1910.16" vType="car" speedFactor="1.10" vaporized=""/>
    <tripinfo id="flow_route_68_duration_20250327_1910.15" depart="33.00" departLane="1253209803#0_0" departPos="148.72" departSpeed="0.00" departDelay="1.98" arrival="67.00" arrivalLane="-138002002#2_0" arrivalPos="39.78" arrivalSpeed="12.96" duration="34.00" routeLength="242.39" waitingTime="0.00" waitingCount="0" stopTime="0.00" timeLoss="19.24" rerouteNo="0" devices="tripinfo_flow_route_68_duration_20250327_1910.15" vType="car" speedFactor="1.03" vaporized=""/>
    <tripinfo id="flow_route_68_duration_20250327_1910.13" depart="27.00" departLane="1253209803#0_0" departPos="141.89" departSpeed="0.00" departDelay="0.12" arrival="70.00" arrivalLane="-138002002#2_1" arrivalPos="106.69" arrivalSpeed="14.85" duration="43.00" routeLength="316.12" waitingTime="0.00" waitingCount="0" stopTime="0.00" timeLoss="22.88" rerouteNo="0" devices="tripinfo_flow_route_68_duration_20250327_1910.13" vType="car" speedFactor="0.89" vaporized=""/>
    <tripinfo id="flow_route_70_duration_20250327_1910.8" depart="27.00" departLane="1253209803#0_0" departPos="110.07" departSpeed="0.00" departDelay="3.00" arrival="72.00" arrivalLane="133342692#0_2" arrivalPos="69.15" arrivalSpeed="13.27" duration="45.00" routeLength="306.75" waitingTime="0.00" waitingCount="0" stopTime="0.00" timeLoss="25.68" rerouteNo="0" devices="tripinfo_flow_route_70_duration_20250327_1910.8" vType="car" speedFactor="1.02" vaporized=""/>
    <tripinfo id="flow_route_68_duration_20250327_1910.12" depart="27.00" departLane="1253209803#0_0" departPos="83.90" departSpeed="0.00" departDelay="2.18" arrival="72.00" arrivalLane="-138002002#2_1" arrivalPos="83.95" arrivalSpeed="14.40" duration="45.00" routeLength="351.37" waitingTime="0.00" waitingCount="0" stopTime="0.00" timeLoss="23.36" rerouteNo="0" devices="tripinfo_flow_route_68_duration_20250327_1910.12" vType="car" speedFactor="0.98" vaporized=""/>
    <tripinfo id="flow_route_70_duration_20250327_1910.14" depart="42.00" departLane="1253209803#0_0" departPos="268.29" departSpeed="0.00" departDelay="0.00" arrival="72.00" arrivalLane="133342692#0_2" arrivalPos="146.78" arrivalSpeed="15.84" duration="30.00" routeLength="226.16" waitingTime="0.00" waitingCount="0" stopTime="0.00" timeLoss="14.36" rerouteNo="0" devices="tripinfo_flow_route_70_duration_20250327_1910.14" vType="car" speedFactor="0.95" vaporized=""/>
    <tripinfo id="flow_route_68_duration_20250327_1910.23" depart="51.00" departLane="1253209803#0_0" departPos="232.82" departSpeed="0.00" departDelay="3.44" arrival="72.00" arrivalLane="-138002002#2_1" arrivalPos="35.06" arrivalSpeed="13.62" duration="21.00" routeLength="153.56" waitingTime="0.00" waitingCount="0" stopTime="0.00" timeLoss="11.38" rerouteNo="0" devices="tripinfo_flow_route_68_duration_20250327_1910.23" vType="car" speedFactor="1.14" vaporized=""/>
    <tripinfo id="flow_route_70_duration_20250327_1910.9" depart="27.00" departLane="1253209803#0_0" departPos="95.98" departSpeed="0.00" departDelay="0.00" arrival="73.00" arrivalLane="133342692#0_2" arrivalPos="39.49" arrivalSpeed="10.74" duration="46.00" routeLength="291.18" waitingTime="0.00" waitingCount="0" stopTime="0.00" timeLoss="26.48" rerouteNo="0" devices="tripinfo_flow_route_70_duration_20250327_1910.9" vType="car" speedFactor="0.83" vaporized=""/>
    <tripinfo id="flow_route_70_duration_20250327_1910.10" depart="33.00" departLane="1253209803#0_0" departPos="183.00" departSpeed="0.00" departDelay="3.00" arrival="73.00" arrivalLane="133342692#0_2" arrivalPos="100.05" arrivalSpeed="15.32" duration="40.00" routeLength="264.72" waitingTime="0.00" waitingCount="0" stopTime="0.00" timeLoss="22.14" rerouteNo="0" devices="tripinfo_flow_route_70_duration_20250327_1910.10" vType="car" speedFactor="0.95" vaporized=""/>
    <tripinfo id="flow_route_68_duration_20250327_1910.10" depart="26.00" departLane="1253209803#0_0" departPos="125.21" departSpeed="0.00" departDelay="5.32" arrival="74.00" arrivalLane="-138002002#2_0" arrivalPos="147.69" arrivalSpeed="15.27" duration="48.00" routeLength="373.79" waitingTime="0.00" waitingCount="0" stopTime="0.00" timeLoss="24.78" rerouteNo="0" devices="tripinfo_flow_route_68_duration_20250327_1910.10" vType="car" speedFactor="0.94" vaporized=""/>
    <tripinfo id="flow_route_70_duration_20250327_1910.7" depart="27.00" departLane="1253209803#0_0" departPos="73.33" departSpeed="0.00" departDelay="6.00" arrival="74.00" arrivalLane="133342692#0_2" arrivalPos="27.02" arrivalSpeed="10.35" duration="47.00" routeLength="301.37" waitingTime="0.00" waitingCount="0" stopTime="0.00" timeLoss="27.91" rerouteNo="0" devices="tripinfo_flow_route_70_duration_20250327_1910.7" vType="car" speedFactor="1.06" vaporized=""/>
    <tripinfo id="flow_route_68_duration_20250327_1910.22" depart="48.00" departLane="1253209803#0_0" departPos="277.07" departSpeed="0.00" departDelay="2.50" arrival="74.00" arrivalLane="-138002002#2_0" arrivalPos="182.74" arrivalSpeed="16.46" duration="26.00" routeLength="256.99" waitingTime="0.00" waitingCount="0" stopTime="0.00" timeLoss="10.42" rerouteNo="0" devices="tripinfo_flow_route_68_duration_20250327_1910.22" vType="car" speedFactor="1.06" vaporized=""/>
    <tripinfo id="flow_route_68_duration_20250327_1910.11" depart="27.00" departLane="1253209803#0_0" departPos="59.68" departSpeed="0.00" departDelay="4.25" arrival="78.00" arrivalLane="-138002002#2_1" arrivalPos="156.72" arrivalSpeed="16.22" duration="51.00" routeLength="448.36" waitingTime="0.00" waitingCount="0" stopTime="0.00" timeLoss="23.98" rerouteNo="0" devices="tripinfo_flow_route_68_duration_20250327_1910.11" vType="car" speedFactor="1.01" vaporized=""/>
    <tripinfo id="flow_route_65_duration_20250327_1910.0" depart="7.00" departLane="133131666#1_0" departPos="4.07" departSpeed="0.00" departDelay="7.00" arrival="80.00" arrivalLane="138002016#0_2" arrivalPos="14.48" arrivalSpeed="7.69" duration="73.00" routeLength="194.87" waitingTime="42.00" waitingCount="1" stopTime="0.00" timeLoss="60.68" rerouteNo="0" devices="tripinfo_flow_route_65_duration_20250327_1910.0" vType="car" speedFactor="1.01" vaporized=""/>
    <tripinfo id="flow_route_68_duration_20250327_1910.27" depart="56.00" departLane="1253209803#0_0" departPos="278.77" departSpeed="0.00" departDelay="0.16" arrival="82.00" arrivalLane="-138002002#2_0" arrivalPos="167.47" arrivalSpeed="14.98" duration="26.00" routeLength="240.03" waitingTime="0.00" waitingCount="0" stopTime="0.00" timeLoss="9.90" rerouteNo="0" devices="tripinfo_flow_route_68_duration_20250327_1910.27" vType="car" speedFactor="0.92" vaporized=""/>
    <tripinfo id="flow_route_63_duration_20250327_1910.1" depart="17.00" departLane="133131666#1_0" departPos="12.19" departSpeed="0.00" departDelay="12.72" arrival="87.00" arrivalLane="133342692#0_1" arrivalPos="70.53" arrivalSpeed="11.79" duration="70.00" routeLength="242.05" waitingTime="33.00" waitingCount="1" stopTime="0.00" timeLoss="54.92" rerouteNo="0" devices="tripinfo_flow_route_63_duration_20250327_1910.1" vType="car" speedFactor="1.02" vaporized=""/>
    <tripinfo id="flow_route_64_duration_20250327_1910.1" depart="11.00" departLane="133131666#1_0" departPos="9.26" departSpeed="0.00" departDelay="7.67" arrival="88.00" arrivalLane="-138002002#2_0" arrivalPos="55.59" arrivalSpeed="10.81" duration="77.00" routeLength="211.88" waitingTime="41.00" waitingCount="1" stopTime="0.00" timeLoss="62.53" rerouteNo="0" devices="tripinfo_flow_route_64_duration_20250327_1910.1" vType="car" speedFactor="0.99" vaporized=""/>
    <tripinfo id="flow_route_63_duration_20250327_1910.3" depart="33.00" departLane="133131666#1_0" departPos="0.25" departSpeed="0.00" departDelay="20.15" arrival="89.00" arrivalLane="133342692#0_1" arrivalPos="50.80" arrivalSpeed="11.44" duration="56.00" routeLength="234.28" waitingTime="17.00" waitingCount="1" stopTime="0.00" timeLoss="41.75" rerouteNo="0" devices="tripinfo_flow_route_63_duration_20250327_1910.3" vType="car" speedFactor="1.09" vaporized=""/>
    <tripinfo id="flow_route_63_duration_20250327_1910.5" depart="59.00" departLane="133131666#1_0" departPos="3.14" departSpeed="0.00" departDelay="37.58" arrival="90.00" arrivalLane="133342692#0_1" arrivalPos="19.66" arrivalSpeed="10.41" duration="31.00" routeLength="200.24" waitingTime="0.00" waitingCount="0" stopTime="0.00" timeLoss="18.16" rerouteNo="0" devices="tripinfo_flow_route_63_duration_20250327_1910.5" vType="car" speedFactor="0.96" vaporized=""/>
    <tripinfo id="flow_route_64_duration_20250327_1910.0" depart="3.00" departLane="133131666#1_0" departPos="8.80" departSpeed="0.00" departDelay="3.00" arrival="91.00" arrivalLane="-138002002#2_0" arrivalPos="131.25" arrivalSpeed="14.37" duration="88.00" routeLength="287.99" waitingTime="48.00" waitingCount="1" stopTime="0.00" timeLoss="68.78" rerouteNo="0" devices="tripinfo_flow_route_64_duration_20250327_1910.0" vType="car" speedFactor="0.94" vaporized=""/>
    <tripinfo id="flow_route_63_duration_20250327_1910.2" depart="27.00" departLane="133131666#1_0" departPos="20.91" departSpeed="0.00" departDelay="18.43" arrival="91.00" arrivalLane="133342692#0_1" arrivalPos="97.24" arrivalSpeed="14.45" duration="64.00" routeLength="260.04" waitingTime="25.00" waitingCount="1" stopTime="0.00" timeLoss="47.55" rerouteNo="0" devices="tripinfo_flow_route_63_duration_20250327_1910.2" vType="car" speedFactor="1.01" vaporized=""/>
    <tripinfo id="flow_route_63_duration_20250327_1910.0" depart="0.00" departLane="133131666#1_0" departPos="14.94" departSpeed="0.00" departDelay="0.00" arrival="93.00" arrivalLane="133342692#0_0" arrivalPos="152.76" arrivalSpeed="15.86" duration="93.00" routeLength="321.54" waitingTime="50.00" waitingCount="1" stopTime="0.00" timeLoss="72.72" rerouteNo="0" devices="tripinfo_flow_route_63_duration_20250327_1910.0" vType="car" speedFactor="1.06" vaporized=""/>
    <tripinfo id="flow_route_64_duration_20250327_1910.4" depart="43.00" departLane="133131666#1_0" departPos="12.66" departSpeed="0.00" departDelay="29.67" arrival="93.00" arrivalLane="-138002002#2_0" arrivalPos="22.90" arrivalSpeed="7.79" duration="50.00" routeLength="175.79" waitingTime="14.00" waitingCount="1" stopTime="0.00" timeLoss="35.87" rerouteNo="0" devices="tripinfo_flow_route_64_duration_20250327_1910.4" vType="car" speedFactor="0.85" vaporized=""/>
    <tripinfo id="flow_route_63_duration_20250327_1910.4" depart="49.00" departLane="133131666#1_0" departPos="20.47" departSpeed="0.00" departDelay="31.86" arrival="93.00" arrivalLane="133342692#0_1" arrivalPos="80.63" arrivalSpeed="14.00" duration="44.00" routeLength="243.88" waitingTime="6.00" waitingCount="1" stopTime="0.00" timeLoss="29.06" rerouteNo="0" devices="tripinfo_flow_route_63_duration_20250327_1910.4" vType="car" speedFactor="1.02" vaporized=""/>
    <tripinfo id="flow_route_64_duration_20250327_1910.2" depart="17.00" departLane="133131666#1_0" departPos="0.32" departSpeed="0.00" departDelay="10.33" arrival="94.00" arrivalLane="-138002002#2_0" arrivalPos="90.74" arrivalSpeed="13.64" duration="77.00" routeLength="255.96" waitingTime="36.00" waitingCount="1" stopTime="0.00" timeLoss="57.40" rerouteNo="0" devices="tripinfo_flow_route_64_duration_20250327_1910.2" vType="car" speedFactor="0.87" vaporized=""/>
    <tripinfo id="flow_route_64_duration_20250327_1910.3" depart="29.00" departLane="133131666#1_0" departPos="0.70" departSpeed="0.00" departDelay="19.00" arrival="94.00" arrivalLane="-138002002#2_0" arrivalPos="64.81" arrivalSpeed="11.49" duration="65.00" routeLength="229.66" waitingTime="27.00" waitingCount="1" stopTime="0.00" timeLoss="49.98" rerouteNo="0" devices="tripinfo_flow_route_64_duration_20250327_1910.3" vType="car" speedFactor="1.02" vaporized=""/>
    <tripinfo id="flow_route_65_duration_20250327_1910.3" depart="30.00" departLane="133131666#1_0" departPos="15.63" departSpeed="0.00" departDelay="20.53" arrival="94.00" arrivalLane="138002016#0_2" arrivalPos="92.33" arrivalSpeed="14.10" duration="64.00" routeLength="261.16" waitingTime="24.00" waitingCount="1" stopTime="0.00" timeLoss="47.15" rerouteNo="0" devices="tripinfo_flow_route_65_duration_20250327_1910.3" vType="car" speedFactor="0.97" vaporized=""/>
    <tripinfo id="flow_route_65_duration_20250327_1910.2" depart="23.00" departLane="133131666#1_0" departPos="5.29" departSpeed="0.00" departDelay="16.69" arrival="97.00" arrivalLane="138002016#0_2" arrivalPos="184.66" arrivalSpeed="15.01" duration="74.00" routeLength="363.83" waitingTime="28.00" waitingCount="1" stopTime="0.00" timeLoss="49.26" rerouteNo="0" devices="tripinfo_flow_route_65_duration_20250327_1910.2" vType="car" speedFactor="0.92" vaporized=""/>
    <tripinfo id="flow_route_63_duration_20250327_1910.6" depart="71.00" departLane="133131666#1_0" departPos="8.44" departSpeed="0.00" departDelay="45.29" arrival="97.00" arrivalLane="133342692#0_1" arrivalPos="73.77" arrivalSpeed="16.28" duration="26.00" routeLength="249.05" waitingTime="0.00" waitingCount="0" stopTime="0.00" timeLoss="10.86" rerouteNo="0" devices="tripinfo_flow_route_63_duration_20250327_1910.6" vType="car" speedFactor="1.00" vaporized=""/>