<?xml version="1.0" encoding="UTF-8"?>

<!-- generated on 2025-05-06 21:07:49 by Eclipse SUMO sumo Version 1.20.0
<configuration xmlns:xsi="http://www.w3.org/2001/XMLSchema-instance" xsi:noNamespaceSchemaLocation="http://sumo.dlr.de/xsd/sumoConfiguration.xsd">

    <input>
        <net-file value="osm.net.xml"/>
        <route-files value="xml/route_rl_GS_cluster_4854142864_4854142865_1.rou.xml"/>
    </input>

    <output>
        <tripinfo-output value="xml/tripinfo_rl_GS_cluster_4854142864_4854142865_1.xml"/>
    </output>

    <traci_server>
        <remote-port value="53973"/>
    </traci_server>

</configuration>
-->

<tripinfos xmlns:xsi="http://www.w3.org/2001/XMLSchema-instance" xsi:noNamespaceSchemaLocation="http://sumo.dlr.de/xsd/tripinfo_file.xsd">
    <tripinfo id="flow_route_39_duration_20250327_2020.0" depart="0.00" departLane="133126030#0_0" departPos="101.03" departSpeed="0.00" departDelay="0.00" arrival="29.00" arrivalLane="1328664748#0_0" arrivalPos="158.52" arrivalSpeed="15.14" duration="29.00" routeLength="263.70" waitingTime="0.00" waitingCount="0" stopTime="0.00" timeLoss="11.27" rerouteNo="0" devices="tripinfo_flow_route_39_duration_20250327_2020.0" vType="car" speedFactor="0.94" vaporized=""/>
    <tripinfo id="flow_route_38_duration_20250327_2020.0" depart="0.00" departLane="133126030#0_0" departPos="45.86" departSpeed="0.00" departDelay="0.00" arrival="34.00" arrivalLane="134193294#0_0" arrivalPos="152.84" arrivalSpeed="16.03" duration="34.00" routeLength="301.86" waitingTime="0.00" waitingCount="0" stopTime="0.00" timeLoss="15.00" rerouteNo="0" devices="tripinfo_flow_route_38_duration_20250327_2020.0" vType="car" speedFactor="1.06" vaporized=""/>
    <tripinfo id="flow_route_43_duration_20250327_2020.1" depart="9.00" departLane="1328664744#0_0" departPos="73.50" departSpeed="0.00" departDelay="0.43" arrival="45.00" arrivalLane="134193294#0_3" arrivalPos="5.12" arrivalSpeed="6.62" duration="36.00" routeLength="171.69" waitingTime="5.00" waitingCount="1" stopTime="0.00" timeLoss="23.26" rerouteNo="0" devices="tripinfo_flow_route_43_duration_20250327_2020.1" vType="car" speedFactor="0.88" vaporized=""/>
    <tripinfo id="flow_route_43_duration_20250327_2020.0" depart="0.00" departLane="1328664744#0_0" departPos="1.34" departSpeed="0.00" departDelay="0.00" arrival="51.00" arrivalLane="134193294#0_3" arrivalPos="84.30" arrivalSpeed="12.90" duration="51.00" routeLength="323.03" waitingTime="9.00" waitingCount="1" stopTime="0.00" timeLoss="30.49" rerouteNo="0" devices="tripinfo_flow_route_43_duration_20250327_2020.0" vType="car" speedFactor="1.08" vaporized=""/>
    <tripinfo id="flow_route_43_duration_20250327_2020.2" depart="18.00" departLane="1328664744#0_0" departPos="69.63" departSpeed="0.00" departDelay="0.86" arrival="56.00" arrivalLane="134193294#0_3" arrivalPos="93.79" arrivalSpeed="14.06" duration="38.00" routeLength="264.23" waitingTime="0.00" waitingCount="0" stopTime="0.00" timeLoss="19.48" rerouteNo="0" devices="tripinfo_flow_route_43_duration_20250327_2020.2" vType="car" speedFactor="0.95" vaporized=""/>
    <tripinfo id="flow_route_43_duration_20250327_2020.3" depart="26.00" departLane="1328664744#0_0" departPos="81.01" departSpeed="0.00" departDelay="0.29" arrival="57.00" arrivalLane="134193294#0_3" arrivalPos="87.97" arrivalSpeed="13.45" duration="31.00" routeLength="247.03" waitingTime="0.00" waitingCount="0" stopTime="0.00" timeLoss="13.53" rerouteNo="0" devices="tripinfo_flow_route_43_duration_20250327_2020.3" vType="car" speedFactor="0.90" vaporized=""/>
    <tripinfo id="flow_route_43_duration_20250327_2020.5" depart="43.00" departLane="1328664744#0_0" departPos="196.83" departSpeed="0.00" departDelay="0.15" arrival="63.00" arrivalLane="134193294#0_3" arrivalPos="109.98" arrivalSpeed="15.13" duration="20.00" routeLength="153.22" waitingTime="0.00" waitingCount="0" stopTime="0.00" timeLoss="9.03" rerouteNo="0" devices="tripinfo_flow_route_43_duration_20250327_2020.5" vType="car" speedFactor="0.99" vaporized=""/>
    <tripinfo id="flow_route_43_duration_20250327_2020.4" depart="35.00" departLane="1328664744#0_0" departPos="31.32" departSpeed="0.00" departDelay="0.72" arrival="66.00" arrivalLane="134193294#0_3" arrivalPos="48.24" arrivalSpeed="11.90" duration="31.00" routeLength="256.99" waitingTime="0.00" waitingCount="0" stopTime="0.00" timeLoss="14.60" rerouteNo="0" devices="tripinfo_flow_route_43_duration_20250327_2020.4" vType="car" speedFactor="1.02" vaporized=""/>
    <tripinfo id="flow_route_44_duration_20250327_2020.2" depart="5.00" departLane="791826085_0" departPos="268.83" departSpeed="0.00" departDelay="1.00" arrival="85.00" arrivalLane="134193294#0_0" arrivalPos="7.92" arrivalSpeed="8.23" duration="80.00" routeLength="93.46" waitingTime="54.00" waitingCount="1" stopTime="0.00" timeLoss="74.04" rerouteNo="0" devices="tripinfo_flow_route_44_duration_20250327_2020.2" vType="car" speedFactor="1.09" vaporized=""/>
    <tripinfo id="flow_route_46_duration_20250327_2020.1" depart="5.00" departLane="791826085_0" departPos="306.25" departSpeed="0.00" departDelay="2.50" arrival="87.00" arrivalLane="1328664748#0_1" arrivalPos="71.63" arrivalSpeed="11.69" duration="82.00" routeLength="114.17" waitingTime="60.00" waitingCount="1" stopTime="0.00" timeLoss="73.12" rerouteNo="0" devices="tripinfo_flow_route_46_duration_20250327_2020.1" vType="car" speedFactor="0.86" vaporized=""/>
    <tripinfo id="flow_route_45_duration_20250327_2020.0" depart="0.00" departLane="791826085_0" departPos="152.03" departSpeed="0.00" departDelay="0.00" arrival="88.00" arrivalLane="485211947#0_0" arrivalPos="8.08" arrivalSpeed="6.78" duration="88.00" routeLength="191.81" waitingTime="50.00" waitingCount="1" stopTime="0.00" timeLoss="72.56" rerouteNo="0" devices="tripinfo_flow_route_45_duration_20250327_2020.0" vType="car" speedFactor="0.83" vaporized=""/>
    <tripinfo id="flow_route_44_duration_20250327_2020.1" depart="2.00" departLane="791826085_0" departPos="19.65" departSpeed="0.00" departDelay="0.00" arrival="88.00" arrivalLane="134193294#0_1" arrivalPos="45.37" arrivalSpeed="11.50" duration="86.00" routeLength="380.09" waitingTime="38.00" waitingCount="1" stopTime="0.00" timeLoss="59.87" rerouteNo="0" devices="tripinfo_flow_route_44_duration_20250327_2020.1" vType="car" speedFactor="0.89" vaporized=""/>
    <tripinfo id="flow_route_44_duration_20250327_2020.0" depart="0.00" departLane="791826085_0" departPos="219.49" departSpeed="0.00" departDelay="0.00" arrival="90.00" arrivalLane="134193294#0_0" arrivalPos="101.20" arrivalSpeed="14.46" duration="90.00" routeLength="236.08" waitingTime="53.00" waitingCount="1" stopTime="0.00" timeLoss="75.44" rerouteNo="0" devices="tripinfo_flow_route_44_duration_20250327_2020.0" vType="car" speedFactor="1.03" vaporized=""/>
    <tripinfo id="flow_route_46_duration_20250327_2020.2" depart="5.00" departLane="791826085_0" departPos="289.48" departSpeed="0.00" departDelay="0.00" arrival="91.00" arrivalLane="1328664748#0_1" arrivalPos="68.32" arrivalSpeed="12.35" duration="86.00" routeLength="127.63" waitingTime="58.00" waitingCount="1" stopTime="0.00" timeLoss="77.38" rerouteNo="0" devices="tripinfo_flow_route_46_duration_20250327_2020.2" vType="car" speedFactor="1.03" vaporized=""/>
    <tripinfo id="flow_route_45_duration_20250327_2020.3" depart="10.00" departLane="791826085_0" departPos="314.57" departSpeed="0.00" departDelay="1.43" arrival="91.00" arrivalLane="485211947#0_0" arrivalPos="126.94" arrivalSpeed="13.86" duration="81.00" routeLength="148.13" waitingTime="55.00" waitingCount="1" stopTime="0.00" timeLoss="70.55" rerouteNo="0" devices="tripinfo_flow_route_45_duration_20250327_2020.3" vType="car" speedFactor="0.94" vaporized=""/>
    <tripinfo id="flow_route_44_duration_20250327_2020.5" depart="11.00" departLane="791826085_0" departPos="72.77" departSpeed="0.00" departDelay="1.00" arrival="92.00" arrivalLane="134193294#0_1" arrivalPos="21.51" arrivalSpeed="10.68" duration="81.00" routeLength="303.11" waitingTime="34.00" waitingCount="1" stopTime="0.00" timeLoss="61.15" rerouteNo="0" devices="tripinfo_flow_route_44_duration_20250327_2020.5" vType="car" speedFactor="0.94" vaporized=""/>
    <tripinfo id="flow_route_44_duration_20250327_2020.3" depart="6.00" departLane="791826085_0" departPos="77.20" departSpeed="0.00" departDelay="0.00" arrival="94.00" arrivalLane="134193294#0_1" arrivalPos="68.03" arrivalSpeed="13.22" duration="88.00" routeLength="345.20" waitingTime="37.00" waitingCount="1" stopTime="0.00" timeLoss="66.77" rerouteNo="0" devices="tripinfo_flow_route_44_duration_20250327_2020.3" vType="car" speedFactor="1.05" vaporized=""/>
    <tripinfo id="flow_route_46_duration_20250327_2020.4" depart="12.00" departLane="791826085_0" departPos="264.72" departSpeed="0.00" departDelay="2.00" arrival="95.00" arrivalLane="1328664748#0_1" arrivalPos="91.52" arrivalSpeed="14.66" duration="83.00" routeLength="175.59" waitingTime="51.00" waitingCount="1" stopTime="0.00" timeLoss="71.32" rerouteNo="0" devices="tripinfo_flow_route_46_duration_20250327_2020.4" vType="car" speedFactor="1.16" vaporized=""/>
    <tripinfo id="flow_route_44_duration_20250327_2020.4" depart="8.00" departLane="791826085_0" departPos="51.89" departSpeed="0.00" departDelay="0.00" arrival="96.00" arrivalLane="134193294#0_1" arrivalPos="51.76" arrivalSpeed="13.03" duration="88.00" routeLength="354.24" waitingTime="34.00" waitingCount="1" stopTime="0.00" timeLoss="66.28" rerouteNo="0" devices="tripinfo_flow_route_44_duration_20250327_2020.4" vType="car" speedFactor="0.99" vaporized=""/>
    <tripinfo id="flow_route_46_duration_20250327_2020.3" depart="8.00" departLane="791826085_0" departPos="311.97" departSpeed="0.00" departDelay="0.50" arrival="96.00" arrivalLane="1328664748#0_1" arrivalPos="170.09" arrivalSpeed="15.24" duration="88.00" routeLength="206.91" waitingTime="59.00" waitingCount="2" stopTime="0.00" timeLoss="73.66" rerouteNo="0" devices="tripinfo_flow_route_46_duration_20250327_2020.3" vType="car" speedFactor="0.93" vaporized=""/>
    <tripinfo id="flow_route_45_duration_20250327_2020.4" depart="15.00" departLane="791826085_0" departPos="160.64" departSpeed="0.00" departDelay="3.57" arrival="97.00" arrivalLane="485211947#0_0" arrivalPos="44.73" arrivalSpeed="10.07" duration="82.00" routeLength="219.84" waitingTime="39.00" waitingCount="1" stopTime="0.00" timeLoss="67.30" rerouteNo="0" devices="tripinfo_flow_route_45_duration_20250327_2020.4" vType="car" speedFactor="1.01" vaporized=""/>
    <tripinfo id="flow_route_45_duration_20250327_2020.1" depart="5.00" departLane="791826085_0" departPos="206.60" departSpeed="0.00" departDelay="2.14" arrival="98.00" arrivalLane="485211947#0_0" arrivalPos="162.24" arrivalSpeed="15.29" duration="93.00" routeLength="291.40" waitingTime="51.00" waitingCount="1" stopTime="0.00" timeLoss="73.01" rerouteNo="0" devices="tripinfo_flow_route_45_duration_20250327_2020.1" vType="car" speedFactor="0.94" vaporized=""/>
    <tripinfo id="flow_route_44_duration_20250327_2020.9" depart="28.00" departLane="791826085_0" departPos="285.54" departSpeed="0.00" departDelay="10.00" arrival="98.00" arrivalLane="134193294#0_1" arrivalPos="159.21" arrivalSpeed="16.36" duration="70.00" routeLength="228.04" waitingTime="37.00" waitingCount="1" stopTime="0.00" timeLoss="55.87" rerouteNo="0" devices="tripinfo_flow_route_44_duration_20250327_2020.9" vType="car" speedFactor="1.13" vaporized=""/>
    <tripinfo id="flow_route_46_duration_20250327_2020.7" depart="37.00" departLane="791826085_0" departPos="156.55" departSpeed="0.00" departDelay="19.50" arrival="99.00" arrivalLane="1328664748#0_1" arrivalPos="39.82" arrivalSpeed="11.92" duration="62.00" routeLength="232.06" waitingTime="23.00" waitingCount="1" stopTime="0.00" timeLoss="47.25" rerouteNo="0" devices="tripinfo_flow_route_46_duration_20250327_2020.7" vType="car" speedFactor="1.18" vaporized=""/>
    <tripinfo id="flow_route_44_duration_20250327_2020.10" depart="37.00" departLane="791826085_0" departPos="13.89" departSpeed="0.00" departDelay="17.00" arrival="99.00" arrivalLane="134193294#0_1" arrivalPos="14.76" arrivalSpeed="12.47" duration="62.00" routeLength="355.23" waitingTime="15.00" waitingCount="1" stopTime="0.00" timeLoss="40.18" rerouteNo="0" devices="tripinfo_flow_route_44_duration_20250327_2020.10" vType="car" speedFactor="1.15" vaporized=""/>
    <tripinfo id="flow_route_44_duration_20250327_2020.8" depart="28.00" departLane="791826085_0" departPos="34.15" departSpeed="0.00" departDelay="12.00" arrival="100.00" arrivalLane="134193294#0_2" arrivalPos="31.45" arrivalSpeed="13.14" duration="72.00" routeLength="351.67" waitingTime="22.00" waitingCount="1" stopTime="0.00" timeLoss="48.60" rerouteNo="0" devices="tripinfo_flow_route_44_duration_20250327_2020.8" vType="car" speedFactor="0.92" vaporized=""/>
    <tripinfo id="flow_route_46_duration_20250327_2020.0" depart="1.00" departLane="791826085_0" departPos="184.68" departSpeed="0.00" departDelay="1.00" arrival="101.00" arrivalLane="1328664748#0_1" arrivalPos="165.37" arrivalSpeed="16.42" duration="100.00" routeLength="329.48" waitingTime="51.00" waitingCount="1" stopTime="0.00" timeLoss="79.00" rerouteNo="0" devices="tripinfo_flow_route_46_duration_20250327_2020.0" vType="car" speedFactor="1.05" vaporized=""/>
    <tripinfo id="flow_route_44_duration_20250327_2020.7" depart="15.00" departLane="791826085_0" departPos="54.92" departSpeed="0.00" departDelay="1.00" arrival="101.00" arrivalLane="134193294#0_1" arrivalPos="102.28" arrivalSpeed="14.80" duration="86.00" routeLength="401.73" waitingTime="34.00" waitingCount="1" stopTime="0.00" timeLoss="58.77" rerouteNo="0" devices="tripinfo_flow_route_44_duration_20250327_2020.7" vType="car" speedFactor="0.89" vaporized=""/>
    <tripinfo id="flow_route_44_duration_20250327_2020.11" depart="39.00" departLane="791826085_0" departPos="216.32" departSpeed="0.00" departDelay="17.00" arrival="101.00" arrivalLane="134193294#0_0" arrivalPos="13.72" arrivalSpeed="10.18" duration="62.00" routeLength="151.77" waitingTime="29.00" waitingCount="1" stopTime="0.00" timeLoss="52.67" rerouteNo="0" devices="tripinfo_flow_route_44_duration_20250327_2020.11" vType="car" speedFactor="0.99" vaporized=""/>
    <tripinfo id="flow_route_46_duration_20250327_2020.5" depart="15.00" departLane="791826085_0" departPos="189.18" departSpeed="0.00" departDelay="2.50" arrival="102.00" arrivalLane="1328664748#0_1" arrivalPos="148.65" arrivalSpeed="15.84" duration="87.00" routeLength="308.26" waitingTime="45.00" waitingCount="1" stopTime="0.00" timeLoss="66.42" rerouteNo="0" devices="tripinfo_flow_route_46_duration_20250327_2020.5" vType="car" speedFactor="0.97" vaporized=""/>
    <tripinfo id="flow_route_44_duration_20250327_2020.14" depart="47.00" departLane="791826085_0" departPos="3.80" departSpeed="0.00" departDelay="19.00" arrival="102.00" arrivalLane="134193294#0_1" arrivalPos="4.09" arrivalSpeed="11.71" duration="55.00" routeLength="354.66" waitingTime="7.00" waitingCount="1" stopTime="0.00" timeLoss="33.54" rerouteNo="0" devices="tripinfo_flow_route_44_duration_20250327_2020.14" vType="car" speedFactor="1.09" vaporized=""/>
    <tripinfo id="flow_route_44_duration_20250327_2020.6" depart="15.00" departLane="791826085_0" departPos="100.38" departSpeed="0.00" departDelay="3.00" arrival="104.00" arrivalLane="134193294#0_0" arrivalPos="98.05" arrivalSpeed="14.72" duration="89.00" routeLength="352.05" waitingTime="39.00" waitingCount="1" stopTime="0.00" timeLoss="67.75" rerouteNo="0" devices="tripinfo_flow_route_44_duration_20250327_2020.6" vType="car" speedFactor="1.02" vaporized=""/>
    <tripinfo id="flow_route_45_duration_20250327_2020.2" depart="6.00" departLane="791826085_0" departPos="10.57" departSpeed="0.00" departDelay="0.29" arrival="105.00" arrivalLane="485211947#0_0" arrivalPos="100.86" arrivalSpeed="13.90" duration="99.00" routeLength="426.04" waitingTime="37.00" waitingCount="1" stopTime="0.00" timeLoss="72.15" rerouteNo="0" devices="tripinfo_flow_route_45_duration_20250327_2020.2" vType="car" speedFactor="1.12" vaporized=""/>
    <tripinfo id="flow_route_45_duration_20250327_2020.5" depart="16.00" departLane="791826085_0" departPos="209.26" departSpeed="0.00" departDelay="1.72" arrival="105.00" arrivalLane="485211947#0_0" arrivalPos="173.26" arrivalSpeed="13.38" duration="89.00" routeLength="299.76" waitingTime="39.00" waitingCount="1" stopTime="0.00" timeLoss="65.90" rerouteNo="0" devices="tripinfo_flow_route_45_duration_20250327_2020.5" vType="car" speedFactor="0.83" vaporized=""/>
    <tripinfo id="flow_route_45_duration_20250327_2020.6" depart="32.00" departLane="791826085_0" departPos="111.82" departSpeed="0.00" departDelay="14.86" arrival="105.00" arrivalLane="485211947#0_0" arrivalPos="12.41" arrivalSpeed="7.68" duration="73.00" routeLength="236.35" waitingTime="23.00" waitingCount="1" stopTime="0.00" timeLoss="56.19" rerouteNo="0" devices="tripinfo_flow_route_45_duration_20250327_2020.6" vType="car" speedFactor="0.93" vaporized=""/>
    <tripinfo id="flow_route_46_duration_20250327_2020.8" depart="39.00" departLane="791826085_0" departPos="112.37" departSpeed="0.00" departDelay="19.00" arrival="105.00" arrivalLane="1328664748#0_1" arrivalPos="46.09" arrivalSpeed="13.67" duration="66.00" routeLength="282.51" waitingTime="20.00" waitingCount="1" stopTime="0.00" timeLoss="48.44" rerouteNo="0" devices="tripinfo_flow_route_46_duration_20250327_2020.8" vType="car" speedFactor="1.17" vaporized=""/>
    <tripinfo id="flow_route_46_duration_20250327_2020.9" depart="43.00" departLane="791826085_0" departPos="179.12" departSpeed="0.00" departDelay="20.50" arrival="105.00" arrivalLane="1328664748#0_1" arrivalPos="64.53" arrivalSpeed="13.88" duration="62.00" routeLength="234.20" waitingTime="21.00" waitingCount="1" stopTime="0.00" timeLoss="46.15" rerouteNo="0" devices="tripinfo_flow_route_46_duration_20250327_2020.9" vType="car" speedFactor="0.97" vaporized=""/>
    <tripinfo id="flow_route_44_duration_20250327_2020.13" depart="45.00" departLane="791826085_0" departPos="260.24" departSpeed="0.00" departDelay="19.00" arrival="105.00" arrivalLane="134193294#0_1" arrivalPos="141.61" arrivalSpeed="16.28" duration="60.00" routeLength="235.74" waitingTime="27.00" waitingCount="1" stopTime="0.00" timeLoss="45.73" rerouteNo="0" devices="tripinfo_flow_route_44_duration_20250327_2020.13" vType="car" speedFactor="1.03" vaporized=""/>
    <tripinfo id="flow_route_45_duration_20250327_2020.8" depart="41.00" departLane="791826085_0" departPos="193.29" departSpeed="0.00" departDelay="18.14" arrival="107.00" arrivalLane="485211947#0_0" arrivalPos="65.19" arrivalSpeed="11.04" duration="66.00" routeLength="207.66" waitingTime="27.00" waitingCount="1" stopTime="0.00" timeLoss="52.90" rerouteNo="0" devices="tripinfo_flow_route_45_duration_20250327_2020.8" vType="car" speedFactor="1.02" vaporized=""/>
    <tripinfo id="flow_route_44_duration_20250327_2020.15" depart="51.00" departLane="791826085_0" departPos="150.96" departSpeed="0.00" departDelay="21.00" arrival="108.00" arrivalLane="134193294#0_1" arrivalPos="121.92" arrivalSpeed="16.13" duration="57.00" routeLength="325.33" waitingTime="12.00" waitingCount="1" stopTime="0.00" timeLoss="36.77" rerouteNo="0" devices="tripinfo_flow_route_44_duration_20250327_2020.15" vType="car" speedFactor="1.00" vaporized=""/>
    <tripinfo id="flow_route_44_duration_20250327_2020.16" depart="56.00" departLane="791826085_0" departPos="31.86" departSpeed="0.00" departDelay="24.00" arrival="109.00" arrivalLane="134193294#0_1" arrivalPos="50.83" arrivalSpeed="14.20" duration="53.00" routeLength="373.34" waitingTime="3.00" waitingCount="1" stopTime="0.00" timeLoss="27.07" rerouteNo="0" devices="tripinfo_flow_route_44_duration_20250327_2020.16" vType="car" speedFactor="0.88" vaporized=""/>
    <tripinfo id="flow_route_46_duration_20250327_2020.6" depart="17.00" departLane="791826085_0" departPos="9.08" departSpeed="0.00" departDelay="2.00" arrival="110.00" arrivalLane="1328664748#0_1" arrivalPos="213.58" arrivalSpeed="14.52" duration="93.00" routeLength="553.29" waitingTime="31.00" waitingCount="1" stopTime="0.00" timeLoss="53.52" rerouteNo="0" devices="tripinfo_flow_route_46_duration_20250327_2020.6" vType="car" speedFactor="0.87" vaporized=""/>
    <tripinfo id="flow_route_46_duration_20250327_2020.13" depart="57.00" departLane="791826085_0" departPos="63.71" departSpeed="0.00" departDelay="24.50" arrival="111.00" arrivalLane="1328664748#0_1" arrivalPos="22.59" arrivalSpeed="11.49" duration="54.00" routeLength="307.67" waitingTime="8.00" waitingCount="1" stopTime="0.00" timeLoss="31.00" rerouteNo="0" devices="tripinfo_flow_route_46_duration_20250327_2020.13" vType="car" speedFactor="0.85" vaporized=""/>
    <tripinfo id="flow_route_44_duration_20250327_2020.12" depart="43.00" departLane="791826085_0" departPos="4.77" departSpeed="0.00" departDelay="19.00" arrival="112.00" arrivalLane="134193294#0_1" arrivalPos="116.42" arrivalSpeed="16.54" duration="69.00" routeLength="466.02" waitingTime="8.00" waitingCount="2" stopTime="0.00" timeLoss="40.11" rerouteNo="0" devices="tripinfo_flow_route_44_duration_20250327_2020.12" vType="car" speedFactor="1.18" vaporized=""/>
    <tripinfo id="flow_route_46_duration_20250327_2020.11" depart="48.00" departLane="791826085_0" departPos="37.29" departSpeed="0.00" departDelay="20.50" arrival="112.00" arrivalLane="1328664748#0_1" arrivalPos="67.36" arrivalSpeed="14.95" duration="64.00" routeLength="378.86" waitingTime="9.00" waitingCount="1" stopTime="0.00" timeLoss="39.63" rerouteNo="0" devices="tripinfo_flow_route_46_duration_20250327_2020.11" vType="car" speedFactor="1.04" vaporized=""/>
    <tripinfo id="flow_route_46_duration_20250327_2020.10" depart="45.00" departLane="791826085_0" departPos="112.79" departSpeed="0.00" departDelay="20.00" arrival="114.00" arrivalLane="1328664748#0_1" arrivalPos="136.86" arrivalSpeed="16.54" duration="69.00" routeLength="372.86" waitingTime="18.00" waitingCount="1" stopTime="0.00" timeLoss="44.98" rerouteNo="0" devices="tripinfo_flow_route_46_duration_20250327_2020.10" vType="car" speedFactor="1.10" vaporized=""/>
    <tripinfo id="flow_route_44_duration_20250327_2020.17" depart="62.00" departLane="791826085_0" departPos="71.95" departSpeed="0.00" departDelay="28.00" arrival="114.00" arrivalLane="134193294#0_1" arrivalPos="113.53" arrivalSpeed="16.26" duration="52.00" routeLength="395.95" waitingTime="0.00" waitingCount="0" stopTime="0.00" timeLoss="28.13" rerouteNo="0" devices="tripinfo_flow_route_44_duration_20250327_2020.17" vType="car" speedFactor="1.17" vaporized=""/>
    <tripinfo id="flow_route_45_duration_20250327_2020.9" depart="45.00" departLane="791826085_0" departPos="153.37" departSpeed="0.00" departDelay="19.29" arrival="116.00" arrivalLane="485211947#0_0" arrivalPos="108.40" arrivalSpeed="14.07" duration="71.00" routeLength="290.78" waitingTime="22.00" waitingCount="1" stopTime="0.00" timeLoss="51.01" rerouteNo="0" devices="tripinfo_flow_route_45_duration_20250327_2020.9" vType="car" speedFactor="0.96" vaporized=""/>
    <tripinfo id="flow_route_46_duration_20250327_2020.12" depart="55.00" departLane="791826085_0" departPos="42.23" departSpeed="0.00" departDelay="25.00" arrival="119.00" arrivalLane="1328664748#0_1" arrivalPos="101.41" arrivalSpeed="14.62" duration="64.00" routeLength="407.96" waitingTime="6.00" waitingCount="1" stopTime="0.00" timeLoss="35.28" rerouteNo="0" devices="tripinfo_flow_route_46_duration_20250327_2020.12" vType="car" speedFactor="0.90" vaporized=""/>
    <tripinfo id="flow_route_44_duration_20250327_2020.18" depart="66.00" departLane="791826085_0" departPos="11.29" departSpeed="0.00" departDelay="30.00" arrival="119.00" arrivalLane="134193294#0_1" arrivalPos="151.30" arrivalSpeed="16.25" duration="53.00" routeLength="494.37" waitingTime="0.00" waitingCount="0" stopTime="0.00" timeLoss="22.26" rerouteNo="0" devices="tripinfo_flow_route_44_duration_20250327_2020.18" vType="car" speedFactor="1.00" vaporized=""/>
    <tripinfo id="flow_route_45_duration_20250327_2020.7" depart="38.00" departLane="791826085_0" departPos="50.08" departSpeed="0.00" departDelay="18.00" arrival="120.00" arrivalLane="485211947#0_0" arrivalPos="105.09" arrivalSpeed="14.67" duration="82.00" routeLength="390.77" waitingTime="15.00" waitingCount="1" stopTime="0.00" timeLoss="56.72" rerouteNo="0" devices="tripinfo_flow_route_45_duration_20250327_2020.7" vType="car" speedFactor="1.01" vaporized=""/>
    <tripinfo id="flow_route_45_duration_20250327_2020.10" depart="49.00" departLane="791826085_0" departPos="128.32" departSpeed="0.00" departDelay="20.43" arrival="121.00" arrivalLane="485211947#0_0" arrivalPos="171.38" arrivalSpeed="16.53" duration="72.00" routeLength="378.81" waitingTime="16.00" waitingCount="1" stopTime="0.00" timeLoss="48.51" rerouteNo="0" devices="tripinfo_flow_route_45_duration_20250327_2020.10" vType="car" speedFactor="1.04" vaporized=""/>
    <tripinfo id="flow_route_39_duration_20250327_2020.1" depart="30.00" departLane="133126030#0_0" departPos="106.29" departSpeed="0.00" departDelay="0.00" arrival="129.00" arrivalLane="1328664748#0_0" arrivalPos="94.58" arrivalSpeed="13.67" duration="99.00" routeLength="194.50" waitingTime="64.00" waitingCount="1" stopTime="0.00" timeLoss="86.50" rerouteNo="0" devices="tripinfo_flow_route_39_duration_20250327_2020.1" vType="car" speedFactor="1.09" vaporized=""/>
    <tripinfo id="flow_route_43_duration_20250327_2020.6" depart="52.00" departLane="1328664744#0_0" departPos="71.75" departSpeed="0.00" departDelay="0.57" arrival="161.00" arrivalLane="134193294#0_3" arrivalPos="57.09" arrivalSpeed="10.59" duration="109.00" routeLength="225.41" waitingTime="72.00" waitingCount="1" stopTime="0.00" timeLoss="93.93" rerouteNo="0" devices="tripinfo_flow_route_43_duration_20250327_2020.6" vType="car" speedFactor="0.98" vaporized=""/>
    <tripinfo id="flow_route_46_duration_20250327_2020.14" depart="65.00" departLane="791826085_0" departPos="27.59" departSpeed="0.00" departDelay="30.00" arrival="196.00" arrivalLane="1328664748#0_1" arrivalPos="27.65" arrivalSpeed="9.21" duration="131.00" routeLength="348.86" waitingTime="72.00" waitingCount="2" stopTime="0.00" timeLoss="108.80" rerouteNo="0" devices="tripinfo_flow_route_46_duration_20250327_2020.14" vType="car" speedFactor="1.00" vaporized=""/>
    <tripinfo id="flow_route_44_duration_20250327_2020.21" depart="79.00" departLane="791826085_0" departPos="75.12" departSpeed="0.00" departDelay="37.00" arrival="202.00" arrivalLane="134193294#0_1" arrivalPos="17.65" arrivalSpeed="10.66" duration="123.00" routeLength="296.89" waitingTime="68.00" waitingCount="1" stopTime="0.00" timeLoss="104.55" rerouteNo="0" devices="tripinfo_flow_route_44_duration_20250327_2020.21" vType="car" speedFactor="1.02" vaporized=""/>
    <tripinfo id="flow_route_45_duration_20250327_2020.14" depart="78.00" departLane="791826085_0" departPos="172.30" departSpeed="0.00" departDelay="38.00" arrival="203.00" arrivalLane="485211947#0_0" arrivalPos="51.38" arrivalSpeed="10.80" duration="125.00" routeLength="214.84" waitingTime="75.00" waitingCount="2" stopTime="0.00" timeLoss="111.03" rerouteNo="0" devices="tripinfo_flow_route_45_duration_20250327_2020.14" vType="car" speedFactor="1.08" vaporized=""/>
    <tripinfo id="flow_route_45_duration_20250327_2020.11" depart="56.00" departLane="791826085_0" departPos="73.70" departSpeed="0.00" departDelay="24.57" arrival="204.00" arrivalLane="485211947#0_0" arrivalPos="76.17" arrivalSpeed="11.53" duration="148.00" routeLength="338.23" waitingTime="77.00" waitingCount="2" stopTime="0.00" timeLoss="122.55" rerouteNo="0" devices="tripinfo_flow_route_45_duration_20250327_2020.11" vType="car" speedFactor="0.85" vaporized=""/>
    <tripinfo id="flow_route_44_duration_20250327_2020.23" depart="91.00" departLane="791826085_0" departPos="4.34" departSpeed="0.00" departDelay="45.00" arrival="204.00" arrivalLane="134193294#0_1" arrivalPos="0.15" arrivalSpeed="9.61" duration="113.00" routeLength="350.18" waitingTime="62.00" waitingCount="1" stopTime="0.00" timeLoss="91.68" rerouteNo="0" devices="tripinfo_flow_route_44_duration_20250327_2020.23" vType="car" speedFactor="1.04" vaporized=""/>
    <tripinfo id="flow_route_44_duration_20250327_2020.20" depart="78.00" departLane="791826085_0" departPos="35.77" departSpeed="0.00" departDelay="38.00" arrival="205.00" arrivalLane="134193294#0_1" arrivalPos="101.05" arrivalSpeed="14.58" duration="127.00" routeLength="419.66" waitingTime="70.00" waitingCount="1" stopTime="0.00" timeLoss="100.21" rerouteNo="0" devices="tripinfo_flow_route_44_duration_20250327_2020.20" vType="car" speedFactor="0.97" vaporized=""/>
    <tripinfo id="flow_route_44_duration_20250327_2020.22" depart="86.00" departLane="791826085_0" departPos="145.77" departSpeed="0.00" departDelay="42.00" arrival="205.00" arrivalLane="134193294#0_1" arrivalPos="82.80" arrivalSpeed="12.75" duration="119.00" routeLength="291.40" waitingTime="68.00" waitingCount="1" stopTime="0.00" timeLoss="99.38" rerouteNo="0" devices="tripinfo_flow_route_44_duration_20250327_2020.22" vType="car" speedFactor="0.91" vaporized=""/>
    <tripinfo id="flow_route_46_duration_20250327_2020.18" depart="89.00" departLane="791826085_0" departPos="101.06" departSpeed="0.00" departDelay="44.00" arrival="205.00" arrivalLane="1328664748#0_1" arrivalPos="37.27" arrivalSpeed="10.58" duration="116.00" routeLength="285.00" waitingTime="69.00" waitingCount="1" stopTime="0.00" timeLoss="96.31" rerouteNo="0" devices="tripinfo_flow_route_46_duration_20250327_2020.18" vType="car" speedFactor="0.91" vaporized=""/>