<?xml version="1.0" encoding="UTF-8"?>

<!-- generated on 2025-05-06 21:09:17 by Eclipse SUMO sumo Version 1.20.0
<configuration xmlns:xsi="http://www.w3.org/2001/XMLSchema-instance" xsi:noNamespaceSchemaLocation="http://sumo.dlr.de/xsd/sumoConfiguration.xsd">

    <input>
        <net-file value="osm.net.xml"/>
        <route-files value="xml/route_static_cluster_11648561419_11648561420_2271142975_4854142869_9.rou.xml"/>
    </input>

    <output>
        <tripinfo-output value="xml/tripinfo_static_cluster_11648561419_11648561420_2271142975_4854142869_9.xml"/>
    </output>

    <traci_server>
        <remote-port value="36881"/>
    </traci_server>

</configuration>
-->

<tripinfos xmlns:xsi="http://www.w3.org/2001/XMLSchema-instance" xsi:noNamespaceSchemaLocation="http://sumo.dlr.de/xsd/tripinfo_file.xsd">
    <tripinfo id="flow_route_118_duration_20250327_1940.1" depart="2.00" departLane="134194079#0_0" departPos="277.04" departSpeed="0.00" departDelay="0.42" arrival="24.00" arrivalLane="1328664744#0_0" arrivalPos="140.54" arrivalSpeed="16.48" duration="22.00" routeLength="184.65" waitingTime="0.00" waitingCount="0" stopTime="0.00" timeLoss="10.41" rerouteNo="0" devices="tripinfo_flow_route_118_duration_20250327_1940.1" vType="car" speedFactor="1.03" vaporized=""/>
    <tripinfo id="flow_route_118_duration_20250327_1940.4" depart="8.00" departLane="134194079#0_0" departPos="275.86" departSpeed="0.00" departDelay="1.69" arrival="24.00" arrivalLane="1328664744#0_0" arrivalPos="53.55" arrivalSpeed="12.51" duration="16.00" routeLength="98.84" waitingTime="0.00" waitingCount="0" stopTime="0.00" timeLoss="9.40" rerouteNo="0" devices="tripinfo_flow_route_118_duration_20250327_1940.4" vType="car" speedFactor="0.97" vaporized=""/>
    <tripinfo id="flow_route_118_duration_20250327_1940.2" depart="4.00" departLane="134194079#0_0" departPos="225.54" departSpeed="0.00" departDelay="0.84" arrival="25.00" arrivalLane="1328664744#0_0" arrivalPos="52.52" arrivalSpeed="12.95" duration="21.00" routeLength="148.12" waitingTime="0.00" waitingCount="0" stopTime="0.00" timeLoss="11.98" rerouteNo="0" devices="tripinfo_flow_route_118_duration_20250327_1940.2" vType="car" speedFactor="0.99" vaporized=""/>
    <tripinfo id="flow_route_97_duration_20250327_1940.0" depart="0.00" departLane="1328664748#0_0" departPos="149.74" departSpeed="0.00" departDelay="0.00" arrival="27.00" arrivalLane="135474719#0_0" arrivalPos="137.46" arrivalSpeed="16.21" duration="27.00" routeLength="222.45" waitingTime="0.00" waitingCount="0" stopTime="0.00" timeLoss="12.39" rerouteNo="0" devices="tripinfo_flow_route_97_duration_20250327_1940.0" vType="car" speedFactor="1.06" vaporized=""/>
    <tripinfo id="flow_route_98_duration_20250327_1940.0" depart="0.00" departLane="1328664748#0_0" departPos="103.72" departSpeed="0.00" departDelay="0.00" arrival="28.00" arrivalLane="177211987#1_0" arrivalPos="104.29" arrivalSpeed="15.41" duration="28.00" routeLength="249.04" waitingTime="0.00" waitingCount="0" stopTime="0.00" timeLoss="11.33" rerouteNo="0" devices="tripinfo_flow_route_98_duration_20250327_1940.0" vType="car" speedFactor="0.94" vaporized=""/>
    <tripinfo id="flow_route_119_duration_20250327_1940.2" depart="7.00" departLane="134194079#0_0" departPos="197.11" departSpeed="0.00" departDelay="2.56" arrival="32.00" arrivalLane="1253188486#8_0" arrivalPos="7.32" arrivalSpeed="8.19" duration="25.00" routeLength="121.16" waitingTime="0.00" waitingCount="0" stopTime="0.00" timeLoss="16.17" rerouteNo="0" devices="tripinfo_flow_route_119_duration_20250327_1940.2" vType="car" speedFactor="0.94" vaporized=""/>
    <tripinfo id="flow_route_118_duration_20250327_1940.8" depart="15.00" departLane="134194079#0_0" departPos="258.30" departSpeed="0.00" departDelay="2.38" arrival="32.00" arrivalLane="1328664744#0_0" arrivalPos="47.11" arrivalSpeed="12.87" duration="17.00" routeLength="109.96" waitingTime="0.00" waitingCount="0" stopTime="0.00" timeLoss="9.86" rerouteNo="0" devices="tripinfo_flow_route_118_duration_20250327_1940.8" vType="car" speedFactor="1.02" vaporized=""/>
    <tripinfo id="flow_route_119_duration_20250327_1940.0" depart="0.00" departLane="134194079#0_0" departPos="151.34" departSpeed="0.00" departDelay="0.00" arrival="33.00" arrivalLane="1253188486#8_0" arrivalPos="1.48" arrivalSpeed="8.23" duration="33.00" routeLength="161.10" waitingTime="0.00" waitingCount="0" stopTime="0.00" timeLoss="22.49" rerouteNo="0" devices="tripinfo_flow_route_119_duration_20250327_1940.0" vType="car" speedFactor="1.09" vaporized=""/>
    <tripinfo id="flow_route_118_duration_20250327_1940.7" depart="14.00" departLane="134194079#0_0" departPos="243.55" departSpeed="0.00" departDelay="2.95" arrival="33.00" arrivalLane="1328664744#0_0" arrivalPos="45.96" arrivalSpeed="13.00" duration="19.00" routeLength="123.56" waitingTime="0.00" waitingCount="0" stopTime="0.00" timeLoss="11.44" rerouteNo="0" devices="tripinfo_flow_route_118_duration_20250327_1940.7" vType="car" speedFactor="1.17" vaporized=""/>
    <tripinfo id="flow_route_97_duration_20250327_1940.4" depart="25.00" departLane="1328664748#0_0" departPos="202.28" departSpeed="0.00" departDelay="1.00" arrival="34.00" arrivalLane="135474719#0_0" arrivalPos="2.26" arrivalSpeed="7.20" duration="9.00" routeLength="34.70" waitingTime="0.00" waitingCount="0" stopTime="0.00" timeLoss="5.93" rerouteNo="0" devices="tripinfo_flow_route_97_duration_20250327_1940.4" vType="car" speedFactor="1.02" vaporized=""/>
    <tripinfo id="flow_route_118_duration_20250327_1940.6" depart="11.00" departLane="134194079#0_0" departPos="92.60" departSpeed="0.00" departDelay="1.53" arrival="39.00" arrivalLane="1328664744#0_2" arrivalPos="33.68" arrivalSpeed="15.31" duration="28.00" routeLength="262.24" waitingTime="0.00" waitingCount="0" stopTime="0.00" timeLoss="10.17" rerouteNo="0" devices="tripinfo_flow_route_118_duration_20250327_1940.6" vType="car" speedFactor="0.93" vaporized=""/>
    <tripinfo id="flow_route_97_duration_20250327_1940.1" depart="6.00" departLane="1328664748#0_0" departPos="58.75" departSpeed="0.00" departDelay="0.00" arrival="42.00" arrivalLane="135474719#0_0" arrivalPos="19.96" arrivalSpeed="8.04" duration="36.00" routeLength="195.93" waitingTime="0.00" waitingCount="0" stopTime="0.00" timeLoss="21.85" rerouteNo="0" devices="tripinfo_flow_route_97_duration_20250327_1940.1" vType="car" speedFactor="0.94" vaporized=""/>
    <tripinfo id="flow_route_118_duration_20250327_1940.10" depart="18.00" departLane="134194079#0_0" departPos="210.12" departSpeed="0.00" departDelay="2.22" arrival="42.00" arrivalLane="1328664744#0_1" arrivalPos="94.31" arrivalSpeed="16.33" duration="24.00" routeLength="205.34" waitingTime="0.00" waitingCount="0" stopTime="0.00" timeLoss="10.89" rerouteNo="0" devices="tripinfo_flow_route_118_duration_20250327_1940.10" vType="car" speedFactor="1.09" vaporized=""/>
    <tripinfo id="flow_route_118_duration_20250327_1940.0" depart="0.00" departLane="134194079#0_0" departPos="13.63" departSpeed="0.00" departDelay="0.00" arrival="43.00" arrivalLane="1328664744#0_2" arrivalPos="165.30" arrivalSpeed="14.05" duration="43.00" routeLength="472.83" waitingTime="0.00" waitingCount="0" stopTime="0.00" timeLoss="9.19" rerouteNo="0" devices="tripinfo_flow_route_118_duration_20250327_1940.0" vType="car" speedFactor="0.86" vaporized=""/>
    <tripinfo id="flow_route_97_duration_20250327_1940.3" depart="18.00" departLane="1328664748#0_0" departPos="158.70" departSpeed="0.00" departDelay="0.00" arrival="46.00" arrivalLane="135474719#0_0" arrivalPos="107.92" arrivalSpeed="15.27" duration="28.00" routeLength="183.94" waitingTime="0.00" waitingCount="0" stopTime="0.00" timeLoss="15.29" rerouteNo="0" devices="tripinfo_flow_route_97_duration_20250327_1940.3" vType="car" speedFactor="1.04" vaporized=""/>
    <tripinfo id="flow_route_97_duration_20250327_1940.2" depart="12.00" departLane="1328664748#0_0" departPos="17.80" departSpeed="0.00" departDelay="0.00" arrival="47.00" arrivalLane="135474719#0_0" arrivalPos="52.30" arrivalSpeed="11.38" duration="35.00" routeLength="269.22" waitingTime="0.00" waitingCount="0" stopTime="0.00" timeLoss="17.52" rerouteNo="0" devices="tripinfo_flow_route_97_duration_20250327_1940.2" vType="car" speedFactor="1.18" vaporized=""/>
    <tripinfo id="flow_route_99_duration_20250327_1940.0" depart="1.00" departLane="1328664748#0_0" departPos="68.32" departSpeed="0.00" departDelay="1.00" arrival="51.00" arrivalLane="1253188486#8_2" arrivalPos="11.16" arrivalSpeed="7.91" duration="50.00" routeLength="200.71" waitingTime="15.00" waitingCount="1" stopTime="0.00" timeLoss="37.14" rerouteNo="0" devices="tripinfo_flow_route_99_duration_20250327_1940.0" vType="car" speedFactor="1.01" vaporized=""/>
    <tripinfo id="flow_route_118_duration_20250327_1940.3" depart="7.00" departLane="134194079#0_0" departPos="26.26" departSpeed="0.00" departDelay="2.27" arrival="53.00" arrivalLane="1328664744#0_1" arrivalPos="212.22" arrivalSpeed="14.57" duration="46.00" routeLength="507.11" waitingTime="0.00" waitingCount="0" stopTime="0.00" timeLoss="10.70" rerouteNo="0" devices="tripinfo_flow_route_118_duration_20250327_1940.3" vType="car" speedFactor="0.88" vaporized=""/>
    <tripinfo id="flow_route_99_duration_20250327_1940.1" depart="9.00" departLane="1328664748#0_0" departPos="212.46" departSpeed="0.00" departDelay="0.43" arrival="55.00" arrivalLane="1253188486#8_2" arrivalPos="75.51" arrivalSpeed="11.81" duration="46.00" routeLength="120.93" waitingTime="21.00" waitingCount="1" stopTime="0.00" timeLoss="37.54" rerouteNo="0" devices="tripinfo_flow_route_99_duration_20250327_1940.1" vType="car" speedFactor="0.87" vaporized=""/>
    <tripinfo id="flow_route_99_duration_20250327_1940.3" depart="26.00" departLane="1328664748#0_0" departPos="221.77" departSpeed="0.00" departDelay="0.29" arrival="57.00" arrivalLane="1253188486#8_2" arrivalPos="28.05" arrivalSpeed="9.78" duration="31.00" routeLength="64.16" waitingTime="16.00" waitingCount="1" stopTime="0.00" timeLoss="25.87" rerouteNo="0" devices="tripinfo_flow_route_99_duration_20250327_1940.3" vType="car" speedFactor="0.94" vaporized=""/>
    <tripinfo id="flow_route_99_duration_20250327_1940.2" depart="19.00" departLane="1328664748#0_0" departPos="150.25" departSpeed="0.00" departDelay="1.86" arrival="59.00" arrivalLane="1253188486#8_2" arrivalPos="24.91" arrivalSpeed="9.55" duration="40.00" routeLength="132.52" waitingTime="6.00" waitingCount="1" stopTime="0.00" timeLoss="31.22" rerouteNo="0" devices="tripinfo_flow_route_99_duration_20250327_1940.2" vType="car" speedFactor="1.09" vaporized=""/>
    <tripinfo id="flow_route_110_duration_20250327_1940.0" depart="0.00" departLane="1254519225#0.109_0" departPos="3.76" departSpeed="0.00" departDelay="0.00" arrival="64.00" arrivalLane="177211987#1_2" arrivalPos="6.38" arrivalSpeed="7.97" duration="64.00" routeLength="190.24" waitingTime="32.00" waitingCount="1" stopTime="0.00" timeLoss="48.82" rerouteNo="0" devices="tripinfo_flow_route_110_duration_20250327_1940.0" vType="car" speedFactor="0.83" vaporized=""/>
    <tripinfo id="flow_route_109_duration_20250327_1940.1" depart="6.00" departLane="1254519225#0.109_0" departPos="13.92" departSpeed="0.00" departDelay="0.00" arrival="68.00" arrivalLane="1328664744#0_0" arrivalPos="27.82" arrivalSpeed="9.88" duration="62.00" routeLength="188.12" waitingTime="26.00" waitingCount="1" stopTime="0.00" timeLoss="49.82" rerouteNo="0" devices="tripinfo_flow_route_109_duration_20250327_1940.1" vType="car" speedFactor="1.16" vaporized=""/>
    <tripinfo id="flow_route_108_duration_20250327_1940.0" depart="0.00" departLane="1254519225#0.109_0" departPos="35.33" departSpeed="0.00" departDelay="0.00" arrival="70.00" arrivalLane="135474719#0_0" arrivalPos="75.82" arrivalSpeed="13.40" duration="70.00" routeLength="240.24" waitingTime="33.00" waitingCount="1" stopTime="0.00" timeLoss="55.43" rerouteNo="0" devices="tripinfo_flow_route_108_duration_20250327_1940.0" vType="car" speedFactor="1.08" vaporized=""/>
    <tripinfo id="flow_route_109_duration_20250327_1940.2" depart="12.00" departLane="1254519225#0.109_0" departPos="45.04" departSpeed="0.00" departDelay="0.00" arrival="71.00" arrivalLane="1328664744#0_0" arrivalPos="19.08" arrivalSpeed="9.80" duration="59.00" routeLength="148.28" waitingTime="24.00" waitingCount="4" stopTime="0.00" timeLoss="49.61" rerouteNo="0" devices="tripinfo_flow_route_109_duration_20250327_1940.2" vType="car" speedFactor="1.15" vaporized=""/>
    <tripinfo id="flow_route_109_duration_20250327_1940.0" depart="0.00" departLane="1254519225#0.109_0" departPos="16.50" departSpeed="0.00" departDelay="0.00" arrival="74.00" arrivalLane="1328664744#0_0" arrivalPos="130.88" arrivalSpeed="15.89" duration="74.00" routeLength="288.61" waitingTime="32.00" waitingCount="1" stopTime="0.00" timeLoss="55.21" rerouteNo="0" devices="tripinfo_flow_route_109_duration_20250327_1940.0" vType="car" speedFactor="1.03" vaporized=""/>
    <tripinfo id="flow_route_108_duration_20250327_1940.1" depart="7.00" departLane="1254519225#0.109_0" departPos="44.64" departSpeed="0.00" departDelay="0.33" arrival="74.00" arrivalLane="135474719#0_2" arrivalPos="88.19" arrivalSpeed="15.20" duration="67.00" routeLength="243.29" waitingTime="28.00" waitingCount="2" stopTime="0.00" timeLoss="51.56" rerouteNo="0" devices="tripinfo_flow_route_108_duration_20250327_1940.1" vType="car" speedFactor="1.01" vaporized=""/>
    <tripinfo id="flow_route_109_duration_20250327_1940.5" depart="30.00" departLane="1254519225#0.109_0" departPos="57.37" departSpeed="0.00" departDelay="0.00" arrival="74.00" arrivalLane="1328664744#0_0" arrivalPos="28.73" arrivalSpeed="11.06" duration="44.00" routeLength="145.59" waitingTime="13.00" waitingCount="1" stopTime="0.00" timeLoss="33.94" rerouteNo="0" devices="tripinfo_flow_route_109_duration_20250327_1940.5" vType="car" speedFactor="0.96" vaporized=""/>
    <tripinfo id="flow_route_108_duration_20250327_1940.2" depart="14.00" departLane="1254519225#0.109_0" departPos="22.78" departSpeed="0.00" departDelay="0.67" arrival="76.00" arrivalLane="135474719#0_2" arrivalPos="94.90" arrivalSpeed="14.93" duration="62.00" routeLength="271.87" waitingTime="22.00" waitingCount="1" stopTime="0.00" timeLoss="44.89" rerouteNo="0" devices="tripinfo_flow_route_108_duration_20250327_1940.2" vType="car" speedFactor="0.97" vaporized=""/>
    <tripinfo id="flow_route_109_duration_20250327_1940.3" depart="18.00" departLane="1254519225#0.109_0" departPos="55.03" departSpeed="0.00" departDelay="0.00" arrival="76.00" arrivalLane="1328664744#0_0" arrivalPos="103.45" arrivalSpeed="14.45" duration="58.00" routeLength="222.66" waitingTime="21.00" waitingCount="1" stopTime="0.00" timeLoss="43.83" rerouteNo="0" devices="tripinfo_flow_route_109_duration_20250327_1940.3" vType="car" speedFactor="1.00" vaporized=""/>
    <tripinfo id="flow_route_108_duration_20250327_1940.5" depart="34.00" departLane="1254519225#0.109_0" departPos="7.45" departSpeed="0.00" departDelay="0.67" arrival="77.00" arrivalLane="135474719#0_2" arrivalPos="5.34" arrivalSpeed="11.52" duration="43.00" routeLength="197.64" waitingTime="7.00" waitingCount="1" stopTime="0.00" timeLoss="30.64" rerouteNo="0" devices="tripinfo_flow_route_108_duration_20250327_1940.5" vType="car" speedFactor="0.97" vaporized=""/>
    <tripinfo id="flow_route_108_duration_20250327_1940.4" depart="27.00" departLane="1254519225#0.109_0" departPos="20.77" departSpeed="0.00" departDelay="0.34" arrival="79.00" arrivalLane="135474719#0_2" arrivalPos="75.20" arrivalSpeed="15.07" duration="52.00" routeLength="254.19" waitingTime="11.00" waitingCount="1" stopTime="0.00" timeLoss="34.63" rerouteNo="0" devices="tripinfo_flow_route_108_duration_20250327_1940.4" vType="car" speedFactor="0.91" vaporized=""/>
    <tripinfo id="flow_route_108_duration_20250327_1940.8" depart="54.00" departLane="1254519225#0.109_0" departPos="33.71" departSpeed="0.00" departDelay="0.67" arrival="80.00" arrivalLane="135474719#0_2" arrivalPos="1.21" arrivalSpeed="12.64" duration="26.00" routeLength="167.24" waitingTime="0.00" waitingCount="0" stopTime="0.00" timeLoss="15.90" rerouteNo="0" devices="tripinfo_flow_route_108_duration_20250327_1940.8" vType="car" speedFactor="1.01" vaporized=""/>
    <tripinfo id="flow_route_108_duration_20250327_1940.3" depart="20.00" departLane="1254519225#0.109_0" departPos="41.38" departSpeed="0.00" departDelay="0.00" arrival="81.00" arrivalLane="135474719#0_2" arrivalPos="130.44" arrivalSpeed="16.40" duration="61.00" routeLength="288.81" waitingTime="18.00" waitingCount="2" stopTime="0.00" timeLoss="43.02" rerouteNo="0" devices="tripinfo_flow_route_108_duration_20250327_1940.3" vType="car" speedFactor="1.02" vaporized=""/>
    <tripinfo id="flow_route_109_duration_20250327_1940.7" depart="42.00" departLane="1254519225#0.109_0" departPos="2.47" departSpeed="0.00" departDelay="0.00" arrival="81.00" arrivalLane="1328664744#0_0" arrivalPos="7.00" arrivalSpeed="9.97" duration="39.00" routeLength="178.76" waitingTime="1.00" waitingCount="1" stopTime="0.00" timeLoss="26.56" rerouteNo="0" devices="tripinfo_flow_route_109_duration_20250327_1940.7" vType="car" speedFactor="0.96" vaporized=""/>
    <tripinfo id="flow_route_108_duration_20250327_1940.7" depart="47.00" departLane="1254519225#0.109_0" departPos="48.31" departSpeed="0.00" departDelay="0.34" arrival="81.00" arrivalLane="135474719#0_0" arrivalPos="7.48" arrivalSpeed="13.57" duration="34.00" routeLength="158.92" waitingTime="2.00" waitingCount="1" stopTime="0.00" timeLoss="23.65" rerouteNo="0" devices="tripinfo_flow_route_108_duration_20250327_1940.7" vType="car" speedFactor="1.01" vaporized=""/>
    <tripinfo id="flow_route_110_duration_20250327_1940.1" depart="30.00" departLane="1254519225#0.109_0" departPos="20.02" departSpeed="0.00" departDelay="0.00" arrival="82.00" arrivalLane="177211987#1_2" arrivalPos="115.56" arrivalSpeed="16.24" duration="52.00" routeLength="283.17" waitingTime="10.00" waitingCount="1" stopTime="0.00" timeLoss="33.87" rerouteNo="0" devices="tripinfo_flow_route_110_duration_20250327_1940.1" vType="car" speedFactor="0.98" vaporized=""/>
    <tripinfo id="flow_route_109_duration_20250327_1940.6" depart="36.00" departLane="1254519225#0.109_0" departPos="32.96" departSpeed="0.00" departDelay="0.00" arrival="83.00" arrivalLane="1328664744#0_0" arrivalPos="134.12" arrivalSpeed="16.31" duration="47.00" routeLength="275.39" waitingTime="7.00" waitingCount="1" stopTime="0.00" timeLoss="29.52" rerouteNo="0" devices="tripinfo_flow_route_109_duration_20250327_1940.6" vType="car" speedFactor="1.02" vaporized=""/>
    <tripinfo id="flow_route_108_duration_20250327_1940.6" depart="40.00" departLane="1254519225#0.109_0" departPos="22.81" departSpeed="0.00" departDelay="0.00" arrival="87.00" arrivalLane="135474719#0_2" arrivalPos="117.41" arrivalSpeed="14.76" duration="47.00" routeLength="294.35" waitingTime="2.00" waitingCount="2" stopTime="0.00" timeLoss="26.85" rerouteNo="0" devices="tripinfo_flow_route_108_duration_20250327_1940.6" vType="car" speedFactor="0.91" vaporized=""/>
    <tripinfo id="flow_route_113_duration_20250327_1940.5" depart="16.00" departLane="1253188486#4_0" departPos="133.84" departSpeed="0.00" departDelay="1.00" arrival="91.00" arrivalLane="1253188486#8_1" arrivalPos="5.85" arrivalSpeed="9.03" duration="75.00" routeLength="70.64" waitingTime="55.00" waitingCount="1" stopTime="0.00" timeLoss="70.72" rerouteNo="0" devices="tripinfo_flow_route_113_duration_20250327_1940.5" vType="car" speedFactor="0.90" vaporized=""/>
    <tripinfo id="flow_route_109_duration_20250327_1940.4" depart="24.00" departLane="1254519225#0.109_0" departPos="0.05" departSpeed="0.00" departDelay="0.00" arrival="92.00" arrivalLane="1328664744#0_0" arrivalPos="217.63" arrivalSpeed="15.96" duration="68.00" routeLength="391.80" waitingTime="7.00" waitingCount="3" stopTime="0.00" timeLoss="42.04" rerouteNo="0" devices="tripinfo_flow_route_109_duration_20250327_1940.4" vType="car" speedFactor="0.97" vaporized=""/>
    <tripinfo id="flow_route_114_duration_20250327_1940.0" depart="0.00" departLane="1253188486#4_0" departPos="49.31" departSpeed="0.00" departDelay="0.00" arrival="94.00" arrivalLane="177211987#1_0" arrivalPos="36.23" arrivalSpeed="10.04" duration="94.00" routeLength="153.37" waitingTime="63.00" waitingCount="1" stopTime="0.00" timeLoss="82.77" rerouteNo="0" devices="tripinfo_flow_route_114_duration_20250327_1940.0" vType="car" speedFactor="0.89" vaporized=""/>
    <tripinfo id="flow_route_115_duration_20250327_1940.1" depart="5.00" departLane="1253188486#4_0" departPos="104.93" departSpeed="0.00" departDelay="0.39" arrival="95.00" arrivalLane="1328664744#0_2" arrivalPos="35.30" arrivalSpeed="11.08" duration="90.00" routeLength="115.77" waitingTime="64.00" waitingCount="1" stopTime="0.00" timeLoss="81.51" rerouteNo="0" devices="tripinfo_flow_route_115_duration_20250327_1940.1" vType="car" speedFactor="0.93" vaporized=""/>
    <tripinfo id="flow_route_115_duration_20250327_1940.0" depart="0.00" departLane="1253188486#4_0" departPos="104.70" departSpeed="0.00" departDelay="0.00" arrival="100.00" arrivalLane="1328664744#0_2" arrivalPos="120.97" arrivalSpeed="14.79" duration="100.00" routeLength="201.67" waitingTime="68.00" waitingCount="1" stopTime="0.00" timeLoss="85.78" rerouteNo="0" devices="tripinfo_flow_route_115_duration_20250327_1940.0" vType="car" speedFactor="0.94" vaporized=""/>
    <tripinfo id="flow_route_115_duration_20250327_1940.3" depart="15.00" departLane="1253188486#4_0" departPos="95.76" departSpeed="0.00" departDelay="1.16" arrival="102.00" arrivalLane="1328664744#0_2" arrivalPos="86.47" arrivalSpeed="14.68" duration="87.00" routeLength="176.11" waitingTime="55.00" waitingCount="1" stopTime="0.00" timeLoss="75.18" rerouteNo="0" devices="tripinfo_flow_route_115_duration_20250327_1940.3" vType="car" speedFactor="1.18" vaporized=""/>
    <tripinfo id="flow_route_113_duration_20250327_1940.2" depart="6.00" departLane="1253188486#4_0" departPos="25.72" departSpeed="0.00" departDelay="0.00" arrival="103.00" arrivalLane="1253188486#8_0" arrivalPos="100.92" arrivalSpeed="16.13" duration="97.00" routeLength="273.83" waitingTime="58.00" waitingCount="1" stopTime="0.00" timeLoss="80.28" rerouteNo="0" devices="tripinfo_flow_route_113_duration_20250327_1940.2" vType="car" speedFactor="1.02" vaporized=""/>
    <tripinfo id="flow_route_114_duration_20250327_1940.1" depart="17.00" departLane="1253188486#4_0" departPos="45.38" departSpeed="0.00" departDelay="2.00" arrival="103.00" arrivalLane="177211987#1_0" arrivalPos="44.31" arrivalSpeed="11.02" duration="86.00" routeLength="165.39" waitingTime="48.00" waitingCount="1" stopTime="0.00" timeLoss="74.96" rerouteNo="0" devices="tripinfo_flow_route_114_duration_20250327_1940.1" vType="car" speedFactor="1.03" vaporized=""/>
    <tripinfo id="flow_route_113_duration_20250327_1940.0" depart="0.00" departLane="1253188486#4_0" departPos="134.10" departSpeed="0.00" departDelay="0.00" arrival="104.00" arrivalLane="1253188486#8_0" arrivalPos="182.35" arrivalSpeed="16.42" duration="104.00" routeLength="246.88" waitingTime="72.00" waitingCount="1" stopTime="0.00" timeLoss="89.06" rerouteNo="0" devices="tripinfo_flow_route_113_duration_20250327_1940.0" vType="car" speedFactor="1.05" vaporized=""/>
    <tripinfo id="flow_route_113_duration_20250327_1940.4" depart="13.00" departLane="1253188486#4_0" departPos="103.95" departSpeed="0.00" departDelay="1.00" arrival="104.00" arrivalLane="1253188486#8_1" arrivalPos="139.14" arrivalSpeed="16.54" duration="91.00" routeLength="233.83" waitingTime="55.00" waitingCount="1" stopTime="0.00" timeLoss="76.34" rerouteNo="0" devices="tripinfo_flow_route_113_duration_20250327_1940.4" vType="car" speedFactor="1.01" vaporized=""/>
    <tripinfo id="flow_route_113_duration_20250327_1940.10" depart="31.00" departLane="1253188486#4_0" departPos="71.35" departSpeed="0.00" departDelay="1.00" arrival="105.00" arrivalLane="1253188486#8_1" arrivalPos="28.13" arrivalSpeed="12.33" duration="74.00" routeLength="155.42" waitingTime="40.00" waitingCount="1" stopTime="0.00" timeLoss="64.49" rerouteNo="0" devices="tripinfo_flow_route_113_duration_20250327_1940.10" vType="car" speedFactor="1.03" vaporized=""/>
    <tripinfo id="flow_route_114_duration_20250327_1940.2" depart="31.00" departLane="1253188486#4_0" departPos="29.18" departSpeed="0.00" departDelay="1.00" arrival="105.00" arrivalLane="177211987#1_0" arrivalPos="14.30" arrivalSpeed="8.67" duration="74.00" routeLength="151.58" waitingTime="41.00" waitingCount="1" stopTime="0.00" timeLoss="63.40" rerouteNo="0" devices="tripinfo_flow_route_114_duration_20250327_1940.2" vType="car" speedFactor="0.98" vaporized=""/>
    <tripinfo id="flow_route_113_duration_20250327_1940.3" depart="11.00" departLane="1253188486#4_0" departPos="10.26" departSpeed="0.00" departDelay="2.00" arrival="107.00" arrivalLane="1253188486#8_1" arrivalPos="120.85" arrivalSpeed="16.45" duration="96.00" routeLength="309.22" waitingTime="53.00" waitingCount="1" stopTime="0.00" timeLoss="77.17" rerouteNo="0" devices="tripinfo_flow_route_113_duration_20250327_1940.3" vType="car" speedFactor="0.92" vaporized=""/>
    <tripinfo id="flow_route_115_duration_20250327_1940.2" depart="12.00" departLane="1253188486#4_0" departPos="7.17" departSpeed="0.00" departDelay="2.77" arrival="107.00" arrivalLane="1328664744#0_2" arrivalPos="142.35" arrivalSpeed="16.45" duration="95.00" routeLength="320.57" waitingTime="49.00" waitingCount="1" stopTime="0.00" timeLoss="74.99" rerouteNo="0" devices="tripinfo_flow_route_115_duration_20250327_1940.2" vType="car" speedFactor="1.13" vaporized=""/>
    <tripinfo id="flow_route_113_duration_20250327_1940.7" depart="23.00" departLane="1253188486#4_0" departPos="84.12" departSpeed="0.00" departDelay="2.00" arrival="108.00" arrivalLane="1253188486#8_0" arrivalPos="105.71" arrivalSpeed="15.72" duration="85.00" routeLength="220.22" waitingTime="49.00" waitingCount="1" stopTime="0.00" timeLoss="71.49" rerouteNo="0" devices="tripinfo_flow_route_113_duration_20250327_1940.7" vType="car" speedFactor="1.00" vaporized=""/>
    <tripinfo id="flow_route_115_duration_20250327_1940.5" depart="26.00" departLane="1253188486#4_0" departPos="60.26" departSpeed="0.00" departDelay="2.93" arrival="108.00" arrivalLane="1328664744#0_2" arrivalPos="107.09" arrivalSpeed="15.16" duration="82.00" routeLength="232.22" waitingTime="43.00" waitingCount="1" stopTime="0.00" timeLoss="66.81" rerouteNo="0" devices="tripinfo_flow_route_115_duration_20250327_1940.5" vType="car" speedFactor="1.12" vaporized=""/>
    <tripinfo id="flow_route_115_duration_20250327_1940.4" depart="22.00" departLane="1253188486#4_0" departPos="15.76" departSpeed="0.00" departDelay="3.54" arrival="109.00" arrivalLane="1328664744#0_2" arrivalPos="106.49" arrivalSpeed="14.16" duration="87.00" routeLength="276.14" waitingTime="42.00" waitingCount="1" stopTime="0.00" timeLoss="67.87" rerouteNo="0" devices="tripinfo_flow_route_115_duration_20250327_1940.4" vType="car" speedFactor="0.85" vaporized=""/>
    <tripinfo id="flow_route_113_duration_20250327_1940.1" depart="4.00" departLane="1253188486#4_0" departPos="4.97" departSpeed="0.00" departDelay="1.00" arrival="110.00" arrivalLane="1253188486#8_1" arrivalPos="202.24" arrivalSpeed="16.24" duration="106.00" routeLength="395.90" waitingTime="55.00" waitingCount="1" stopTime="0.00" timeLoss="81.68" rerouteNo="0" devices="tripinfo_flow_route_113_duration_20250327_1940.1" vType="car" speedFactor="1.05" vaporized=""/>
    <tripinfo id="flow_route_115_duration_20250327_1940.6" depart="29.00" departLane="1253188486#4_0" departPos="24.14" departSpeed="0.00" departDelay="1.31" arrival="110.00" arrivalLane="1328664744#0_2" arrivalPos="34.02" arrivalSpeed="11.53" duration="81.00" routeLength="195.28" waitingTime="41.00" waitingCount="1" stopTime="0.00" timeLoss="67.88" rerouteNo="0" devices="tripinfo_flow_route_115_duration_20250327_1940.6" vType="car" speedFactor="1.02" vaporized=""/>
    <tripinfo id="flow_route_113_duration_20250327_1940.13" depart="39.00" departLane="1253188486#4_0" departPos="46.31" departSpeed="0.00" departDelay="0.00" arrival="110.00" arrivalLane="1253188486#8_1" arrivalPos="46.12" arrivalSpeed="13.41" duration="71.00" routeLength="198.44" waitingTime="35.00" waitingCount="1" stopTime="0.00" timeLoss="58.84" rerouteNo="0" devices="tripinfo_flow_route_113_duration_20250327_1940.13" vType="car" speedFactor="1.01" vaporized=""/>
    <tripinfo id="flow_route_113_duration_20250327_1940.12" depart="36.00" departLane="1253188486#4_0" departPos="1.78" departSpeed="0.00" departDelay="0.00" arrival="111.00" arrivalLane="1253188486#8_0" arrivalPos="46.76" arrivalSpeed="14.87" duration="75.00" routeLength="243.61" waitingTime="35.00" waitingCount="1" stopTime="0.00" timeLoss="59.91" rerouteNo="0" devices="tripinfo_flow_route_113_duration_20250327_1940.12" vType="car" speedFactor="1.02" vaporized=""/>
    <tripinfo id="flow_route_113_duration_20250327_1940.14" depart="49.00" departLane="1253188486#4_0" departPos="36.85" departSpeed="0.00" departDelay="7.00" arrival="111.00" arrivalLane="1253188486#8_0" arrivalPos="7.73" arrivalSpeed="12.56" duration="62.00" routeLength="169.51" waitingTime="28.00" waitingCount="1" stopTime="0.00" timeLoss="51.18" rerouteNo="0" devices="tripinfo_flow_route_113_duration_20250327_1940.14" vType="car" speedFactor="0.97" vaporized=""/>
    <tripinfo id="flow_route_113_duration_20250327_1940.16" depart="63.00" departLane="1253188486#4_0" departPos="41.10" departSpeed="0.00" departDelay="15.00" arrival="111.00" arrivalLane="1253188486#8_1" arrivalPos="6.53" arrivalSpeed="13.61" duration="48.00" routeLength="164.07" waitingTime="14.00" waitingCount="1" stopTime="0.00" timeLoss="37.43" rerouteNo="0" devices="tripinfo_flow_route_113_duration_20250327_1940.16" vType="car" speedFactor="0.99" vaporized=""/>