<?xml version="1.0" encoding="UTF-8"?>

<!-- generated on 2025-05-06 21:08:48 by Eclipse SUMO sumo Version 1.20.0
<configuration xmlns:xsi="http://www.w3.org/2001/XMLSchema-instance" xsi:noNamespaceSchemaLocation="http://sumo.dlr.de/xsd/sumoConfiguration.xsd">

    <input>
        <net-file value="osm.net.xml"/>
        <route-files value="xml/route_static_cluster3828547534_cluster_1507433914_2954854770_2954854771_2954854772_#9more_6.rou.xml"/>
    </input>

    <output>
        <tripinfo-output value="xml/tripinfo_static_cluster3828547534_cluster_1507433914_2954854770_2954854771_2954854772_#9more_6.xml"/>
    </output>

    <traci_server>
        <remote-port value="41537"/>
    </traci_server>

</configuration>
-->

<tripinfos xmlns:xsi="http://www.w3.org/2001/XMLSchema-instance" xsi:noNamespaceSchemaLocation="http://sumo.dlr.de/xsd/tripinfo_file.xsd">
    <tripinfo id="flow_route_6_duration_20250327_2040.0" depart="0.00" departLane="1252820505#0_0" departPos="39.30" departSpeed="0.00" departDelay="0.00" arrival="18.00" arrivalLane="379698350#0_0" arrivalPos="9.38" arrivalSpeed="13.99" duration="18.00" routeLength="129.45" waitingTime="0.00" waitingCount="0" stopTime="0.00" timeLoss="9.93" rerouteNo="0" devices="tripinfo_flow_route_6_duration_20250327_2040.0" vType="car" speedFactor="1.01" vaporized=""/>
    <tripinfo id="flow_route_22_duration_20250327_2040.0" depart="0.00" departLane="137415945#0_0" departPos="8.70" departSpeed="0.00" departDelay="0.00" arrival="24.00" arrivalLane="1342054204_0" arrivalPos="47.56" arrivalSpeed="15.23" duration="24.00" routeLength="232.19" waitingTime="0.00" waitingCount="0" stopTime="0.00" timeLoss="8.92" rerouteNo="0" devices="tripinfo_flow_route_22_duration_20250327_2040.0" vType="car" speedFactor="0.94" vaporized=""/>
    <tripinfo id="flow_route_24_duration_20250327_2040.0" depart="4.00" departLane="137415945#0_0" departPos="5.05" departSpeed="0.00" departDelay="4.00" arrival="25.00" arrivalLane="137406408#0_0" arrivalPos="0.56" arrivalSpeed="15.46" duration="21.00" routeLength="164.51" waitingTime="0.00" waitingCount="0" stopTime="0.00" timeLoss="10.79" rerouteNo="0" devices="tripinfo_flow_route_24_duration_20250327_2040.0" vType="car" speedFactor="1.09" vaporized=""/>
    <tripinfo id="flow_route_10_duration_20250327_2040.0" depart="0.00" departLane="1252820505#0_0" departPos="5.24" departSpeed="0.00" departDelay="0.00" arrival="28.00" arrivalLane="1235147073.116_0" arrivalPos="0.67" arrivalSpeed="13.73" duration="28.00" routeLength="263.17" waitingTime="0.00" waitingCount="0" stopTime="0.00" timeLoss="8.43" rerouteNo="0" devices="tripinfo_flow_route_10_duration_20250327_2040.0" vType="car" speedFactor="0.83" vaporized=""/>
    <tripinfo id="flow_route_8_duration_20250327_2040.0" depart="0.00" departLane="133000078#0_0" departPos="54.62" departSpeed="0.00" departDelay="0.00" arrival="34.00" arrivalLane="1235147073.116_0" arrivalPos="9.03" arrivalSpeed="16.18" duration="34.00" routeLength="314.60" waitingTime="0.00" waitingCount="0" stopTime="0.00" timeLoss="13.56" rerouteNo="0" devices="tripinfo_flow_route_8_duration_20250327_2040.0" vType="car" speedFactor="1.03" vaporized=""/>
    <tripinfo id="flow_route_22_duration_20250327_2040.1" depart="8.00" departLane="137415945#0_0" departPos="4.22" departSpeed="0.00" departDelay="4.67" arrival="36.00" arrivalLane="1342054204_0" arrivalPos="77.43" arrivalSpeed="16.25" duration="28.00" routeLength="266.54" waitingTime="0.00" waitingCount="0" stopTime="0.00" timeLoss="11.24" rerouteNo="0" devices="tripinfo_flow_route_22_duration_20250327_2040.1" vType="car" speedFactor="1.05" vaporized=""/>
    <tripinfo id="flow_route_10_duration_20250327_2040.1" depart="11.00" departLane="1252820505#0_0" departPos="7.74" departSpeed="0.00" departDelay="1.00" arrival="39.00" arrivalLane="1235147073.116_1" arrivalPos="14.77" arrivalSpeed="15.50" duration="28.00" routeLength="274.77" waitingTime="0.00" waitingCount="0" stopTime="0.00" timeLoss="10.25" rerouteNo="0" devices="tripinfo_flow_route_10_duration_20250327_2040.1" vType="car" speedFactor="0.94" vaporized=""/>
    <tripinfo id="flow_route_10_duration_20250327_2040.2" depart="22.00" departLane="1252820505#0_0" departPos="84.91" departSpeed="0.00" departDelay="2.00" arrival="44.00" arrivalLane="1235147073.116_0" arrivalPos="6.48" arrivalSpeed="16.46" duration="22.00" routeLength="189.31" waitingTime="0.00" waitingCount="0" stopTime="0.00" timeLoss="10.34" rerouteNo="0" devices="tripinfo_flow_route_10_duration_20250327_2040.2" vType="car" speedFactor="1.01" vaporized=""/>
    <tripinfo id="flow_route_11_duration_20250327_2040.0" depart="0.00" departLane="1252820505#0_0" departPos="76.11" departSpeed="0.00" departDelay="0.00" arrival="47.00" arrivalLane="137406408#0_2" arrivalPos="68.60" arrivalSpeed="12.97" duration="47.00" routeLength="154.08" waitingTime="17.00" waitingCount="1" stopTime="0.00" timeLoss="37.14" rerouteNo="0" devices="tripinfo_flow_route_11_duration_20250327_2040.0" vType="car" speedFactor="1.05" vaporized=""/>
    <tripinfo id="flow_route_11_duration_20250327_2040.1" depart="14.00" departLane="1252820505#0_0" departPos="24.24" departSpeed="0.00" departDelay="2.00" arrival="48.00" arrivalLane="137406408#0_2" arrivalPos="55.03" arrivalSpeed="12.10" duration="34.00" routeLength="192.37" waitingTime="0.00" waitingCount="0" stopTime="0.00" timeLoss="21.45" rerouteNo="0" devices="tripinfo_flow_route_11_duration_20250327_2040.1" vType="car" speedFactor="0.97" vaporized=""/>
    <tripinfo id="flow_route_8_duration_20250327_2040.1" depart="15.00" departLane="133000078#0_0" departPos="64.81" departSpeed="0.00" departDelay="0.00" arrival="49.00" arrivalLane="1235147073.116_0" arrivalPos="14.21" arrivalSpeed="15.13" duration="34.00" routeLength="309.58" waitingTime="0.00" waitingCount="0" stopTime="0.00" timeLoss="12.28" rerouteNo="0" devices="tripinfo_flow_route_8_duration_20250327_2040.1" vType="car" speedFactor="0.92" vaporized=""/>
    <tripinfo id="flow_route_6_duration_20250327_2040.1" depart="14.00" departLane="1252820505#0_0" departPos="2.42" departSpeed="0.00" departDelay="2.00" arrival="51.00" arrivalLane="379698350#0_0" arrivalPos="147.58" arrivalSpeed="16.35" duration="37.00" routeLength="304.53" waitingTime="0.00" waitingCount="0" stopTime="0.00" timeLoss="18.57" rerouteNo="0" devices="tripinfo_flow_route_6_duration_20250327_2040.1" vType="car" speedFactor="1.01" vaporized=""/>
    <tripinfo id="flow_route_4_duration_20250327_2040.1" depart="30.00" departLane="291974733#0_0" departPos="32.28" departSpeed="0.00" departDelay="0.00" arrival="51.00" arrivalLane="379698350#0_1" arrivalPos="8.78" arrivalSpeed="15.26" duration="21.00" routeLength="167.40" waitingTime="0.00" waitingCount="0" stopTime="0.00" timeLoss="10.84" rerouteNo="0" devices="tripinfo_flow_route_4_duration_20250327_2040.1" vType="car" speedFactor="1.04" vaporized=""/>
    <tripinfo id="flow_route_6_duration_20250327_2040.2" depart="24.00" departLane="1252820505#0_0" departPos="75.95" departSpeed="0.00" departDelay="0.00" arrival="52.00" arrivalLane="379698350#0_0" arrivalPos="190.75" arrivalSpeed="16.15" duration="28.00" routeLength="274.17" waitingTime="0.00" waitingCount="0" stopTime="0.00" timeLoss="11.24" rerouteNo="0" devices="tripinfo_flow_route_6_duration_20250327_2040.2" vType="car" speedFactor="1.18" vaporized=""/>
    <tripinfo id="flow_route_23_duration_20250327_2040.1" depart="22.00" departLane="137415945#0_0" departPos="5.31" departSpeed="0.00" departDelay="13.43" arrival="56.00" arrivalLane="379698350#0_2" arrivalPos="25.86" arrivalSpeed="11.12" duration="34.00" routeLength="212.90" waitingTime="0.00" waitingCount="0" stopTime="0.00" timeLoss="18.97" rerouteNo="0" devices="tripinfo_flow_route_23_duration_20250327_2040.1" vType="car" speedFactor="0.88" vaporized=""/>
    <tripinfo id="flow_route_5_duration_20250327_2040.0" depart="0.00" departLane="291974733#0_0" departPos="43.68" departSpeed="0.00" departDelay="0.00" arrival="57.00" arrivalLane="1342054204_0" arrivalPos="62.15" arrivalSpeed="13.48" duration="57.00" routeLength="156.72" waitingTime="28.00" waitingCount="1" stopTime="0.00" timeLoss="45.60" rerouteNo="0" devices="tripinfo_flow_route_5_duration_20250327_2040.0" vType="car" speedFactor="0.94" vaporized=""/>
    <tripinfo id="flow_route_5_duration_20250327_2040.1" depart="13.00" departLane="291974733#0_0" departPos="15.78" departSpeed="0.00" departDelay="1.00" arrival="59.00" arrivalLane="1342054204_0" arrivalPos="58.28" arrivalSpeed="13.65" duration="46.00" routeLength="180.75" waitingTime="13.00" waitingCount="1" stopTime="0.00" timeLoss="33.93" rerouteNo="0" devices="tripinfo_flow_route_5_duration_20250327_2040.1" vType="car" speedFactor="1.02" vaporized=""/>
    <tripinfo id="flow_route_5_duration_20250327_2040.2" depart="24.00" departLane="291974733#0_0" departPos="42.71" departSpeed="0.00" departDelay="0.00" arrival="61.00" arrivalLane="1342054204_0" arrivalPos="54.54" arrivalSpeed="12.75" duration="37.00" routeLength="150.08" waitingTime="8.00" waitingCount="1" stopTime="0.00" timeLoss="26.86" rerouteNo="0" devices="tripinfo_flow_route_5_duration_20250327_2040.2" vType="car" speedFactor="0.97" vaporized=""/>
    <tripinfo id="flow_route_23_duration_20250327_2040.0" depart="0.00" departLane="137415945#0_0" departPos="0.59" departSpeed="0.00" departDelay="0.00" arrival="64.00" arrivalLane="379698350#0_2" arrivalPos="153.67" arrivalSpeed="13.96" duration="64.00" routeLength="345.44" waitingTime="19.00" waitingCount="1" stopTime="0.00" timeLoss="39.16" rerouteNo="0" devices="tripinfo_flow_route_23_duration_20250327_2040.0" vType="car" speedFactor="0.86" vaporized=""/>
    <tripinfo id="flow_route_5_duration_20250327_2040.3" depart="36.00" departLane="291974733#0_0" departPos="15.70" departSpeed="0.00" departDelay="0.00" arrival="65.00" arrivalLane="1342054204_0" arrivalPos="85.57" arrivalSpeed="15.02" duration="29.00" routeLength="208.12" waitingTime="0.00" waitingCount="0" stopTime="0.00" timeLoss="15.49" rerouteNo="0" devices="tripinfo_flow_route_5_duration_20250327_2040.3" vType="car" speedFactor="1.00" vaporized=""/>
    <tripinfo id="flow_route_4_duration_20250327_2040.0" depart="0.00" departLane="291974733#0_0" departPos="63.06" departSpeed="0.00" departDelay="0.00" arrival="66.00" arrivalLane="379698350#0_0" arrivalPos="183.76" arrivalSpeed="16.21" duration="66.00" routeLength="311.60" waitingTime="27.00" waitingCount="1" stopTime="0.00" timeLoss="47.06" rerouteNo="0" devices="tripinfo_flow_route_4_duration_20250327_2040.0" vType="car" speedFactor="1.06" vaporized=""/>
    <tripinfo id="flow_route_5_duration_20250327_2040.4" depart="49.00" departLane="291974733#0_0" departPos="53.37" departSpeed="0.00" departDelay="1.00" arrival="70.00" arrivalLane="1342054204_0" arrivalPos="74.21" arrivalSpeed="15.36" duration="21.00" routeLength="159.09" waitingTime="0.00" waitingCount="0" stopTime="0.00" timeLoss="9.85" rerouteNo="0" devices="tripinfo_flow_route_5_duration_20250327_2040.4" vType="car" speedFactor="1.02" vaporized=""/>
    <tripinfo id="flow_route_23_duration_20250327_2040.2" depart="43.00" departLane="137415945#0_0" departPos="2.64" departSpeed="0.00" departDelay="25.86" arrival="78.00" arrivalLane="379698350#0_2" arrivalPos="148.88" arrivalSpeed="16.49" duration="35.00" routeLength="338.59" waitingTime="0.00" waitingCount="0" stopTime="0.00" timeLoss="14.48" rerouteNo="0" devices="tripinfo_flow_route_23_duration_20250327_2040.2" vType="car" speedFactor="1.18" vaporized=""/>
    <tripinfo id="flow_route_7_duration_20250327_2040.0" depart="0.00" departLane="133000078#0_0" departPos="116.92" departSpeed="0.00" departDelay="0.00" arrival="94.00" arrivalLane="137406408#0_2" arrivalPos="45.36" arrivalSpeed="14.40" duration="94.00" routeLength="233.24" waitingTime="57.00" waitingCount="1" stopTime="0.00" timeLoss="79.32" rerouteNo="0" devices="tripinfo_flow_route_7_duration_20250327_2040.0" vType="car" speedFactor="1.08" vaporized=""/>
    <tripinfo id="flow_route_7_duration_20250327_2040.1" depart="15.00" departLane="133000078#0_0" departPos="204.88" departSpeed="0.00" departDelay="0.00" arrival="94.00" arrivalLane="137406408#0_1" arrivalPos="50.47" arrivalSpeed="14.38" duration="79.00" routeLength="150.38" waitingTime="57.00" waitingCount="1" stopTime="0.00" timeLoss="68.55" rerouteNo="0" devices="tripinfo_flow_route_7_duration_20250327_2040.1" vType="car" speedFactor="0.87" vaporized=""/>
    <tripinfo id="flow_route_12_duration_20250327_2040.1" depart="4.00" departLane="133000078#0_0" departPos="112.39" departSpeed="0.00" departDelay="0.84" arrival="97.00" arrivalLane="1342054204_3" arrivalPos="71.90" arrivalSpeed="16.24" duration="93.00" routeLength="257.31" waitingTime="55.00" waitingCount="1" stopTime="0.00" timeLoss="76.55" rerouteNo="0" devices="tripinfo_flow_route_12_duration_20250327_2040.1" vType="car" speedFactor="1.03" vaporized=""/>
    <tripinfo id="flow_route_7_duration_20250327_2040.2" depart="30.00" departLane="133000078#0_0" departPos="136.96" departSpeed="0.00" departDelay="0.00" arrival="97.00" arrivalLane="137406408#0_1" arrivalPos="36.06" arrivalSpeed="16.58" duration="67.00" routeLength="203.90" waitingTime="35.00" waitingCount="1" stopTime="0.00" timeLoss="53.95" rerouteNo="0" devices="tripinfo_flow_route_7_duration_20250327_2040.2" vType="car" speedFactor="1.09" vaporized=""/>
    <tripinfo id="flow_route_12_duration_20250327_2040.0" depart="0.00" departLane="133000078#0_0" departPos="66.48" departSpeed="0.00" departDelay="0.00" arrival="100.00" arrivalLane="1342054204_3" arrivalPos="21.59" arrivalSpeed="13.99" duration="100.00" routeLength="252.91" waitingTime="59.00" waitingCount="2" stopTime="0.00" timeLoss="81.98" rerouteNo="0" devices="tripinfo_flow_route_12_duration_20250327_2040.0" vType="car" speedFactor="0.89" vaporized=""/>
    <tripinfo id="flow_route_12_duration_20250327_2040.12" depart="38.00" departLane="133000078#0_0" departPos="187.72" departSpeed="0.00" departDelay="0.12" arrival="101.00" arrivalLane="1342054204_3" arrivalPos="80.13" arrivalSpeed="16.19" duration="63.00" routeLength="190.21" waitingTime="34.00" waitingCount="1" stopTime="0.00" timeLoss="50.64" rerouteNo="0" devices="tripinfo_flow_route_12_duration_20250327_2040.12" vType="car" speedFactor="1.02" vaporized=""/>
    <tripinfo id="flow_route_8_duration_20250327_2040.2" depart="30.00" departLane="133000078#0_0" departPos="88.96" departSpeed="0.00" departDelay="0.00" arrival="104.00" arrivalLane="1235147073.116_0" arrivalPos="10.34" arrivalSpeed="16.47" duration="74.00" routeLength="281.56" waitingTime="35.00" waitingCount="1" stopTime="0.00" timeLoss="55.41" rerouteNo="0" devices="tripinfo_flow_route_8_duration_20250327_2040.2" vType="car" speedFactor="1.00" vaporized=""/>
    <tripinfo id="flow_route_12_duration_20250327_2040.7" depart="23.00" departLane="133000078#0_0" departPos="180.78" departSpeed="0.00" departDelay="0.90" arrival="105.00" arrivalLane="1342054204_3" arrivalPos="2.08" arrivalSpeed="12.42" duration="82.00" routeLength="119.10" waitingTime="59.00" waitingCount="2" stopTime="0.00" timeLoss="74.59" rerouteNo="0" devices="tripinfo_flow_route_12_duration_20250327_2040.7" vType="car" speedFactor="0.99" vaporized=""/>
    <tripinfo id="flow_route_12_duration_20250327_2040.13" depart="42.00" departLane="133000078#0_0" departPos="174.20" departSpeed="0.00" departDelay="0.96" arrival="106.00" arrivalLane="1342054204_3" arrivalPos="81.66" arrivalSpeed="16.44" duration="64.00" routeLength="205.26" waitingTime="37.00" waitingCount="1" stopTime="0.00" timeLoss="51.56" rerouteNo="0" devices="tripinfo_flow_route_12_duration_20250327_2040.13" vType="car" speedFactor="1.02" vaporized=""/>
    <tripinfo id="flow_route_12_duration_20250327_2040.6" depart="19.00" departLane="133000078#0_0" departPos="140.13" departSpeed="0.00" departDelay="0.06" arrival="109.00" arrivalLane="1342054204_3" arrivalPos="25.30" arrivalSpeed="14.08" duration="90.00" routeLength="182.97" waitingTime="47.00" waitingCount="2" stopTime="0.00" timeLoss="78.37" rerouteNo="0" devices="tripinfo_flow_route_12_duration_20250327_2040.6" vType="car" speedFactor="1.15" vaporized=""/>
    <tripinfo id="flow_route_8_duration_20250327_2040.3" depart="46.00" departLane="133000078#0_0" departPos="46.66" departSpeed="0.00" departDelay="1.00" arrival="109.00" arrivalLane="1235147073.116_0" arrivalPos="5.61" arrivalSpeed="15.10" duration="63.00" routeLength="319.13" waitingTime="16.00" waitingCount="1" stopTime="0.00" timeLoss="40.53" rerouteNo="0" devices="tripinfo_flow_route_8_duration_20250327_2040.3" vType="car" speedFactor="0.91" vaporized=""/>
    <tripinfo id="flow_route_12_duration_20250327_2040.3" depart="10.00" departLane="133000078#0_0" departPos="49.84" departSpeed="0.00" departDelay="0.53" arrival="111.00" arrivalLane="1342054204_3" arrivalPos="23.04" arrivalSpeed="14.58" duration="101.00" routeLength="270.99" waitingTime="47.00" waitingCount="2" stopTime="0.00" timeLoss="83.29" rerouteNo="0" devices="tripinfo_flow_route_12_duration_20250327_2040.3" vType="car" speedFactor="0.94" vaporized=""/>
    <tripinfo id="flow_route_12_duration_20250327_2040.2" depart="7.00" departLane="133000078#0_0" departPos="6.16" departSpeed="0.00" departDelay="0.69" arrival="116.00" arrivalLane="1342054204_3" arrivalPos="66.69" arrivalSpeed="16.47" duration="109.00" routeLength="358.33" waitingTime="45.00" waitingCount="2" stopTime="0.00" timeLoss="86.77" rerouteNo="0" devices="tripinfo_flow_route_12_duration_20250327_2040.2" vType="car" speedFactor="1.12" vaporized=""/>
    <tripinfo id="flow_route_12_duration_20250327_2040.16" depart="52.00" departLane="133000078#0_0" departPos="152.60" departSpeed="0.00" departDelay="1.49" arrival="118.00" arrivalLane="1342054204_3" arrivalPos="39.75" arrivalSpeed="14.65" duration="66.00" routeLength="184.96" waitingTime="36.00" waitingCount="2" stopTime="0.00" timeLoss="54.81" rerouteNo="0" devices="tripinfo_flow_route_12_duration_20250327_2040.16" vType="car" speedFactor="1.03" vaporized=""/>
    <tripinfo id="flow_route_7_duration_20250327_2040.3" depart="45.00" departLane="133000078#0_0" departPos="26.74" departSpeed="0.00" departDelay="0.00" arrival="121.00" arrivalLane="137406408#0_1" arrivalPos="41.04" arrivalSpeed="14.52" duration="76.00" routeLength="319.10" waitingTime="27.00" waitingCount="2" stopTime="0.00" timeLoss="54.06" rerouteNo="0" devices="tripinfo_flow_route_7_duration_20250327_2040.3" vType="car" speedFactor="0.88" vaporized=""/>
    <tripinfo id="flow_route_12_duration_20250327_2040.4" depart="13.00" departLane="133000078#0_0" departPos="37.86" departSpeed="0.00" departDelay="0.37" arrival="122.00" arrivalLane="1342054204_3" arrivalPos="26.85" arrivalSpeed="14.66" duration="109.00" routeLength="286.79" waitingTime="49.00" waitingCount="4" stopTime="0.00" timeLoss="88.96" rerouteNo="0" devices="tripinfo_flow_route_12_duration_20250327_2040.4" vType="car" speedFactor="0.89" vaporized=""/>
    <tripinfo id="flow_route_12_duration_20250327_2040.17" depart="54.00" departLane="133000078#0_0" departPos="109.09" departSpeed="0.00" departDelay="0.33" arrival="123.00" arrivalLane="1342054204_3" arrivalPos="85.69" arrivalSpeed="16.21" duration="69.00" routeLength="274.40" waitingTime="28.00" waitingCount="2" stopTime="0.00" timeLoss="52.03" rerouteNo="0" devices="tripinfo_flow_route_12_duration_20250327_2040.17" vType="car" speedFactor="1.09" vaporized=""/>
    <tripinfo id="flow_route_12_duration_20250327_2040.5" depart="17.00" departLane="133000078#0_0" departPos="16.52" departSpeed="0.00" departDelay="1.22" arrival="128.00" arrivalLane="1342054204_3" arrivalPos="29.57" arrivalSpeed="14.99" duration="111.00" routeLength="310.85" waitingTime="48.00" waitingCount="4" stopTime="0.00" timeLoss="91.91" rerouteNo="0" devices="tripinfo_flow_route_12_duration_20250327_2040.5" vType="car" speedFactor="1.13" vaporized=""/>
    <tripinfo id="flow_route_12_duration_20250327_2040.10" depart="32.00" departLane="133000078#0_0" departPos="118.38" departSpeed="0.00" departDelay="0.43" arrival="128.00" arrivalLane="1342054204_3" arrivalPos="59.39" arrivalSpeed="14.01" duration="96.00" routeLength="238.81" waitingTime="48.00" waitingCount="3" stopTime="0.00" timeLoss="79.01" rerouteNo="0" devices="tripinfo_flow_route_12_duration_20250327_2040.10" vType="car" speedFactor="0.85" vaporized=""/>
    <tripinfo id="flow_route_12_duration_20250327_2040.9" depart="29.00" departLane="133000078#0_0" departPos="99.11" departSpeed="0.00" departDelay="0.59" arrival="131.00" arrivalLane="1342054204_3" arrivalPos="12.31" arrivalSpeed="13.93" duration="102.00" routeLength="211.00" waitingTime="47.00" waitingCount="3" stopTime="0.00" timeLoss="88.61" rerouteNo="0" devices="tripinfo_flow_route_12_duration_20250327_2040.9" vType="car" speedFactor="1.04" vaporized=""/>
    <tripinfo id="flow_route_22_duration_20250327_2040.2" depart="13.00" departLane="137415945#0_0" departPos="6.27" departSpeed="0.00" departDelay="6.33" arrival="138.00" arrivalLane="1342054204_0" arrivalPos="13.88" arrivalSpeed="11.10" duration="125.00" routeLength="200.94" waitingTime="91.00" waitingCount="1" stopTime="0.00" timeLoss="112.58" rerouteNo="0" devices="tripinfo_flow_route_22_duration_20250327_2040.2" vType="car" speedFactor="0.99" vaporized=""/>
    <tripinfo id="flow_route_22_duration_20250327_2040.3" depart="25.00" departLane="137415945#0_0" departPos="12.37" departSpeed="0.00" departDelay="15.00" arrival="139.00" arrivalLane="1342054204_0" arrivalPos="19.46" arrivalSpeed="11.07" duration="114.00" routeLength="200.43" waitingTime="79.00" waitingCount="1" stopTime="0.00" timeLoss="101.54" rerouteNo="0" devices="tripinfo_flow_route_22_duration_20250327_2040.3" vType="car" speedFactor="1.16" vaporized=""/>
    <tripinfo id="flow_route_24_duration_20250327_2040.2" depart="31.00" departLane="137415945#0_0" departPos="3.53" departSpeed="0.00" departDelay="16.00" arrival="139.00" arrivalLane="137406408#0_0" arrivalPos="6.18" arrivalSpeed="9.86" duration="108.00" routeLength="171.65" waitingTime="76.00" waitingCount="1" stopTime="0.00" timeLoss="96.72" rerouteNo="0" devices="tripinfo_flow_route_24_duration_20250327_2040.2" vType="car" speedFactor="0.95" vaporized=""/>
    <tripinfo id="flow_route_24_duration_20250327_2040.1" depart="16.00" departLane="137415945#0_0" departPos="1.09" departSpeed="0.00" departDelay="8.50" arrival="143.00" arrivalLane="137406408#0_0" arrivalPos="63.23" arrivalSpeed="13.22" duration="127.00" routeLength="231.14" waitingTime="89.00" waitingCount="1" stopTime="0.00" timeLoss="110.96" rerouteNo="0" devices="tripinfo_flow_route_24_duration_20250327_2040.1" vType="car" speedFactor="0.93" vaporized=""/>
    <tripinfo id="flow_route_22_duration_20250327_2040.5" depart="37.00" departLane="137415945#0_0" departPos="4.31" departSpeed="0.00" departDelay="20.34" arrival="143.00" arrivalLane="1342054204_1" arrivalPos="15.76" arrivalSpeed="11.89" duration="106.00" routeLength="204.78" waitingTime="71.00" waitingCount="1" stopTime="0.00" timeLoss="92.61" rerouteNo="0" devices="tripinfo_flow_route_22_duration_20250327_2040.5" vType="car" speedFactor="0.93" vaporized=""/>
    <tripinfo id="flow_route_24_duration_20250327_2040.3" depart="47.00" departLane="137415945#0_0" departPos="11.71" departSpeed="0.00" departDelay="24.50" arrival="144.00" arrivalLane="137406408#0_0" arrivalPos="27.94" arrivalSpeed="12.11" duration="97.00" routeLength="185.24" waitingTime="63.00" waitingCount="1" stopTime="0.00" timeLoss="85.18" rerouteNo="0" devices="tripinfo_flow_route_24_duration_20250327_2040.3" vType="car" speedFactor="1.02" vaporized=""/>
    <tripinfo id="flow_route_22_duration_20250327_2040.4" depart="25.00" departLane="137415945#0_0" departPos="3.77" departSpeed="0.00" departDelay="11.67" arrival="145.00" arrivalLane="1342054204_1" arrivalPos="55.97" arrivalSpeed="13.26" duration="120.00" routeLength="245.53" waitingTime="79.00" waitingCount="1" stopTime="0.00" timeLoss="101.29" rerouteNo="0" devices="tripinfo_flow_route_22_duration_20250327_2040.4" vType="car" speedFactor="0.83" vaporized=""/>
    <tripinfo id="flow_route_10_duration_20250327_2040.4" depart="43.00" departLane="1252820505#0_0" departPos="38.81" departSpeed="0.00" departDelay="3.00" arrival="146.00" arrivalLane="1235147073.116_1" arrivalPos="1.75" arrivalSpeed="16.30" duration="103.00" routeLength="230.68" waitingTime="69.00" waitingCount="1" stopTime="0.00" timeLoss="88.83" rerouteNo="0" devices="tripinfo_flow_route_10_duration_20250327_2040.4" vType="car" speedFactor="1.08" vaporized=""/>
    <tripinfo id="flow_route_10_duration_20250327_2040.3" depart="30.00" departLane="1252820505#0_0" departPos="51.20" departSpeed="0.00" departDelay="0.00" arrival="147.00" arrivalLane="1235147073.116_0" arrivalPos="14.98" arrivalSpeed="14.91" duration="117.00" routeLength="231.51" waitingTime="83.00" waitingCount="1" stopTime="0.00" timeLoss="101.47" rerouteNo="0" devices="tripinfo_flow_route_10_duration_20250327_2040.3" vType="car" speedFactor="0.90" vaporized=""/>
    <tripinfo id="flow_route_22_duration_20250327_2040.6" depart="46.00" departLane="137415945#0_0" departPos="1.46" departSpeed="0.00" departDelay="26.00" arrival="148.00" arrivalLane="1342054204_1" arrivalPos="53.66" arrivalSpeed="14.91" duration="102.00" routeLength="245.53" waitingTime="60.00" waitingCount="1" stopTime="0.00" timeLoss="86.52" rerouteNo="0" devices="tripinfo_flow_route_22_duration_20250327_2040.6" vType="car" speedFactor="1.17" vaporized=""/>
    <tripinfo id="flow_route_22_duration_20250327_2040.7" depart="51.00" departLane="137415945#0_0" departPos="0.09" departSpeed="0.00" departDelay="27.67" arrival="148.00" arrivalLane="1342054204_0" arrivalPos="37.08" arrivalSpeed="13.78" duration="97.00" routeLength="230.32" waitingTime="59.00" waitingCount="1" stopTime="0.00" timeLoss="81.55" rerouteNo="0" devices="tripinfo_flow_route_22_duration_20250327_2040.7" vType="car" speedFactor="0.90" vaporized=""/>
    <tripinfo id="flow_route_10_duration_20250327_2040.5" depart="50.00" departLane="1252820505#0_0" departPos="10.38" departSpeed="0.00" departDelay="0.00" arrival="148.00" arrivalLane="1235147073.116_2" arrivalPos="11.48" arrivalSpeed="15.76" duration="98.00" routeLength="268.84" waitingTime="60.00" waitingCount="1" stopTime="0.00" timeLoss="80.24" rerouteNo="0" devices="tripinfo_flow_route_10_duration_20250327_2040.5" vType="car" speedFactor="0.96" vaporized=""/>
    <tripinfo id="flow_route_24_duration_20250327_2040.4" depart="68.00" departLane="137415945#0_0" departPos="0.17" departSpeed="0.00" departDelay="38.00" arrival="149.00" arrivalLane="137406408#0_0" arrivalPos="14.17" arrivalSpeed="12.99" duration="81.00" routeLength="183.00" waitingTime="45.00" waitingCount="1" stopTime="0.00" timeLoss="67.04" rerouteNo="0" devices="tripinfo_flow_route_24_duration_20250327_2040.4" vType="car" speedFactor="0.85" vaporized=""/>
    <tripinfo id="flow_route_24_duration_20250327_2040.5" depart="87.00" departLane="137415945#0_0" departPos="1.96" departSpeed="0.00" departDelay="49.50" arrival="149.00" arrivalLane="137406408#0_0" arrivalPos="1.08" arrivalSpeed="12.18" duration="62.00" routeLength="168.12" waitingTime="29.00" waitingCount="1" stopTime="0.00" timeLoss="51.19" rerouteNo="0" devices="tripinfo_flow_route_24_duration_20250327_2040.5" vType="car" speedFactor="0.97" vaporized=""/>
    <tripinfo id="flow_route_6_duration_20250327_2040.4" depart="48.00" departLane="1252820505#0_0" departPos="49.42" departSpeed="0.00" departDelay="0.00" arrival="149.00" arrivalLane="379698350#0_0" arrivalPos="96.07" arrivalSpeed="15.96" duration="101.00" routeLength="206.02" waitingTime="70.00" waitingCount="1" stopTime="0.00" timeLoss="87.48" rerouteNo="0" devices="tripinfo_flow_route_6_duration_20250327_2040.4" vType="car" speedFactor="0.97" vaporized=""/>
    <tripinfo id="flow_route_22_duration_20250327_2040.8" depart="59.00" departLane="137415945#0_0" departPos="2.94" departSpeed="0.00" departDelay="32.34" arrival="150.00" arrivalLane="1342054204_1" arrivalPos="68.13" arrivalSpeed="14.97" duration="91.00" routeLength="258.52" waitingTime="51.00" waitingCount="1" stopTime="0.00" timeLoss="75.40" rerouteNo="0" devices="tripinfo_flow_route_22_duration_20250327_2040.8" vType="car" speedFactor="1.09" vaporized=""/>
    <tripinfo id="flow_route_6_duration_20250327_2040.3" depart="36.00" departLane="1252820505#0_0" departPos="30.06" departSpeed="0.00" departDelay="0.00" arrival="152.00" arrivalLane="379698350#0_0" arrivalPos="182.98" arrivalSpeed="16.37" duration="116.00" routeLength="312.29" waitingTime="77.00" waitingCount="1" stopTime="0.00" timeLoss="97.15" rerouteNo="0" devices="tripinfo_flow_route_6_duration_20250327_2040.3" vType="car" speedFactor="1.00" vaporized=""/>
    <tripinfo id="flow_route_22_duration_20250327_2040.11" depart="83.00" departLane="137415945#0_0" departPos="6.10" departSpeed="0.00" departDelay="46.34" arrival="152.00" arrivalLane="1342054204_1" arrivalPos="41.02" arrivalSpeed="15.37" duration="69.00" routeLength="228.26" waitingTime="30.00" waitingCount="1" stopTime="0.00" timeLoss="55.00" rerouteNo="0" devices="tripinfo_flow_route_22_duration_20250327_2040.11" vType="car" speedFactor="1.14" vaporized=""/>
    <tripinfo id="flow_route_22_duration_20250327_2040.9" depart="65.00" departLane="137415945#0_0" departPos="10.54" departSpeed="0.00" departDelay="35.00" arrival="153.00" arrivalLane="1342054204_0" arrivalPos="73.75" arrivalSpeed="14.19" duration="88.00" routeLength="256.54" waitingTime="49.00" waitingCount="2" stopTime="0.00" timeLoss="69.57" rerouteNo="0" devices="tripinfo_flow_route_22_duration_20250327_2040.9" vType="car" speedFactor="0.88" vaporized=""/>