<?xml version="1.0" encoding="UTF-8"?>

<!-- generated on 2025-05-06 21:08:10 by Eclipse SUMO sumo Version 1.20.0
<configuration xmlns:xsi="http://www.w3.org/2001/XMLSchema-instance" xsi:noNamespaceSchemaLocation="http://sumo.dlr.de/xsd/sumoConfiguration.xsd">

    <input>
        <net-file value="osm.net.xml"/>
        <route-files value="xml/route_rl_GS_cluster_4854142864_4854142865_3.rou.xml"/>
    </input>

    <output>
        <tripinfo-output value="xml/tripinfo_rl_GS_cluster_4854142864_4854142865_3.xml"/>
    </output>

    <traci_server>
        <remote-port value="59879"/>
    </traci_server>

</configuration>
-->

<tripinfos xmlns:xsi="http://www.w3.org/2001/XMLSchema-instance" xsi:noNamespaceSchemaLocation="http://sumo.dlr.de/xsd/tripinfo_file.xsd">
    <tripinfo id="flow_route_39_duration_20250327_1940.0" depart="0.00" departLane="133126030#0_0" departPos="101.03" departSpeed="0.00" departDelay="0.00" arrival="29.00" arrivalLane="1328664748#0_0" arrivalPos="158.52" arrivalSpeed="15.14" duration="29.00" routeLength="263.70" waitingTime="0.00" waitingCount="0" stopTime="0.00" timeLoss="11.27" rerouteNo="0" devices="tripinfo_flow_route_39_duration_20250327_1940.0" vType="car" speedFactor="0.94" vaporized=""/>
    <tripinfo id="flow_route_38_duration_20250327_1940.0" depart="0.00" departLane="133126030#0_0" departPos="45.86" departSpeed="0.00" departDelay="0.00" arrival="34.00" arrivalLane="134193294#0_0" arrivalPos="152.84" arrivalSpeed="16.03" duration="34.00" routeLength="301.86" waitingTime="0.00" waitingCount="0" stopTime="0.00" timeLoss="15.00" rerouteNo="0" devices="tripinfo_flow_route_38_duration_20250327_1940.0" vType="car" speedFactor="1.06" vaporized=""/>
    <tripinfo id="flow_route_43_duration_20250327_1940.1" depart="6.00" departLane="1328664744#0_0" departPos="208.33" departSpeed="0.00" departDelay="0.55" arrival="48.00" arrivalLane="134193294#0_3" arrivalPos="52.67" arrivalSpeed="10.62" duration="42.00" routeLength="84.42" waitingTime="22.00" waitingCount="1" stopTime="0.00" timeLoss="35.96" rerouteNo="0" devices="tripinfo_flow_route_43_duration_20250327_1940.1" vType="car" speedFactor="1.09" vaporized=""/>
    <tripinfo id="flow_route_43_duration_20250327_1940.2" depart="11.00" departLane="1328664744#0_0" departPos="151.98" departSpeed="0.00" departDelay="0.09" arrival="48.00" arrivalLane="134193294#0_3" arrivalPos="27.29" arrivalSpeed="9.31" duration="37.00" routeLength="115.38" waitingTime="10.00" waitingCount="1" stopTime="0.00" timeLoss="28.17" rerouteNo="0" devices="tripinfo_flow_route_43_duration_20250327_1940.2" vType="car" speedFactor="0.93" vaporized=""/>
    <tripinfo id="flow_route_43_duration_20250327_1940.0" depart="0.00" departLane="1328664744#0_0" departPos="1.34" departSpeed="0.00" departDelay="0.00" arrival="55.00" arrivalLane="134193294#0_3" arrivalPos="84.30" arrivalSpeed="13.12" duration="55.00" routeLength="323.03" waitingTime="10.00" waitingCount="1" stopTime="0.00" timeLoss="34.44" rerouteNo="0" devices="tripinfo_flow_route_43_duration_20250327_1940.0" vType="car" speedFactor="1.08" vaporized=""/>
    <tripinfo id="flow_route_43_duration_20250327_1940.4" depart="22.00" departLane="1328664744#0_0" departPos="121.30" departSpeed="0.00" departDelay="0.18" arrival="58.00" arrivalLane="134193294#0_3" arrivalPos="26.05" arrivalSpeed="10.37" duration="36.00" routeLength="144.81" waitingTime="2.00" waitingCount="2" stopTime="0.00" timeLoss="25.53" rerouteNo="0" devices="tripinfo_flow_route_43_duration_20250327_1940.4" vType="car" speedFactor="0.92" vaporized=""/>
    <tripinfo id="flow_route_43_duration_20250327_1940.3" depart="17.00" departLane="1328664744#0_0" departPos="153.43" departSpeed="0.00" departDelay="0.64" arrival="59.00" arrivalLane="134193294#0_3" arrivalPos="102.28" arrivalSpeed="13.19" duration="42.00" routeLength="188.91" waitingTime="5.00" waitingCount="1" stopTime="0.00" timeLoss="29.41" rerouteNo="0" devices="tripinfo_flow_route_43_duration_20250327_1940.3" vType="car" speedFactor="0.97" vaporized=""/>
    <tripinfo id="flow_route_43_duration_20250327_1940.6" depart="33.00" departLane="1328664744#0_0" departPos="193.86" departSpeed="0.00" departDelay="0.28" arrival="64.00" arrivalLane="134193294#0_3" arrivalPos="121.92" arrivalSpeed="15.50" duration="31.00" routeLength="168.13" waitingTime="5.00" waitingCount="2" stopTime="0.00" timeLoss="18.82" rerouteNo="0" devices="tripinfo_flow_route_43_duration_20250327_1940.6" vType="car" speedFactor="0.96" vaporized=""/>
    <tripinfo id="flow_route_43_duration_20250327_1940.5" depart="28.00" departLane="1328664744#0_0" departPos="47.11" departSpeed="0.00" departDelay="0.73" arrival="69.00" arrivalLane="134193294#0_3" arrivalPos="123.83" arrivalSpeed="15.18" duration="41.00" routeLength="316.79" waitingTime="0.00" waitingCount="0" stopTime="0.00" timeLoss="21.16" rerouteNo="0" devices="tripinfo_flow_route_43_duration_20250327_1940.5" vType="car" speedFactor="1.17" vaporized=""/>
    <tripinfo id="flow_route_43_duration_20250327_1940.7" depart="39.00" departLane="1328664744#0_0" departPos="106.49" departSpeed="0.00" departDelay="0.82" arrival="74.00" arrivalLane="134193294#0_3" arrivalPos="122.36" arrivalSpeed="15.77" duration="35.00" routeLength="255.93" waitingTime="0.00" waitingCount="0" stopTime="0.00" timeLoss="18.27" rerouteNo="0" devices="tripinfo_flow_route_43_duration_20250327_1940.7" vType="car" speedFactor="1.00" vaporized=""/>
    <tripinfo id="flow_route_43_duration_20250327_1940.9" depart="50.00" departLane="1328664744#0_0" departPos="107.08" departSpeed="0.00" departDelay="0.91" arrival="78.00" arrivalLane="134193294#0_3" arrivalPos="94.22" arrivalSpeed="14.50" duration="28.00" routeLength="227.20" waitingTime="0.00" waitingCount="0" stopTime="0.00" timeLoss="12.89" rerouteNo="0" devices="tripinfo_flow_route_43_duration_20250327_1940.9" vType="car" speedFactor="1.14" vaporized=""/>
    <tripinfo id="flow_route_45_duration_20250327_1940.0" depart="0.00" departLane="791826085_0" departPos="152.03" departSpeed="0.00" departDelay="0.00" arrival="84.00" arrivalLane="485211947#0_0" arrivalPos="8.08" arrivalSpeed="5.86" duration="84.00" routeLength="191.81" waitingTime="48.00" waitingCount="1" stopTime="0.00" timeLoss="68.93" rerouteNo="0" devices="tripinfo_flow_route_45_duration_20250327_1940.0" vType="car" speedFactor="0.83" vaporized=""/>
    <tripinfo id="flow_route_44_duration_20250327_1940.3" depart="10.00" departLane="791826085_0" departPos="249.33" departSpeed="0.00" departDelay="0.53" arrival="89.00" arrivalLane="134193294#0_0" arrivalPos="51.76" arrivalSpeed="11.81" duration="79.00" routeLength="156.81" waitingTime="48.00" waitingCount="1" stopTime="0.00" timeLoss="69.05" rerouteNo="0" devices="tripinfo_flow_route_44_duration_20250327_1940.3" vType="car" speedFactor="0.99" vaporized=""/>
    <tripinfo id="flow_route_44_duration_20250327_1940.0" depart="0.00" departLane="791826085_0" departPos="219.49" departSpeed="0.00" departDelay="0.00" arrival="90.00" arrivalLane="134193294#0_1" arrivalPos="101.20" arrivalSpeed="15.02" duration="90.00" routeLength="236.08" waitingTime="53.00" waitingCount="1" stopTime="0.00" timeLoss="75.25" rerouteNo="0" devices="tripinfo_flow_route_44_duration_20250327_1940.0" vType="car" speedFactor="1.03" vaporized=""/>
    <tripinfo id="flow_route_44_duration_20250327_1940.7" depart="28.00" departLane="791826085_0" departPos="114.75" departSpeed="0.00" departDelay="5.90" arrival="92.00" arrivalLane="134193294#0_1" arrivalPos="11.49" arrivalSpeed="10.43" duration="64.00" routeLength="251.11" waitingTime="26.00" waitingCount="1" stopTime="0.00" timeLoss="47.30" rerouteNo="0" devices="tripinfo_flow_route_44_duration_20250327_1940.7" vType="car" speedFactor="0.93" vaporized=""/>
    <tripinfo id="flow_route_44_duration_20250327_1940.1" depart="4.00" departLane="791826085_0" departPos="105.00" departSpeed="0.00" departDelay="0.84" arrival="93.00" arrivalLane="134193294#0_1" arrivalPos="45.37" arrivalSpeed="11.53" duration="89.00" routeLength="294.74" waitingTime="46.00" waitingCount="1" stopTime="0.00" timeLoss="68.57" rerouteNo="0" devices="tripinfo_flow_route_44_duration_20250327_1940.1" vType="car" speedFactor="0.89" vaporized=""/>
    <tripinfo id="flow_route_44_duration_20250327_1940.2" depart="7.00" departLane="791826085_0" departPos="289.48" departSpeed="0.00" departDelay="0.69" arrival="93.00" arrivalLane="134193294#0_0" arrivalPos="141.40" arrivalSpeed="15.96" duration="86.00" routeLength="206.29" waitingTime="54.00" waitingCount="1" stopTime="0.00" timeLoss="73.41" rerouteNo="0" devices="tripinfo_flow_route_44_duration_20250327_1940.2" vType="car" speedFactor="1.03" vaporized=""/>
    <tripinfo id="flow_route_46_duration_20250327_1940.0" depart="1.00" departLane="791826085_0" departPos="184.68" departSpeed="0.00" departDelay="1.00" arrival="94.00" arrivalLane="1328664748#0_1" arrivalPos="165.37" arrivalSpeed="16.45" duration="93.00" routeLength="329.48" waitingTime="50.00" waitingCount="1" stopTime="0.00" timeLoss="72.28" rerouteNo="0" devices="tripinfo_flow_route_46_duration_20250327_1940.0" vType="car" speedFactor="1.05" vaporized=""/>
    <tripinfo id="flow_route_45_duration_20250327_1940.1" depart="5.00" departLane="791826085_0" departPos="15.07" departSpeed="0.00" departDelay="1.47" arrival="95.00" arrivalLane="485211947#0_0" arrivalPos="11.17" arrivalSpeed="7.18" duration="90.00" routeLength="331.86" waitingTime="35.00" waitingCount="1" stopTime="0.00" timeLoss="67.95" rerouteNo="0" devices="tripinfo_flow_route_45_duration_20250327_1940.1" vType="car" speedFactor="0.94" vaporized=""/>
    <tripinfo id="flow_route_46_duration_20250327_1940.3" depart="14.00" departLane="791826085_0" departPos="86.12" departSpeed="0.00" departDelay="3.41" arrival="95.00" arrivalLane="1328664748#0_1" arrivalPos="6.64" arrivalSpeed="9.55" duration="81.00" routeLength="269.30" waitingTime="38.00" waitingCount="1" stopTime="0.00" timeLoss="62.75" rerouteNo="0" devices="tripinfo_flow_route_46_duration_20250327_1940.3" vType="car" speedFactor="0.94" vaporized=""/>
    <tripinfo id="flow_route_44_duration_20250327_1940.6" depart="21.00" departLane="791826085_0" departPos="209.26" departSpeed="0.00" departDelay="2.06" arrival="95.00" arrivalLane="134193294#0_0" arrivalPos="84.50" arrivalSpeed="13.92" duration="74.00" routeLength="229.61" waitingTime="37.00" waitingCount="1" stopTime="0.00" timeLoss="58.22" rerouteNo="0" devices="tripinfo_flow_route_44_duration_20250327_1940.6" vType="car" speedFactor="0.87" vaporized=""/>
    <tripinfo id="flow_route_44_duration_20250327_1940.8" depart="30.00" departLane="791826085_0" departPos="136.05" departSpeed="0.00" departDelay="4.74" arrival="96.00" arrivalLane="134193294#0_1" arrivalPos="35.54" arrivalSpeed="11.15" duration="66.00" routeLength="253.85" waitingTime="23.00" waitingCount="1" stopTime="0.00" timeLoss="50.65" rerouteNo="0" devices="tripinfo_flow_route_44_duration_20250327_1940.8" vType="car" speedFactor="1.01" vaporized=""/>
    <tripinfo id="flow_route_46_duration_20250327_1940.1" depart="6.00" departLane="791826085_0" departPos="206.60" departSpeed="0.00" departDelay="2.47" arrival="99.00" arrivalLane="1328664748#0_1" arrivalPos="194.81" arrivalSpeed="14.15" duration="93.00" routeLength="337.00" waitingTime="48.00" waitingCount="1" stopTime="0.00" timeLoss="67.65" rerouteNo="0" devices="tripinfo_flow_route_46_duration_20250327_1940.1" vType="car" speedFactor="0.86" vaporized=""/>
    <tripinfo id="flow_route_45_duration_20250327_1940.2" depart="8.00" departLane="791826085_0" departPos="77.20" departSpeed="0.00" departDelay="0.94" arrival="99.00" arrivalLane="485211947#0_0" arrivalPos="73.48" arrivalSpeed="12.08" duration="91.00" routeLength="332.04" waitingTime="36.00" waitingCount="1" stopTime="0.00" timeLoss="69.70" rerouteNo="0" devices="tripinfo_flow_route_45_duration_20250327_1940.2" vType="car" speedFactor="1.05" vaporized=""/>
    <tripinfo id="flow_route_44_duration_20250327_1940.5" depart="16.00" departLane="791826085_0" departPos="233.37" departSpeed="0.00" departDelay="0.22" arrival="100.00" arrivalLane="134193294#0_2" arrivalPos="139.24" arrivalSpeed="16.36" duration="84.00" routeLength="260.24" waitingTime="47.00" waitingCount="1" stopTime="0.00" timeLoss="67.79" rerouteNo="0" devices="tripinfo_flow_route_44_duration_20250327_1940.5" vType="car" speedFactor="1.01" vaporized=""/>
    <tripinfo id="flow_route_44_duration_20250327_1940.4" depart="14.00" departLane="791826085_0" departPos="72.77" departSpeed="0.00" departDelay="1.37" arrival="101.00" arrivalLane="134193294#0_1" arrivalPos="70.56" arrivalSpeed="14.41" duration="87.00" routeLength="352.16" waitingTime="17.00" waitingCount="1" stopTime="0.00" timeLoss="63.73" rerouteNo="0" devices="tripinfo_flow_route_44_duration_20250327_1940.4" vType="car" speedFactor="0.94" vaporized=""/>
    <tripinfo id="flow_route_46_duration_20250327_1940.4" depart="16.00" departLane="791826085_0" departPos="217.90" departSpeed="0.00" departDelay="1.88" arrival="101.00" arrivalLane="1328664748#0_1" arrivalPos="127.18" arrivalSpeed="16.10" duration="85.00" routeLength="258.07" waitingTime="46.00" waitingCount="1" stopTime="0.00" timeLoss="68.13" rerouteNo="0" devices="tripinfo_flow_route_46_duration_20250327_1940.4" vType="car" speedFactor="1.02" vaporized=""/>
    <tripinfo id="flow_route_46_duration_20250327_1940.2" depart="8.00" departLane="791826085_0" departPos="10.57" departSpeed="0.00" departDelay="0.94" arrival="102.00" arrivalLane="1328664748#0_1" arrivalPos="121.10" arrivalSpeed="15.40" duration="94.00" routeLength="459.32" waitingTime="40.00" waitingCount="1" stopTime="0.00" timeLoss="65.60" rerouteNo="0" devices="tripinfo_flow_route_46_duration_20250327_1940.2" vType="car" speedFactor="1.12" vaporized=""/>
    <tripinfo id="flow_route_46_duration_20250327_1940.7" depart="30.00" departLane="791826085_0" departPos="190.79" departSpeed="0.00" departDelay="5.30" arrival="103.00" arrivalLane="1328664748#0_1" arrivalPos="75.43" arrivalSpeed="14.76" duration="73.00" routeLength="233.43" waitingTime="33.00" waitingCount="1" stopTime="0.00" timeLoss="57.70" rerouteNo="0" devices="tripinfo_flow_route_46_duration_20250327_1940.7" vType="car" speedFactor="1.15" vaporized=""/>
    <tripinfo id="flow_route_46_duration_20250327_1940.5" depart="20.00" departLane="791826085_0" departPos="311.42" departSpeed="0.00" departDelay="2.36" arrival="104.00" arrivalLane="1328664748#0_1" arrivalPos="213.58" arrivalSpeed="13.65" duration="84.00" routeLength="250.94" waitingTime="53.00" waitingCount="1" stopTime="0.00" timeLoss="64.16" rerouteNo="0" devices="tripinfo_flow_route_46_duration_20250327_1940.5" vType="car" speedFactor="0.83" vaporized=""/>
    <tripinfo id="flow_route_44_duration_20250327_1940.11" depart="40.00" departLane="791826085_0" departPos="13.89" departSpeed="0.00" departDelay="5.27" arrival="104.00" arrivalLane="134193294#0_1" arrivalPos="50.83" arrivalSpeed="13.57" duration="64.00" routeLength="391.31" waitingTime="14.00" waitingCount="1" stopTime="0.00" timeLoss="40.38" rerouteNo="0" devices="tripinfo_flow_route_44_duration_20250327_1940.11" vType="car" speedFactor="1.09" vaporized=""/>
    <tripinfo id="flow_route_45_duration_20250327_1940.3" depart="11.00" departLane="791826085_0" departPos="108.05" departSpeed="0.00" departDelay="0.41" arrival="105.00" arrivalLane="485211947#0_0" arrivalPos="177.25" arrivalSpeed="14.29" duration="94.00" routeLength="404.96" waitingTime="37.00" waitingCount="1" stopTime="0.00" timeLoss="64.43" rerouteNo="0" devices="tripinfo_flow_route_45_duration_20250327_1940.3" vType="car" speedFactor="0.88" vaporized=""/>
    <tripinfo id="flow_route_44_duration_20250327_1940.9" depart="31.00" departLane="791826085_0" departPos="7.78" departSpeed="0.00" departDelay="2.59" arrival="105.00" arrivalLane="134193294#0_1" arrivalPos="116.42" arrivalSpeed="16.22" duration="74.00" routeLength="463.01" waitingTime="17.00" waitingCount="1" stopTime="0.00" timeLoss="45.96" rerouteNo="0" devices="tripinfo_flow_route_44_duration_20250327_1940.9" vType="car" speedFactor="0.99" vaporized=""/>
    <tripinfo id="flow_route_45_duration_20250327_1940.7" depart="29.00" departLane="791826085_0" departPos="127.11" departSpeed="0.00" departDelay="4.30" arrival="106.00" arrivalLane="485211947#0_0" arrivalPos="58.16" arrivalSpeed="11.21" duration="77.00" routeLength="266.81" waitingTime="28.00" waitingCount="1" stopTime="0.00" timeLoss="60.46" rerouteNo="0" devices="tripinfo_flow_route_45_duration_20250327_1940.7" vType="car" speedFactor="1.18" vaporized=""/>
    <tripinfo id="flow_route_45_duration_20250327_1940.8" depart="32.00" departLane="791826085_0" departPos="160.68" departSpeed="0.00" departDelay="3.77" arrival="106.00" arrivalLane="485211947#0_0" arrivalPos="78.42" arrivalSpeed="11.94" duration="74.00" routeLength="253.50" waitingTime="28.00" waitingCount="1" stopTime="0.00" timeLoss="57.63" rerouteNo="0" devices="tripinfo_flow_route_45_duration_20250327_1940.8" vType="car" speedFactor="1.02" vaporized=""/>
    <tripinfo id="flow_route_44_duration_20250327_1940.12" depart="53.00" departLane="791826085_0" departPos="0.28" departSpeed="0.00" departDelay="15.12" arrival="106.00" arrivalLane="134193294#0_1" arrivalPos="48.24" arrivalSpeed="13.90" duration="53.00" routeLength="402.33" waitingTime="2.00" waitingCount="1" stopTime="0.00" timeLoss="28.76" rerouteNo="0" devices="tripinfo_flow_route_44_duration_20250327_1940.12" vType="car" speedFactor="1.09" vaporized=""/>
    <tripinfo id="flow_route_45_duration_20250327_1940.9" depart="37.00" departLane="791826085_0" departPos="215.84" departSpeed="0.00" departDelay="5.24" arrival="107.00" arrivalLane="485211947#0_0" arrivalPos="115.85" arrivalSpeed="13.84" duration="70.00" routeLength="235.77" waitingTime="29.00" waitingCount="1" stopTime="0.00" timeLoss="52.99" rerouteNo="0" devices="tripinfo_flow_route_45_duration_20250327_1940.9" vType="car" speedFactor="0.90" vaporized=""/>
    <tripinfo id="flow_route_46_duration_20250327_1940.6" depart="27.00" departLane="791826085_0" departPos="15.28" departSpeed="0.00" departDelay="5.83" arrival="108.00" arrivalLane="1328664748#0_1" arrivalPos="62.04" arrivalSpeed="13.73" duration="81.00" routeLength="395.55" waitingTime="28.00" waitingCount="1" stopTime="0.00" timeLoss="55.88" rerouteNo="0" devices="tripinfo_flow_route_46_duration_20250327_1940.6" vType="car" speedFactor="1.13" vaporized=""/>
    <tripinfo id="flow_route_45_duration_20250327_1940.6" depart="25.00" departLane="791826085_0" departPos="28.05" departSpeed="0.00" departDelay="3.83" arrival="109.00" arrivalLane="485211947#0_0" arrivalPos="5.16" arrivalSpeed="6.62" duration="84.00" routeLength="312.87" waitingTime="26.00" waitingCount="1" stopTime="0.00" timeLoss="62.72" rerouteNo="0" devices="tripinfo_flow_route_45_duration_20250327_1940.6" vType="car" speedFactor="0.95" vaporized=""/>
    <tripinfo id="flow_route_44_duration_20250327_1940.10" depart="36.00" departLane="791826085_0" departPos="33.11" departSpeed="0.00" departDelay="4.43" arrival="109.00" arrivalLane="134193294#0_1" arrivalPos="150.19" arrivalSpeed="16.59" duration="73.00" routeLength="471.45" waitingTime="16.00" waitingCount="1" stopTime="0.00" timeLoss="44.26" rerouteNo="0" devices="tripinfo_flow_route_44_duration_20250327_1940.10" vType="car" speedFactor="1.10" vaporized=""/>
    <tripinfo id="flow_route_45_duration_20250327_1940.4" depart="16.00" departLane="791826085_0" departPos="29.03" departSpeed="0.00" departDelay="1.88" arrival="110.00" arrivalLane="485211947#0_0" arrivalPos="31.12" arrivalSpeed="9.40" duration="94.00" routeLength="337.85" waitingTime="26.00" waitingCount="1" stopTime="0.00" timeLoss="72.70" rerouteNo="0" devices="tripinfo_flow_route_45_duration_20250327_1940.4" vType="car" speedFactor="1.16" vaporized=""/>
    <tripinfo id="flow_route_46_duration_20250327_1940.8" depart="34.00" departLane="791826085_0" departPos="187.09" departSpeed="0.00" departDelay="5.77" arrival="111.00" arrivalLane="1328664748#0_1" arrivalPos="136.86" arrivalSpeed="16.17" duration="77.00" routeLength="298.56" waitingTime="28.00" waitingCount="1" stopTime="0.00" timeLoss="57.11" rerouteNo="0" devices="tripinfo_flow_route_46_duration_20250327_1940.8" vType="car" speedFactor="0.97" vaporized=""/>
    <tripinfo id="flow_route_44_duration_20250327_1940.14" depart="67.00" departLane="791826085_0" departPos="51.40" departSpeed="0.00" departDelay="22.80" arrival="111.00" arrivalLane="134193294#0_1" arrivalPos="65.09" arrivalSpeed="13.73" duration="44.00" routeLength="368.06" waitingTime="0.00" waitingCount="0" stopTime="0.00" timeLoss="21.32" rerouteNo="0" devices="tripinfo_flow_route_44_duration_20250327_1940.14" vType="car" speedFactor="1.10" vaporized=""/>
    <tripinfo id="flow_route_46_duration_20250327_1940.9" depart="38.00" departLane="791826085_0" departPos="232.28" departSpeed="0.00" departDelay="6.24" arrival="112.00" arrivalLane="1328664748#0_1" arrivalPos="205.78" arrivalSpeed="16.25" duration="74.00" routeLength="322.30" waitingTime="30.00" waitingCount="1" stopTime="0.00" timeLoss="53.64" rerouteNo="0" devices="tripinfo_flow_route_46_duration_20250327_1940.9" vType="car" speedFactor="1.03" vaporized=""/>
    <tripinfo id="flow_route_44_duration_20250327_1940.15" depart="68.00" departLane="791826085_0" departPos="37.40" departSpeed="0.00" departDelay="20.65" arrival="116.00" arrivalLane="134193294#0_1" arrivalPos="109.98" arrivalSpeed="14.84" duration="48.00" routeLength="426.95" waitingTime="0.00" waitingCount="0" stopTime="0.00" timeLoss="18.59" rerouteNo="0" devices="tripinfo_flow_route_44_duration_20250327_1940.15" vType="car" speedFactor="0.90" vaporized=""/>
    <tripinfo id="flow_route_45_duration_20250327_1940.10" depart="43.00" departLane="791826085_0" departPos="112.37" departSpeed="0.00" departDelay="7.71" arrival="117.00" arrivalLane="485211947#0_0" arrivalPos="63.53" arrivalSpeed="12.17" duration="74.00" routeLength="286.92" waitingTime="25.00" waitingCount="1" stopTime="0.00" timeLoss="55.80" rerouteNo="0" devices="tripinfo_flow_route_45_duration_20250327_1940.10" vType="car" speedFactor="1.04" vaporized=""/>
    <tripinfo id="flow_route_44_duration_20250327_1940.13" depart="61.00" departLane="791826085_0" departPos="108.55" departSpeed="0.00" departDelay="19.96" arrival="117.00" arrivalLane="134193294#0_1" arrivalPos="167.80" arrivalSpeed="14.08" duration="56.00" routeLength="413.63" waitingTime="0.00" waitingCount="0" stopTime="0.00" timeLoss="26.03" rerouteNo="0" devices="tripinfo_flow_route_44_duration_20250327_1940.13" vType="car" speedFactor="0.85" vaporized=""/>
    <tripinfo id="flow_route_45_duration_20250327_1940.5" depart="20.00" departLane="791826085_0" departPos="54.92" departSpeed="0.00" departDelay="2.36" arrival="119.00" arrivalLane="485211947#0_0" arrivalPos="173.26" arrivalSpeed="14.56" duration="99.00" routeLength="454.10" waitingTime="27.00" waitingCount="1" stopTime="0.00" timeLoss="66.72" rerouteNo="0" devices="tripinfo_flow_route_45_duration_20250327_1940.5" vType="car" speedFactor="0.89" vaporized=""/>
    <tripinfo id="flow_route_46_duration_20250327_1940.10" depart="51.00" departLane="791826085_0" departPos="54.63" departSpeed="0.00" departDelay="15.71" arrival="119.00" arrivalLane="1328664748#0_1" arrivalPos="155.63" arrivalSpeed="14.72" duration="68.00" routeLength="449.79" waitingTime="8.00" waitingCount="1" stopTime="0.00" timeLoss="39.58" rerouteNo="0" devices="tripinfo_flow_route_46_duration_20250327_1940.10" vType="car" speedFactor="1.04" vaporized=""/>
    <tripinfo id="flow_route_46_duration_20250327_1940.11" depart="60.00" departLane="791826085_0" departPos="150.96" departSpeed="0.00" departDelay="21.18" arrival="120.00" arrivalLane="1328664748#0_1" arrivalPos="196.24" arrivalSpeed="14.16" duration="60.00" routeLength="394.06" waitingTime="8.00" waitingCount="1" stopTime="0.00" timeLoss="31.43" rerouteNo="0" devices="tripinfo_flow_route_46_duration_20250327_1940.11" vType="car" speedFactor="0.88" vaporized=""/>
    <tripinfo id="flow_route_44_duration_20250327_1940.17" depart="87.00" departLane="791826085_0" departPos="148.62" departSpeed="0.00" departDelay="33.33" arrival="120.00" arrivalLane="134193294#0_1" arrivalPos="157.58" arrivalSpeed="16.14" duration="33.00" routeLength="363.33" waitingTime="0.00" waitingCount="0" stopTime="0.00" timeLoss="10.67" rerouteNo="0" devices="tripinfo_flow_route_44_duration_20250327_1940.17" vType="car" speedFactor="0.99" vaporized=""/>
    <tripinfo id="flow_route_46_duration_20250327_1940.13" depart="67.00" departLane="791826085_0" departPos="42.23" departSpeed="0.00" departDelay="21.12" arrival="121.00" arrivalLane="1328664748#0_1" arrivalPos="127.56" arrivalSpeed="16.59" duration="54.00" routeLength="434.12" waitingTime="0.00" waitingCount="0" stopTime="0.00" timeLoss="26.33" rerouteNo="0" devices="tripinfo_flow_route_46_duration_20250327_1940.13" vType="car" speedFactor="1.00" vaporized=""/>
    <tripinfo id="flow_route_46_duration_20250327_1940.12" depart="62.00" departLane="791826085_0" departPos="145.63" departSpeed="0.00" departDelay="19.65" arrival="123.00" arrivalLane="1328664748#0_1" arrivalPos="201.23" arrivalSpeed="16.30" duration="61.00" routeLength="404.39" waitingTime="9.00" waitingCount="2" stopTime="0.00" timeLoss="35.82" rerouteNo="0" devices="tripinfo_flow_route_46_duration_20250327_1940.12" vType="car" speedFactor="1.17" vaporized=""/>
    <tripinfo id="flow_route_43_duration_20250327_1940.8" depart="44.00" departLane="1328664744#0_0" departPos="61.52" departSpeed="0.00" departDelay="0.37" arrival="163.00" arrivalLane="134193294#0_3" arrivalPos="73.91" arrivalSpeed="11.06" duration="119.00" routeLength="252.46" waitingTime="77.00" waitingCount="1" stopTime="0.00" timeLoss="102.86" rerouteNo="0" devices="tripinfo_flow_route_43_duration_20250327_1940.8" vType="car" speedFactor="1.02" vaporized=""/>
    <tripinfo id="flow_route_43_duration_20250327_1940.10" depart="55.00" departLane="1328664744#0_0" departPos="91.37" departSpeed="0.00" departDelay="0.46" arrival="166.00" arrivalLane="134193294#0_3" arrivalPos="83.44" arrivalSpeed="12.46" duration="111.00" routeLength="232.14" waitingTime="73.00" waitingCount="1" stopTime="0.00" timeLoss="94.67" rerouteNo="0" devices="tripinfo_flow_route_43_duration_20250327_1940.10" vType="car" speedFactor="0.94" vaporized=""/>
    <tripinfo id="flow_route_45_duration_20250327_1940.12" depart="61.00" departLane="791826085_0" departPos="67.67" departSpeed="0.00" departDelay="18.65" arrival="196.00" arrivalLane="485211947#0_0" arrivalPos="28.45" arrivalSpeed="8.24" duration="135.00" routeLength="296.54" waitingTime="79.00" waitingCount="2" stopTime="0.00" timeLoss="113.15" rerouteNo="0" devices="tripinfo_flow_route_45_duration_20250327_1940.12" vType="car" speedFactor="0.85" vaporized=""/>
    <tripinfo id="flow_route_45_duration_20250327_1940.11" depart="56.00" departLane="791826085_0" departPos="37.29" departSpeed="0.00" departDelay="17.18" arrival="199.00" arrivalLane="485211947#0_0" arrivalPos="26.15" arrivalSpeed="8.54" duration="143.00" routeLength="324.62" waitingTime="77.00" waitingCount="2" stopTime="0.00" timeLoss="119.93" rerouteNo="0" devices="tripinfo_flow_route_45_duration_20250327_1940.11" vType="car" speedFactor="0.90" vaporized=""/>
    <tripinfo id="flow_route_45_duration_20250327_1940.14" depart="69.00" departLane="791826085_0" departPos="73.70" departSpeed="0.00" departDelay="19.59" arrival="201.00" arrivalLane="485211947#0_0" arrivalPos="2.71" arrivalSpeed="7.59" duration="132.00" routeLength="264.77" waitingTime="71.00" waitingCount="2" stopTime="0.00" timeLoss="115.08" rerouteNo="0" devices="tripinfo_flow_route_45_duration_20250327_1940.14" vType="car" speedFactor="1.02" vaporized=""/>
    <tripinfo id="flow_route_45_duration_20250327_1940.13" depart="67.00" departLane="791826085_0" departPos="189.01" departSpeed="0.00" departDelay="21.12" arrival="202.00" arrivalLane="485211947#0_0" arrivalPos="109.82" arrivalSpeed="14.39" duration="135.00" routeLength="256.57" waitingTime="83.00" waitingCount="2" stopTime="0.00" timeLoss="118.05" rerouteNo="0" devices="tripinfo_flow_route_45_duration_20250327_1940.13" vType="car" speedFactor="1.00" vaporized=""/>
    <tripinfo id="flow_route_46_duration_20250327_1940.15" depart="83.00" departLane="791826085_0" departPos="11.29" departSpeed="0.00" departDelay="30.07" arrival="203.00" arrivalLane="1328664748#0_1" arrivalPos="75.39" arrivalSpeed="11.82" duration="120.00" routeLength="412.89" waitingTime="71.00" waitingCount="1" stopTime="0.00" timeLoss="94.32" rerouteNo="0" devices="tripinfo_flow_route_46_duration_20250327_1940.15" vType="car" speedFactor="1.02" vaporized=""/>
    <tripinfo id="flow_route_44_duration_20250327_1940.16" depart="83.00" departLane="791826085_0" departPos="27.59" departSpeed="0.00" departDelay="32.49" arrival="206.00" arrivalLane="134193294#0_1" arrivalPos="154.96" arrivalSpeed="16.13" duration="123.00" routeLength="481.75" waitingTime="69.00" waitingCount="1" stopTime="0.00" timeLoss="93.74" rerouteNo="0" devices="tripinfo_flow_route_44_duration_20250327_1940.16" vType="car" speedFactor="1.08" vaporized=""/>
    <tripinfo id="flow_route_45_duration_20250327_1940.15" depart="83.00" departLane="791826085_0" departPos="185.76" departSpeed="0.00" departDelay="30.07" arrival="206.00" arrivalLane="485211947#0_0" arrivalPos="87.14" arrivalSpeed="12.47" duration="123.00" routeLength="237.14" waitingTime="71.00" waitingCount="2" stopTime="0.00" timeLoss="107.66" rerouteNo="0" devices="tripinfo_flow_route_45_duration_20250327_1940.15" vType="car" speedFactor="1.12" vaporized=""/>