<?xml version="1.0" encoding="UTF-8"?>

<!-- generated on 2025-05-06 21:08:35 by Eclipse SUMO sumo Version 1.20.0
<configuration xmlns:xsi="http://www.w3.org/2001/XMLSchema-instance" xsi:noNamespaceSchemaLocation="http://sumo.dlr.de/xsd/sumoConfiguration.xsd">

    <input>
        <net-file value="osm.net.xml"/>
        <route-files value="xml/route_static_cluster_3839031475_3839031476_4110471700_4234582615_5.rou.xml"/>
    </input>

    <output>
        <tripinfo-output value="xml/tripinfo_static_cluster_3839031475_3839031476_4110471700_4234582615_5.xml"/>
    </output>

    <traci_server>
        <remote-port value="51333"/>
    </traci_server>

</configuration>
-->

<tripinfos xmlns:xsi="http://www.w3.org/2001/XMLSchema-instance" xsi:noNamespaceSchemaLocation="http://sumo.dlr.de/xsd/tripinfo_file.xsd">
    <tripinfo id="flow_route_85_duration_20250327_2210.0" depart="0.00" departLane="1091883842_0" departPos="162.60" departSpeed="0.00" departDelay="0.00" arrival="16.00" arrivalLane="133000063_0" arrivalPos="42.63" arrivalSpeed="9.42" duration="16.00" routeLength="74.77" waitingTime="0.00" waitingCount="0" stopTime="0.00" timeLoss="9.16" rerouteNo="0" devices="tripinfo_flow_route_85_duration_20250327_2210.0" vType="car" speedFactor="0.89" vaporized=""/>
    <tripinfo id="flow_route_79_duration_20250327_2210.0" depart="0.00" departLane="380344611#0_0" departPos="128.21" departSpeed="0.00" departDelay="0.00" arrival="28.00" arrivalLane="423956929_1" arrivalPos="91.18" arrivalSpeed="16.56" duration="28.00" routeLength="278.79" waitingTime="0.00" waitingCount="0" stopTime="0.00" timeLoss="10.44" rerouteNo="0" devices="tripinfo_flow_route_79_duration_20250327_2210.0" vType="car" speedFactor="1.08" vaporized=""/>
    <tripinfo id="flow_route_81_duration_20250327_2210.0" depart="0.00" departLane="380344611#0_0" departPos="75.01" departSpeed="0.00" departDelay="0.00" arrival="30.00" arrivalLane="133000063_2" arrivalPos="7.51" arrivalSpeed="8.97" duration="30.00" routeLength="248.37" waitingTime="0.00" waitingCount="0" stopTime="0.00" timeLoss="11.03" rerouteNo="0" devices="tripinfo_flow_route_81_duration_20250327_2210.0" vType="car" speedFactor="0.83" vaporized=""/>
    <tripinfo id="flow_route_80_duration_20250327_2210.0" depart="0.00" departLane="380344611#0_0" departPos="160.58" departSpeed="0.00" departDelay="0.00" arrival="31.00" arrivalLane="380593307#0_0" arrivalPos="102.42" arrivalSpeed="13.63" duration="31.00" routeLength="234.46" waitingTime="0.00" waitingCount="0" stopTime="0.00" timeLoss="15.36" rerouteNo="0" devices="tripinfo_flow_route_80_duration_20250327_2210.0" vType="car" speedFactor="1.03" vaporized=""/>
    <tripinfo id="flow_route_90_duration_20250327_2210.0" depart="0.00" departLane="380585338#0_0" departPos="118.71" departSpeed="0.00" departDelay="0.00" arrival="33.00" arrivalLane="136617981_0" arrivalPos="211.18" arrivalSpeed="13.85" duration="33.00" routeLength="279.54" waitingTime="0.00" waitingCount="0" stopTime="0.00" timeLoss="11.71" rerouteNo="0" devices="tripinfo_flow_route_90_duration_20250327_2210.0" vType="car" speedFactor="0.86" vaporized=""/>
    <tripinfo id="flow_route_81_duration_20250327_2210.1" depart="8.00" departLane="380344611#0_0" departPos="145.46" departSpeed="0.00" departDelay="0.50" arrival="33.00" arrivalLane="133000063_2" arrivalPos="7.96" arrivalSpeed="9.85" duration="25.00" routeLength="178.37" waitingTime="0.00" waitingCount="0" stopTime="0.00" timeLoss="13.52" rerouteNo="0" devices="tripinfo_flow_route_81_duration_20250327_2210.1" vType="car" speedFactor="1.09" vaporized=""/>
    <tripinfo id="flow_route_84_duration_20250327_2210.0" depart="0.00" departLane="1091883842_0" departPos="11.19" departSpeed="0.00" departDelay="0.00" arrival="36.00" arrivalLane="136617981_0" arrivalPos="210.65" arrivalSpeed="16.41" duration="36.00" routeLength="417.75" waitingTime="0.00" waitingCount="0" stopTime="0.00" timeLoss="10.61" rerouteNo="0" devices="tripinfo_flow_route_84_duration_20250327_2210.0" vType="car" speedFactor="1.05" vaporized=""/>
    <tripinfo id="flow_route_81_duration_20250327_2210.3" depart="23.00" departLane="380344611#0_0" departPos="216.79" departSpeed="0.00" departDelay="0.50" arrival="43.00" arrivalLane="133000063_2" arrivalPos="51.98" arrivalSpeed="15.61" duration="20.00" routeLength="151.06" waitingTime="0.00" waitingCount="0" stopTime="0.00" timeLoss="9.32" rerouteNo="0" devices="tripinfo_flow_route_81_duration_20250327_2210.3" vType="car" speedFactor="0.99" vaporized=""/>
    <tripinfo id="flow_route_85_duration_20250327_2210.1" depart="20.00" departLane="1091883842_0" departPos="6.02" departSpeed="0.00" departDelay="0.00" arrival="50.00" arrivalLane="133000063_0" arrivalPos="40.77" arrivalSpeed="9.55" duration="30.00" routeLength="229.50" waitingTime="0.00" waitingCount="0" stopTime="0.00" timeLoss="15.66" rerouteNo="0" devices="tripinfo_flow_route_85_duration_20250327_2210.1" vType="car" speedFactor="1.12" vaporized=""/>
    <tripinfo id="flow_route_89_duration_20250327_2210.2" depart="30.00" departLane="380585338#0_0" departPos="21.77" departSpeed="0.00" departDelay="0.00" arrival="53.00" arrivalLane="380593307#0_0" arrivalPos="5.18" arrivalSpeed="14.42" duration="23.00" routeLength="193.67" waitingTime="0.00" waitingCount="0" stopTime="0.00" timeLoss="10.06" rerouteNo="0" devices="tripinfo_flow_route_89_duration_20250327_2210.2" vType="car" speedFactor="0.94" vaporized=""/>
    <tripinfo id="flow_route_77_duration_20250327_2210.0" depart="0.00" departLane="133342692#0_0" departPos="115.39" departSpeed="0.00" departDelay="0.00" arrival="58.00" arrivalLane="423956929_0" arrivalPos="132.19" arrivalSpeed="15.24" duration="58.00" routeLength="199.33" waitingTime="27.00" waitingCount="1" stopTime="0.00" timeLoss="43.81" rerouteNo="0" devices="tripinfo_flow_route_77_duration_20250327_2210.0" vType="car" speedFactor="0.94" vaporized=""/>
    <tripinfo id="flow_route_89_duration_20250327_2210.0" depart="0.00" departLane="380585338#0_0" departPos="55.91" departSpeed="0.00" departDelay="0.00" arrival="58.00" arrivalLane="380593307#0_0" arrivalPos="94.67" arrivalSpeed="14.36" duration="58.00" routeLength="249.03" waitingTime="20.00" waitingCount="1" stopTime="0.00" timeLoss="41.26" rerouteNo="0" devices="tripinfo_flow_route_89_duration_20250327_2210.0" vType="car" speedFactor="0.94" vaporized=""/>
    <tripinfo id="flow_route_89_duration_20250327_2210.1" depart="16.00" departLane="380585338#0_0" departPos="68.87" departSpeed="0.00" departDelay="1.00" arrival="58.00" arrivalLane="380593307#0_1" arrivalPos="109.98" arrivalSpeed="15.19" duration="42.00" routeLength="251.38" waitingTime="4.00" waitingCount="1" stopTime="0.00" timeLoss="26.65" rerouteNo="0" devices="tripinfo_flow_route_89_duration_20250327_2210.1" vType="car" speedFactor="1.05" vaporized=""/>
    <tripinfo id="flow_route_78_duration_20250327_2210.0" depart="0.00" departLane="133342692#0_0" departPos="79.92" departSpeed="0.00" departDelay="0.00" arrival="61.00" arrivalLane="136617981_2" arrivalPos="12.89" arrivalSpeed="6.17" duration="61.00" routeLength="138.43" waitingTime="28.00" waitingCount="2" stopTime="0.00" timeLoss="51.98" rerouteNo="0" devices="tripinfo_flow_route_78_duration_20250327_2210.0" vType="car" speedFactor="1.01" vaporized=""/>
    <tripinfo id="flow_route_76_duration_20250327_2210.0" depart="0.00" departLane="133342692#0_0" departPos="1.03" departSpeed="0.00" departDelay="0.00" arrival="62.00" arrivalLane="133000063_1" arrivalPos="153.47" arrivalSpeed="16.44" duration="62.00" routeLength="359.35" waitingTime="17.00" waitingCount="1" stopTime="0.00" timeLoss="39.66" rerouteNo="0" devices="tripinfo_flow_route_76_duration_20250327_2210.0" vType="car" speedFactor="1.06" vaporized=""/>
    <tripinfo id="flow_route_90_duration_20250327_2210.1" depart="30.00" departLane="380585338#0_0" departPos="71.43" departSpeed="0.00" departDelay="0.00" arrival="64.00" arrivalLane="136617981_0" arrivalPos="194.16" arrivalSpeed="15.26" duration="34.00" routeLength="309.80" waitingTime="0.00" waitingCount="0" stopTime="0.00" timeLoss="13.05" rerouteNo="0" devices="tripinfo_flow_route_90_duration_20250327_2210.1" vType="car" speedFactor="0.94" vaporized=""/>
    <tripinfo id="flow_route_78_duration_20250327_2210.1" depart="30.00" departLane="133342692#0_0" departPos="56.80" departSpeed="0.00" departDelay="0.00" arrival="67.00" arrivalLane="136617981_2" arrivalPos="45.09" arrivalSpeed="9.83" duration="37.00" routeLength="193.75" waitingTime="4.00" waitingCount="1" stopTime="0.00" timeLoss="23.46" rerouteNo="0" devices="tripinfo_flow_route_78_duration_20250327_2210.1" vType="car" speedFactor="0.93" vaporized=""/>
    <tripinfo id="flow_route_85_duration_20250327_2210.2" depart="40.00" departLane="1091883842_0" departPos="31.19" departSpeed="0.00" departDelay="0.00" arrival="67.00" arrivalLane="133000063_0" arrivalPos="38.43" arrivalSpeed="9.73" duration="27.00" routeLength="201.99" waitingTime="0.00" waitingCount="0" stopTime="0.00" timeLoss="13.95" rerouteNo="0" devices="tripinfo_flow_route_85_duration_20250327_2210.2" vType="car" speedFactor="1.02" vaporized=""/>
    <tripinfo id="flow_route_81_duration_20250327_2210.2" depart="17.00" departLane="380344611#0_0" departPos="154.35" departSpeed="0.00" departDelay="2.00" arrival="103.00" arrivalLane="133000063_2" arrivalPos="52.89" arrivalSpeed="11.49" duration="86.00" routeLength="214.41" waitingTime="48.00" waitingCount="1" stopTime="0.00" timeLoss="71.91" rerouteNo="0" devices="tripinfo_flow_route_81_duration_20250327_2210.2" vType="car" speedFactor="1.03" vaporized=""/>
    <tripinfo id="flow_route_81_duration_20250327_2210.6" depart="45.00" departLane="380344611#0_0" departPos="230.17" departSpeed="0.00" departDelay="0.00" arrival="108.00" arrivalLane="133000063_2" arrivalPos="98.45" arrivalSpeed="13.60" duration="63.00" routeLength="184.15" waitingTime="30.00" waitingCount="1" stopTime="0.00" timeLoss="51.07" rerouteNo="0" devices="tripinfo_flow_route_81_duration_20250327_2210.6" vType="car" speedFactor="1.01" vaporized=""/>
    <tripinfo id="flow_route_81_duration_20250327_2210.7" depart="53.00" departLane="380344611#0_0" departPos="202.91" departSpeed="0.00" departDelay="0.50" arrival="113.00" arrivalLane="133000063_2" arrivalPos="115.08" arrivalSpeed="14.25" duration="60.00" routeLength="228.04" waitingTime="24.00" waitingCount="1" stopTime="0.00" timeLoss="43.55" rerouteNo="0" devices="tripinfo_flow_route_81_duration_20250327_2210.7" vType="car" speedFactor="0.89" vaporized=""/>
    <tripinfo id="flow_route_81_duration_20250327_2210.4" depart="30.00" departLane="380344611#0_0" departPos="36.69" departSpeed="0.00" departDelay="0.00" arrival="115.00" arrivalLane="133000063_2" arrivalPos="164.76" arrivalSpeed="14.25" duration="85.00" routeLength="443.95" waitingTime="30.00" waitingCount="1" stopTime="0.00" timeLoss="53.57" rerouteNo="0" devices="tripinfo_flow_route_81_duration_20250327_2210.4" vType="car" speedFactor="0.88" vaporized=""/>
    <tripinfo id="flow_route_81_duration_20250327_2210.5" depart="38.00" departLane="380344611#0_0" departPos="74.88" departSpeed="0.00" departDelay="0.50" arrival="119.00" arrivalLane="133000063_2" arrivalPos="166.13" arrivalSpeed="16.52" duration="81.00" routeLength="407.12" waitingTime="21.00" waitingCount="1" stopTime="0.00" timeLoss="56.00" rerouteNo="0" devices="tripinfo_flow_route_81_duration_20250327_2210.5" vType="car" speedFactor="1.16" vaporized=""/>
    <tripinfo id="flow_route_89_duration_20250327_2210.3" depart="45.00" departLane="380585338#0_0" departPos="15.46" departSpeed="0.00" departDelay="0.00" arrival="141.00" arrivalLane="380593307#0_0" arrivalPos="41.91" arrivalSpeed="11.27" duration="96.00" routeLength="236.72" waitingTime="61.00" waitingCount="1" stopTime="0.00" timeLoss="81.09" rerouteNo="0" devices="tripinfo_flow_route_89_duration_20250327_2210.3" vType="car" speedFactor="0.97" vaporized=""/>
</tripinfos>
