<?xml version="1.0" encoding="UTF-8"?>

<!-- generated on 2025-05-06 21:09:14 by Eclipse SUMO sumo Version 1.20.0
<configuration xmlns:xsi="http://www.w3.org/2001/XMLSchema-instance" xsi:noNamespaceSchemaLocation="http://sumo.dlr.de/xsd/sumoConfiguration.xsd">

    <input>
        <net-file value="osm.net.xml"/>
        <route-files value="xml/route_rl_632031937_9.rou.xml"/>
    </input>

    <output>
        <tripinfo-output value="xml/tripinfo_rl_632031937_9.xml"/>
    </output>

    <traci_server>
        <remote-port value="40045"/>
    </traci_server>

</configuration>
-->

<tripinfos xmlns:xsi="http://www.w3.org/2001/XMLSchema-instance" xsi:noNamespaceSchemaLocation="http://sumo.dlr.de/xsd/tripinfo_file.xsd">
    <tripinfo id="flow_route_66_duration_20250327_1910.0" depart="0.00" departLane="-138002002#2_0" departPos="85.87" departSpeed="0.00" departDelay="0.00" arrival="19.00" arrivalLane="-138002006#3_1" arrivalPos="3.87" arrivalSpeed="12.98" duration="19.00" routeLength="121.39" waitingTime="0.00" waitingCount="0" stopTime="0.00" timeLoss="10.12" rerouteNo="0" devices="tripinfo_flow_route_66_duration_20250327_1910.0" vType="car" speedFactor="0.83" vaporized=""/>
    <tripinfo id="flow_route_53_duration_20250327_1910.0" depart="0.00" departLane="138002006#0_0" departPos="48.40" departSpeed="0.00" departDelay="0.00" arrival="23.00" arrivalLane="1369578052#0_0" arrivalPos="131.33" arrivalSpeed="15.35" duration="23.00" routeLength="190.85" waitingTime="0.00" waitingCount="0" stopTime="0.00" timeLoss="10.16" rerouteNo="0" devices="tripinfo_flow_route_53_duration_20250327_1910.0" vType="car" speedFactor="0.94" vaporized=""/>
    <tripinfo id="flow_route_66_duration_20250327_1910.1" depart="7.00" departLane="-138002002#2_0" departPos="163.51" departSpeed="0.00" departDelay="1.55" arrival="23.00" arrivalLane="-138002006#3_0" arrivalPos="45.54" arrivalSpeed="10.79" duration="16.00" routeLength="85.42" waitingTime="0.00" waitingCount="0" stopTime="0.00" timeLoss="10.74" rerouteNo="0" devices="tripinfo_flow_route_66_duration_20250327_1910.1" vType="car" speedFactor="1.09" vaporized=""/>
    <tripinfo id="flow_route_66_duration_20250327_1910.2" depart="11.00" departLane="-138002002#2_0" departPos="48.64" departSpeed="0.00" departDelay="0.09" arrival="32.00" arrivalLane="-138002006#3_1" arrivalPos="11.13" arrivalSpeed="15.68" duration="21.00" routeLength="165.88" waitingTime="0.00" waitingCount="0" stopTime="0.00" timeLoss="10.21" rerouteNo="0" devices="tripinfo_flow_route_66_duration_20250327_1910.2" vType="car" speedFactor="0.94" vaporized=""/>
    <tripinfo id="flow_route_67_duration_20250327_1910.0" depart="1.00" departLane="-138002002#2_0" departPos="104.31" departSpeed="0.00" departDelay="1.00" arrival="33.00" arrivalLane="380351865#0_0" arrivalPos="12.69" arrivalSpeed="11.37" duration="32.00" routeLength="241.42" waitingTime="0.00" waitingCount="0" stopTime="0.00" timeLoss="12.53" rerouteNo="0" devices="tripinfo_flow_route_67_duration_20250327_1910.0" vType="car" speedFactor="1.05" vaporized=""/>
    <tripinfo id="flow_route_53_duration_20250327_1910.1" depart="3.00" departLane="138002006#0_0" departPos="5.35" departSpeed="0.00" departDelay="0.78" arrival="34.00" arrivalLane="1369578052#0_0" arrivalPos="48.76" arrivalSpeed="11.22" duration="31.00" routeLength="151.33" waitingTime="0.00" waitingCount="0" stopTime="0.00" timeLoss="20.14" rerouteNo="0" devices="tripinfo_flow_route_53_duration_20250327_1910.1" vType="car" speedFactor="0.89" vaporized=""/>
    <tripinfo id="flow_route_53_duration_20250327_1910.4" depart="10.00" departLane="138002006#0_0" departPos="60.81" departSpeed="0.00" departDelay="1.11" arrival="38.00" arrivalLane="1369578052#0_0" arrivalPos="29.33" arrivalSpeed="9.34" duration="28.00" routeLength="76.43" waitingTime="7.00" waitingCount="1" stopTime="0.00" timeLoss="23.07" rerouteNo="0" devices="tripinfo_flow_route_53_duration_20250327_1910.4" vType="car" speedFactor="0.99" vaporized=""/>
    <tripinfo id="flow_route_67_duration_20250327_1910.2" depart="14.00" departLane="-138002002#2_0" departPos="131.81" departSpeed="0.00" departDelay="0.67" arrival="40.00" arrivalLane="380351865#0_0" arrivalPos="1.52" arrivalSpeed="11.07" duration="26.00" routeLength="202.76" waitingTime="0.00" waitingCount="0" stopTime="0.00" timeLoss="9.12" rerouteNo="0" devices="tripinfo_flow_route_67_duration_20250327_1910.2" vType="car" speedFactor="1.02" vaporized=""/>
    <tripinfo id="flow_route_52_duration_20250327_1910.0" depart="0.00" departLane="138002006#0_0" departPos="21.97" departSpeed="0.00" departDelay="0.00" arrival="41.00" arrivalLane="380351865#0_1" arrivalPos="15.21" arrivalSpeed="11.62" duration="41.00" routeLength="234.80" waitingTime="5.00" waitingCount="1" stopTime="0.00" timeLoss="21.85" rerouteNo="0" devices="tripinfo_flow_route_52_duration_20250327_1910.0" vType="car" speedFactor="1.06" vaporized=""/>
    <tripinfo id="flow_route_53_duration_20250327_1910.8" depart="20.00" departLane="138002006#0_0" departPos="50.35" departSpeed="0.00" departDelay="2.22" arrival="43.00" arrivalLane="1369578052#0_0" arrivalPos="51.40" arrivalSpeed="12.24" duration="23.00" routeLength="108.97" waitingTime="0.00" waitingCount="0" stopTime="0.00" timeLoss="15.48" rerouteNo="0" devices="tripinfo_flow_route_53_duration_20250327_1910.8" vType="car" speedFactor="0.87" vaporized=""/>
    <tripinfo id="flow_route_67_duration_20250327_1910.1" depart="8.00" departLane="-138002002#2_0" departPos="55.59" departSpeed="0.00" departDelay="1.33" arrival="44.00" arrivalLane="380351865#0_0" arrivalPos="14.07" arrivalSpeed="11.59" duration="36.00" routeLength="291.53" waitingTime="0.00" waitingCount="0" stopTime="0.00" timeLoss="12.86" rerouteNo="0" devices="tripinfo_flow_route_67_duration_20250327_1910.1" vType="car" speedFactor="1.05" vaporized=""/>
    <tripinfo id="flow_route_53_duration_20250327_1910.9" depart="26.00" departLane="138002006#0_0" departPos="2.12" departSpeed="0.00" departDelay="6.00" arrival="48.00" arrivalLane="1369578052#0_0" arrivalPos="57.85" arrivalSpeed="13.13" duration="22.00" routeLength="163.66" waitingTime="0.00" waitingCount="0" stopTime="0.00" timeLoss="11.73" rerouteNo="0" devices="tripinfo_flow_route_53_duration_20250327_1910.9" vType="car" speedFactor="1.13" vaporized=""/>
    <tripinfo id="flow_route_53_duration_20250327_1910.6" depart="17.00" departLane="138002006#0_0" departPos="56.96" departSpeed="0.00" departDelay="3.67" arrival="49.00" arrivalLane="1369578052#0_0" arrivalPos="149.62" arrivalSpeed="16.36" duration="32.00" routeLength="200.58" waitingTime="3.00" waitingCount="1" stopTime="0.00" timeLoss="18.98" rerouteNo="0" devices="tripinfo_flow_route_53_duration_20250327_1910.6" vType="car" speedFactor="1.16" vaporized=""/>
    <tripinfo id="flow_route_53_duration_20250327_1910.7" depart="20.00" departLane="138002006#0_0" departPos="7.64" departSpeed="0.00" departDelay="4.45" arrival="50.00" arrivalLane="1369578052#0_0" arrivalPos="106.92" arrivalSpeed="14.56" duration="30.00" routeLength="207.21" waitingTime="0.00" waitingCount="0" stopTime="0.00" timeLoss="15.45" rerouteNo="0" devices="tripinfo_flow_route_53_duration_20250327_1910.7" vType="car" speedFactor="0.89" vaporized=""/>
    <tripinfo id="flow_route_53_duration_20250327_1910.5" depart="16.00" departLane="138002006#0_0" departPos="14.95" departSpeed="0.00" departDelay="4.89" arrival="52.00" arrivalLane="1369578052#0_1" arrivalPos="41.13" arrivalSpeed="10.06" duration="36.00" routeLength="134.10" waitingTime="2.00" waitingCount="1" stopTime="0.00" timeLoss="27.04" rerouteNo="0" devices="tripinfo_flow_route_53_duration_20250327_1910.5" vType="car" speedFactor="0.94" vaporized=""/>
    <tripinfo id="flow_route_53_duration_20250327_1910.2" depart="6.00" departLane="138002006#0_0" departPos="27.26" departSpeed="0.00" departDelay="1.56" arrival="54.00" arrivalLane="1369578052#0_1" arrivalPos="126.01" arrivalSpeed="13.85" duration="48.00" routeLength="206.67" waitingTime="10.00" waitingCount="2" stopTime="0.00" timeLoss="33.38" rerouteNo="0" devices="tripinfo_flow_route_53_duration_20250327_1910.2" vType="car" speedFactor="0.86" vaporized=""/>
    <tripinfo id="flow_route_52_duration_20250327_1910.1" depart="15.00" departLane="138002006#0_0" departPos="83.00" departSpeed="0.00" departDelay="5.00" arrival="54.00" arrivalLane="380351865#0_1" arrivalPos="0.51" arrivalSpeed="10.21" duration="39.00" routeLength="159.06" waitingTime="12.00" waitingCount="2" stopTime="0.00" timeLoss="22.77" rerouteNo="0" devices="tripinfo_flow_route_52_duration_20250327_1910.1" vType="car" speedFactor="0.93" vaporized=""/>
    <tripinfo id="flow_route_53_duration_20250327_1910.15" depart="41.00" departLane="138002006#0_0" departPos="81.55" departSpeed="0.00" departDelay="7.67" arrival="57.00" arrivalLane="1369578052#0_0" arrivalPos="72.01" arrivalSpeed="11.89" duration="16.00" routeLength="98.38" waitingTime="0.00" waitingCount="0" stopTime="0.00" timeLoss="9.75" rerouteNo="0" devices="tripinfo_flow_route_53_duration_20250327_1910.15" vType="car" speedFactor="1.09" vaporized=""/>
    <tripinfo id="flow_route_53_duration_20250327_1910.3" depart="8.00" departLane="138002006#0_0" departPos="2.88" departSpeed="0.00" departDelay="1.33" arrival="59.00" arrivalLane="1369578052#0_1" arrivalPos="173.09" arrivalSpeed="16.53" duration="51.00" routeLength="278.14" waitingTime="6.00" waitingCount="2" stopTime="0.00" timeLoss="34.21" rerouteNo="0" devices="tripinfo_flow_route_53_duration_20250327_1910.3" vType="car" speedFactor="1.03" vaporized=""/>
    <tripinfo id="flow_route_53_duration_20250327_1910.14" depart="41.00" departLane="138002006#0_0" departPos="58.47" departSpeed="0.00" departDelay="9.89" arrival="60.00" arrivalLane="1369578052#0_0" arrivalPos="51.83" arrivalSpeed="11.49" duration="19.00" routeLength="101.29" waitingTime="0.00" waitingCount="0" stopTime="0.00" timeLoss="12.26" rerouteNo="0" devices="tripinfo_flow_route_53_duration_20250327_1910.14" vType="car" speedFactor="1.09" vaporized=""/>
    <tripinfo id="flow_route_53_duration_20250327_1910.10" depart="38.00" departLane="138002006#0_0" departPos="9.13" departSpeed="0.00" departDelay="15.78" arrival="62.00" arrivalLane="1369578052#0_1" arrivalPos="125.10" arrivalSpeed="16.14" duration="24.00" routeLength="223.89" waitingTime="0.00" waitingCount="0" stopTime="0.00" timeLoss="10.29" rerouteNo="0" devices="tripinfo_flow_route_53_duration_20250327_1910.10" vType="car" speedFactor="1.01" vaporized=""/>
    <tripinfo id="flow_route_52_duration_20250327_1910.2" depart="25.00" departLane="138002006#0_0" departPos="37.03" departSpeed="0.00" departDelay="5.00" arrival="64.00" arrivalLane="380351865#0_1" arrivalPos="16.94" arrivalSpeed="10.32" duration="39.00" routeLength="221.47" waitingTime="1.00" waitingCount="1" stopTime="0.00" timeLoss="19.00" rerouteNo="0" devices="tripinfo_flow_route_52_duration_20250327_1910.2" vType="car" speedFactor="0.95" vaporized=""/>
    <tripinfo id="flow_route_53_duration_20250327_1910.11" depart="41.00" departLane="138002006#0_0" departPos="70.83" departSpeed="0.00" departDelay="16.56" arrival="65.00" arrivalLane="1369578052#0_0" arrivalPos="152.17" arrivalSpeed="15.71" duration="24.00" routeLength="189.26" waitingTime="0.00" waitingCount="0" stopTime="0.00" timeLoss="12.55" rerouteNo="0" devices="tripinfo_flow_route_53_duration_20250327_1910.11" vType="car" speedFactor="1.17" vaporized=""/>
    <tripinfo id="flow_route_53_duration_20250327_1910.12" depart="41.00" departLane="138002006#0_0" departPos="41.75" departSpeed="0.00" departDelay="14.34" arrival="68.00" arrivalLane="1369578052#0_1" arrivalPos="161.39" arrivalSpeed="16.42" duration="27.00" routeLength="227.56" waitingTime="0.00" waitingCount="0" stopTime="0.00" timeLoss="13.15" rerouteNo="0" devices="tripinfo_flow_route_53_duration_20250327_1910.12" vType="car" speedFactor="1.02" vaporized=""/>
    <tripinfo id="flow_route_53_duration_20250327_1910.13" depart="41.00" departLane="138002006#0_0" departPos="30.08" departSpeed="0.00" departDelay="12.11" arrival="70.00" arrivalLane="1369578052#0_0" arrivalPos="161.07" arrivalSpeed="16.21" duration="29.00" routeLength="238.91" waitingTime="0.00" waitingCount="0" stopTime="0.00" timeLoss="13.80" rerouteNo="0" devices="tripinfo_flow_route_53_duration_20250327_1910.13" vType="car" speedFactor="1.10" vaporized=""/>
    <tripinfo id="flow_route_53_duration_20250327_1910.16" depart="46.00" departLane="138002006#0_0" departPos="18.42" departSpeed="0.00" departDelay="10.45" arrival="71.00" arrivalLane="1369578052#0_1" arrivalPos="122.27" arrivalSpeed="14.97" duration="25.00" routeLength="211.77" waitingTime="0.00" waitingCount="0" stopTime="0.00" timeLoss="10.18" rerouteNo="0" devices="tripinfo_flow_route_53_duration_20250327_1910.16" vType="car" speedFactor="0.90" vaporized=""/>
    <tripinfo id="flow_route_52_duration_20250327_1910.3" depart="41.00" departLane="138002006#0_0" departPos="0.08" departSpeed="0.00" departDelay="11.00" arrival="73.00" arrivalLane="380351865#0_1" arrivalPos="7.02" arrivalSpeed="11.10" duration="32.00" routeLength="248.50" waitingTime="0.00" waitingCount="0" stopTime="0.00" timeLoss="11.83" rerouteNo="0" devices="tripinfo_flow_route_52_duration_20250327_1910.3" vType="car" speedFactor="1.03" vaporized=""/>
    <tripinfo id="flow_route_53_duration_20250327_1910.21" depart="58.00" departLane="138002006#0_0" departPos="51.41" departSpeed="0.00" departDelay="11.34" arrival="76.00" arrivalLane="1369578052#0_0" arrivalPos="59.62" arrivalSpeed="13.28" duration="18.00" routeLength="116.12" waitingTime="0.00" waitingCount="0" stopTime="0.00" timeLoss="10.42" rerouteNo="0" devices="tripinfo_flow_route_53_duration_20250327_1910.21" vType="car" speedFactor="1.12" vaporized=""/>
    <tripinfo id="flow_route_53_duration_20250327_1910.17" depart="51.00" departLane="138002006#0_0" departPos="16.91" departSpeed="0.00" departDelay="13.23" arrival="77.00" arrivalLane="1369578052#0_1" arrivalPos="105.68" arrivalSpeed="14.04" duration="26.00" routeLength="196.69" waitingTime="0.00" waitingCount="0" stopTime="0.00" timeLoss="11.91" rerouteNo="0" devices="tripinfo_flow_route_53_duration_20250327_1910.17" vType="car" speedFactor="0.85" vaporized=""/>
    <tripinfo id="flow_route_53_duration_20250327_1910.20" depart="57.00" departLane="138002006#0_0" departPos="87.20" departSpeed="0.00" departDelay="12.56" arrival="80.00" arrivalLane="1369578052#0_0" arrivalPos="172.56" arrivalSpeed="16.49" duration="23.00" routeLength="193.29" waitingTime="0.00" waitingCount="0" stopTime="0.00" timeLoss="10.38" rerouteNo="0" devices="tripinfo_flow_route_53_duration_20250327_1910.20" vType="car" speedFactor="1.02" vaporized=""/>
    <tripinfo id="flow_route_52_duration_20250327_1910.4" depart="52.00" departLane="138002006#0_0" departPos="50.47" departSpeed="0.00" departDelay="12.00" arrival="81.00" arrivalLane="380351865#0_1" arrivalPos="16.74" arrivalSpeed="11.29" duration="29.00" routeLength="207.83" waitingTime="0.00" waitingCount="0" stopTime="0.00" timeLoss="10.96" rerouteNo="0" devices="tripinfo_flow_route_52_duration_20250327_1910.4" vType="car" speedFactor="1.02" vaporized=""/>
    <tripinfo id="flow_route_53_duration_20250327_1910.19" depart="56.00" departLane="138002006#0_0" departPos="70.38" departSpeed="0.00" departDelay="13.78" arrival="82.00" arrivalLane="1369578052#0_0" arrivalPos="167.58" arrivalSpeed="16.30" duration="26.00" routeLength="205.12" waitingTime="0.00" waitingCount="0" stopTime="0.00" timeLoss="12.75" rerouteNo="0" devices="tripinfo_flow_route_53_duration_20250327_1910.19" vType="car" speedFactor="1.00" vaporized=""/>
    <tripinfo id="flow_route_58_duration_20250327_1910.0" depart="0.00" departLane="186407685_0" departPos="1.07" departSpeed="0.00" departDelay="0.00" arrival="84.00" arrivalLane="-138002006#3_1" arrivalPos="43.63" arrivalSpeed="9.80" duration="84.00" routeLength="235.82" waitingTime="49.00" waitingCount="1" stopTime="0.00" timeLoss="69.06" rerouteNo="0" devices="tripinfo_flow_route_58_duration_20250327_1910.0" vType="car" speedFactor="1.08" vaporized=""/>
    <tripinfo id="flow_route_59_duration_20250327_1910.2" depart="8.00" departLane="186407685_0" departPos="135.37" departSpeed="0.00" departDelay="0.94" arrival="86.00" arrivalLane="1369578052#0_0" arrivalPos="43.63" arrivalSpeed="9.39" duration="78.00" routeLength="94.37" waitingTime="50.00" waitingCount="2" stopTime="0.00" timeLoss="71.51" rerouteNo="0" devices="tripinfo_flow_route_59_duration_20250327_1910.2" vType="car" speedFactor="1.12" vaporized=""/>
    <tripinfo id="flow_route_59_duration_20250327_1910.3" depart="12.00" departLane="186407685_0" departPos="101.21" departSpeed="0.00" departDelay="1.41" arrival="87.00" arrivalLane="1369578052#0_0" arrivalPos="23.85" arrivalSpeed="8.34" duration="75.00" routeLength="108.74" waitingTime="42.00" waitingCount="2" stopTime="0.00" timeLoss="66.53" rerouteNo="0" devices="tripinfo_flow_route_59_duration_20250327_1910.3" vType="car" speedFactor="0.88" vaporized=""/>
    <tripinfo id="flow_route_59_duration_20250327_1910.0" depart="0.00" departLane="186407685_0" departPos="119.17" departSpeed="0.00" departDelay="0.00" arrival="89.00" arrivalLane="1369578052#0_0" arrivalPos="108.75" arrivalSpeed="13.07" duration="89.00" routeLength="175.69" waitingTime="53.00" waitingCount="2" stopTime="0.00" timeLoss="77.66" rerouteNo="0" devices="tripinfo_flow_route_59_duration_20250327_1910.0" vType="car" speedFactor="1.03" vaporized=""/>
    <tripinfo id="flow_route_59_duration_20250327_1910.6" depart="22.00" departLane="186407685_0" departPos="51.36" departSpeed="0.00" departDelay="0.83" arrival="93.00" arrivalLane="1369578052#0_0" arrivalPos="14.75" arrivalSpeed="8.26" duration="71.00" routeLength="149.50" waitingTime="36.00" waitingCount="1" stopTime="0.00" timeLoss="61.09" rerouteNo="0" devices="tripinfo_flow_route_59_duration_20250327_1910.6" vType="car" speedFactor="1.18" vaporized=""/>
    <tripinfo id="flow_route_57_duration_20250327_1910.0" depart="0.00" departLane="186407685_0" departPos="131.94" departSpeed="0.00" departDelay="0.00" arrival="94.00" arrivalLane="380351865#0_0" arrivalPos="0.78" arrivalSpeed="11.11" duration="94.00" routeLength="205.45" waitingTime="60.00" waitingCount="1" stopTime="0.00" timeLoss="77.23" rerouteNo="0" devices="tripinfo_flow_route_57_duration_20250327_1910.0" vType="car" speedFactor="1.01" vaporized=""/>
    <tripinfo id="flow_route_57_duration_20250327_1910.1" depart="15.00" departLane="186407685_0" departPos="54.50" departSpeed="0.00" departDelay="0.00" arrival="97.00" arrivalLane="380351865#0_0" arrivalPos="10.18" arrivalSpeed="10.75" duration="82.00" routeLength="292.29" waitingTime="40.00" waitingCount="1" stopTime="0.00" timeLoss="59.29" rerouteNo="0" devices="tripinfo_flow_route_57_duration_20250327_1910.1" vType="car" speedFactor="1.01" vaporized=""/>
    <tripinfo id="flow_route_57_duration_20250327_1910.2" depart="32.00" departLane="186407685_0" departPos="126.30" departSpeed="0.00" departDelay="2.00" arrival="97.00" arrivalLane="380351865#0_1" arrivalPos="5.85" arrivalSpeed="10.47" duration="65.00" routeLength="216.16" waitingTime="27.00" waitingCount="2" stopTime="0.00" timeLoss="46.14" rerouteNo="0" devices="tripinfo_flow_route_57_duration_20250327_1910.2" vType="car" speedFactor="0.96" vaporized=""/>
    <tripinfo id="flow_route_59_duration_20250327_1910.1" depart="4.00" departLane="186407685_0" departPos="57.01" departSpeed="0.00" departDelay="0.47" arrival="100.00" arrivalLane="1369578052#0_0" arrivalPos="161.40" arrivalSpeed="15.54" duration="96.00" routeLength="290.50" waitingTime="41.00" waitingCount="2" stopTime="0.00" timeLoss="76.64" rerouteNo="0" devices="tripinfo_flow_route_59_duration_20250327_1910.1" vType="car" speedFactor="0.94" vaporized=""/>
    <tripinfo id="flow_route_57_duration_20250327_1910.3" depart="50.00" departLane="186407685_0" departPos="56.81" departSpeed="0.00" departDelay="5.00" arrival="100.00" arrivalLane="380351865#0_1" arrivalPos="13.38" arrivalSpeed="10.66" duration="50.00" routeLength="293.18" waitingTime="3.00" waitingCount="1" stopTime="0.00" timeLoss="26.57" rerouteNo="0" devices="tripinfo_flow_route_57_duration_20250327_1910.3" vType="car" speedFactor="0.97" vaporized=""/>
    <tripinfo id="flow_route_59_duration_20250327_1910.4" depart="15.00" departLane="186407685_0" departPos="87.22" departSpeed="0.00" departDelay="0.88" arrival="101.00" arrivalLane="1369578052#0_0" arrivalPos="127.48" arrivalSpeed="14.66" duration="86.00" routeLength="226.37" waitingTime="41.00" waitingCount="2" stopTime="0.00" timeLoss="70.32" rerouteNo="0" devices="tripinfo_flow_route_59_duration_20250327_1910.4" vType="car" speedFactor="0.97" vaporized=""/>
    <tripinfo id="flow_route_59_duration_20250327_1910.5" depart="18.00" departLane="186407685_0" departPos="11.86" departSpeed="0.00" departDelay="0.36" arrival="103.00" arrivalLane="1369578052#0_0" arrivalPos="100.79" arrivalSpeed="13.28" duration="85.00" routeLength="275.04" waitingTime="36.00" waitingCount="1" stopTime="0.00" timeLoss="66.52" rerouteNo="0" devices="tripinfo_flow_route_59_duration_20250327_1910.5" vType="car" speedFactor="0.92" vaporized=""/>
    <tripinfo id="flow_route_59_duration_20250327_1910.10" depart="37.00" departLane="186407685_0" departPos="104.95" departSpeed="0.00" departDelay="1.71" arrival="105.00" arrivalLane="1369578052#0_0" arrivalPos="79.42" arrivalSpeed="12.32" duration="68.00" routeLength="160.58" waitingTime="34.00" waitingCount="1" stopTime="0.00" timeLoss="55.90" rerouteNo="0" devices="tripinfo_flow_route_59_duration_20250327_1910.10" vType="car" speedFactor="0.88" vaporized=""/>
    <tripinfo id="flow_route_59_duration_20250327_1910.7" depart="26.00" departLane="186407685_0" departPos="18.54" departSpeed="0.00" departDelay="1.30" arrival="109.00" arrivalLane="1369578052#0_0" arrivalPos="107.84" arrivalSpeed="13.53" duration="83.00" routeLength="275.40" waitingTime="36.00" waitingCount="1" stopTime="0.00" timeLoss="64.94" rerouteNo="0" devices="tripinfo_flow_route_59_duration_20250327_1910.7" vType="car" speedFactor="0.99" vaporized=""/>
    <tripinfo id="flow_route_59_duration_20250327_1910.9" depart="36.00" departLane="186407685_0" departPos="49.10" departSpeed="0.00" departDelay="4.24" arrival="112.00" arrivalLane="1369578052#0_0" arrivalPos="131.28" arrivalSpeed="15.45" duration="76.00" routeLength="268.29" waitingTime="32.00" waitingCount="1" stopTime="0.00" timeLoss="59.14" rerouteNo="0" devices="tripinfo_flow_route_59_duration_20250327_1910.9" vType="car" speedFactor="1.04" vaporized=""/>
    <tripinfo id="flow_route_59_duration_20250327_1910.8" depart="30.00" departLane="186407685_0" departPos="17.98" departSpeed="0.00" departDelay="1.77" arrival="114.00" arrivalLane="1369578052#0_0" arrivalPos="105.74" arrivalSpeed="13.45" duration="84.00" routeLength="273.87" waitingTime="30.00" waitingCount="1" stopTime="0.00" timeLoss="65.18" rerouteNo="0" devices="tripinfo_flow_route_59_duration_20250327_1910.8" vType="car" speedFactor="0.90" vaporized=""/>
    <tripinfo id="flow_route_59_duration_20250327_1910.14" depart="52.00" departLane="186407685_0" departPos="71.42" departSpeed="0.00" departDelay="2.59" arrival="114.00" arrivalLane="1369578052#0_0" arrivalPos="41.98" arrivalSpeed="9.76" duration="62.00" routeLength="156.67" waitingTime="28.00" waitingCount="1" stopTime="0.00" timeLoss="50.38" rerouteNo="0" devices="tripinfo_flow_route_59_duration_20250327_1910.14" vType="car" speedFactor="0.88" vaporized=""/>
    <tripinfo id="flow_route_59_duration_20250327_1910.11" depart="40.00" departLane="186407685_0" departPos="29.66" departSpeed="0.00" departDelay="1.18" arrival="117.00" arrivalLane="1369578052#0_0" arrivalPos="118.18" arrivalSpeed="14.02" duration="77.00" routeLength="274.63" waitingTime="30.00" waitingCount="1" stopTime="0.00" timeLoss="58.48" rerouteNo="0" devices="tripinfo_flow_route_59_duration_20250327_1910.11" vType="car" speedFactor="0.85" vaporized=""/>
    <tripinfo id="flow_route_66_duration_20250327_1910.3" depart="17.00" departLane="-138002002#2_0" departPos="5.13" departSpeed="0.00" departDelay="0.64" arrival="118.00" arrivalLane="-138002006#3_1" arrivalPos="16.28" arrivalSpeed="7.29" duration="101.00" routeLength="214.54" waitingTime="69.00" waitingCount="1" stopTime="0.00" timeLoss="85.40" rerouteNo="0" devices="tripinfo_flow_route_66_duration_20250327_1910.3" vType="car" speedFactor="0.83" vaporized=""/>
    <tripinfo id="flow_route_66_duration_20250327_1910.4" depart="24.00" departLane="-138002002#2_0" departPos="94.47" departSpeed="0.00" departDelay="2.18" arrival="123.00" arrivalLane="-138002006#3_0" arrivalPos="64.09" arrivalSpeed="11.62" duration="99.00" routeLength="173.01" waitingTime="68.00" waitingCount="1" stopTime="0.00" timeLoss="88.16" rerouteNo="0" devices="tripinfo_flow_route_66_duration_20250327_1910.4" vType="car" speedFactor="1.15" vaporized=""/>
    <tripinfo id="flow_route_66_duration_20250327_1910.5" depart="28.00" departLane="-138002002#2_0" departPos="83.96" departSpeed="0.00" departDelay="0.73" arrival="123.00" arrivalLane="-138002006#3_1" arrivalPos="37.74" arrivalSpeed="10.02" duration="95.00" routeLength="157.17" waitingTime="64.00" waitingCount="1" stopTime="0.00" timeLoss="85.51" rerouteNo="0" devices="tripinfo_flow_route_66_duration_20250327_1910.5" vType="car" speedFactor="1.18" vaporized=""/>
    <tripinfo id="flow_route_53_duration_20250327_1910.26" depart="75.00" departLane="138002006#0_0" departPos="3.51" departSpeed="0.00" departDelay="17.23" arrival="124.00" arrivalLane="1369578052#0_0" arrivalPos="2.15" arrivalSpeed="7.75" duration="49.00" routeLength="106.56" waitingTime="24.00" waitingCount="1" stopTime="0.00" timeLoss="42.07" rerouteNo="0" devices="tripinfo_flow_route_53_duration_20250327_1910.26" vType="car" speedFactor="0.96" vaporized=""/>
    <tripinfo id="flow_route_53_duration_20250327_1910.25" depart="72.00" departLane="138002006#0_0" departPos="81.52" departSpeed="0.00" departDelay="16.45" arrival="126.00" arrivalLane="1369578052#0_0" arrivalPos="79.31" arrivalSpeed="12.06" duration="54.00" routeLength="105.72" waitingTime="32.00" waitingCount="1" stopTime="0.00" timeLoss="46.56" rerouteNo="0" devices="tripinfo_flow_route_53_duration_20250327_1910.25" vType="car" speedFactor="0.94" vaporized=""/>
    <tripinfo id="flow_route_66_duration_20250327_1910.6" depart="33.00" departLane="-138002002#2_0" departPos="7.85" departSpeed="0.00" departDelay="0.28" arrival="130.00" arrivalLane="-138002006#3_1" arrivalPos="78.30" arrivalSpeed="13.47" duration="97.00" routeLength="273.85" waitingTime="53.00" waitingCount="1" stopTime="0.00" timeLoss="79.72" rerouteNo="0" devices="tripinfo_flow_route_66_duration_20250327_1910.6" vType="car" speedFactor="1.04" vaporized=""/>
    <tripinfo id="flow_route_66_duration_20250327_1910.8" depart="44.00" departLane="-138002002#2_0" departPos="89.79" departSpeed="0.00" departDelay="0.37" arrival="131.00" arrivalLane="-138002006#3_1" arrivalPos="72.74" arrivalSpeed="13.08" duration="87.00" routeLength="186.34" waitingTime="52.00" waitingCount="1" stopTime="0.00" timeLoss="75.39" rerouteNo="0" devices="tripinfo_flow_route_66_duration_20250327_1910.8" vType="car" speedFactor="1.14" vaporized=""/>
    <tripinfo id="flow_route_66_duration_20250327_1910.9" depart="51.00" departLane="-138002002#2_0" departPos="40.64" departSpeed="0.00" departDelay="1.91" arrival="131.00" arrivalLane="-138002006#3_1" arrivalPos="17.34" arrivalSpeed="10.55" duration="80.00" routeLength="180.09" waitingTime="44.00" waitingCount="1" stopTime="0.00" timeLoss="67.41" rerouteNo="0" devices="tripinfo_flow_route_66_duration_20250327_1910.9" vType="car" speedFactor="0.91" vaporized=""/>
    <tripinfo id="flow_route_66_duration_20250327_1910.7" depart="39.00" departLane="-138002002#2_0" departPos="2.69" departSpeed="0.00" departDelay="0.82" arrival="133.00" arrivalLane="-138002006#3_1" arrivalPos="72.90" arrivalSpeed="13.94" duration="94.00" routeLength="273.59" waitingTime="52.00" waitingCount="1" stopTime="0.00" timeLoss="76.97" rerouteNo="0" devices="tripinfo_flow_route_66_duration_20250327_1910.7" vType="car" speedFactor="1.17" vaporized=""/>
    <tripinfo id="flow_route_53_duration_20250327_1910.18" depart="55.00" departLane="138002006#0_0" departPos="0.65" departSpeed="0.00" departDelay="15.00" arrival="133.00" arrivalLane="1369578052#0_0" arrivalPos="163.54" arrivalSpeed="16.28" duration="78.00" routeLength="270.81" waitingTime="29.00" waitingCount="2" stopTime="0.00" timeLoss="61.37" rerouteNo="0" devices="tripinfo_flow_route_53_duration_20250327_1910.18" vType="car" speedFactor="1.10" vaporized=""/>
    <tripinfo id="flow_route_53_duration_20250327_1910.22" depart="58.00" departLane="138002006#0_0" departPos="20.45" departSpeed="0.00" departDelay="9.12" arrival="133.00" arrivalLane="1369578052#0_0" arrivalPos="23.87" arrivalSpeed="8.45" duration="75.00" routeLength="111.34" waitingTime="40.00" waitingCount="2" stopTime="0.00" timeLoss="67.89" rerouteNo="0" devices="tripinfo_flow_route_53_duration_20250327_1910.22" vType="car" speedFactor="0.99" vaporized=""/>
    <tripinfo id="flow_route_67_duration_20250327_1910.4" depart="27.00" departLane="-138002002#2_0" departPos="90.76" departSpeed="0.00" departDelay="0.34" arrival="134.00" arrivalLane="380351865#0_0" arrivalPos="10.67" arrivalSpeed="10.73" duration="107.00" routeLength="252.97" waitingTime="67.00" waitingCount="1" stopTime="0.00" timeLoss="85.19" rerouteNo="0" devices="tripinfo_flow_route_67_duration_20250327_1910.4" vType="car" speedFactor="0.97" vaporized=""/>