<?xml version="1.0" encoding="UTF-8"?>

<!-- generated on 2025-05-06 21:08:26 by Eclipse SUMO sumo Version 1.20.0
<configuration xmlns:xsi="http://www.w3.org/2001/XMLSchema-instance" xsi:noNamespaceSchemaLocation="http://sumo.dlr.de/xsd/sumoConfiguration.xsd">

    <input>
        <net-file value="osm.net.xml"/>
        <route-files value="xml/route_static_cluster_11657899598_353811979_6712514804_4.rou.xml"/>
    </input>

    <output>
        <tripinfo-output value="xml/tripinfo_static_cluster_11657899598_353811979_6712514804_4.xml"/>
    </output>

    <traci_server>
        <remote-port value="47307"/>
    </traci_server>

</configuration>
-->

<tripinfos xmlns:xsi="http://www.w3.org/2001/XMLSchema-instance" xsi:noNamespaceSchemaLocation="http://sumo.dlr.de/xsd/tripinfo_file.xsd">
    <tripinfo id="flow_route_136_duration_20250327_1940.0" depart="0.00" departLane="688883939#0_0" departPos="70.95" departSpeed="0.00" departDelay="0.00" arrival="22.00" arrivalLane="186410975#0_1" arrivalPos="11.74" arrivalSpeed="11.21" duration="22.00" routeLength="133.80" waitingTime="1.00" waitingCount="1" stopTime="0.00" timeLoss="11.77" rerouteNo="0" devices="tripinfo_flow_route_136_duration_20250327_1940.0" vType="car" speedFactor="1.01" vaporized=""/>
    <tripinfo id="flow_route_137_duration_20250327_1940.0" depart="0.00" departLane="1310781056_0" departPos="52.86" departSpeed="0.00" departDelay="0.00" arrival="22.00" arrivalLane="714011134#0_0" arrivalPos="51.79" arrivalSpeed="16.36" duration="22.00" routeLength="192.73" waitingTime="0.00" waitingCount="0" stopTime="0.00" timeLoss="9.91" rerouteNo="0" devices="tripinfo_flow_route_137_duration_20250327_1940.0" vType="car" speedFactor="1.08" vaporized=""/>
    <tripinfo id="flow_route_139_duration_20250327_1940.0" depart="1.00" departLane="1310781056_0" departPos="36.51" departSpeed="0.00" departDelay="1.00" arrival="26.00" arrivalLane="1254157399#1_1" arrivalPos="26.95" arrivalSpeed="10.10" duration="25.00" routeLength="180.27" waitingTime="0.00" waitingCount="0" stopTime="0.00" timeLoss="12.59" rerouteNo="0" devices="tripinfo_flow_route_139_duration_20250327_1940.0" vType="car" speedFactor="0.83" vaporized=""/>
    <tripinfo id="flow_route_134_duration_20250327_1940.0" depart="0.00" departLane="688883939#0_0" departPos="78.56" departSpeed="0.00" departDelay="0.00" arrival="28.00" arrivalLane="809719540#0_0" arrivalPos="239.32" arrivalSpeed="16.14" duration="28.00" routeLength="300.42" waitingTime="0.00" waitingCount="0" stopTime="0.00" timeLoss="9.69" rerouteNo="0" devices="tripinfo_flow_route_134_duration_20250327_1940.0" vType="car" speedFactor="1.06" vaporized=""/>
    <tripinfo id="flow_route_138_duration_20250327_1940.0" depart="1.00" departLane="1310781056_0" departPos="99.29" departSpeed="0.00" departDelay="1.00" arrival="35.00" arrivalLane="186410975#0_0" arrivalPos="152.27" arrivalSpeed="11.22" duration="34.00" routeLength="305.80" waitingTime="0.00" waitingCount="0" stopTime="0.00" timeLoss="10.72" rerouteNo="0" devices="tripinfo_flow_route_138_duration_20250327_1940.0" vType="car" speedFactor="1.03" vaporized=""/>
    <tripinfo id="flow_route_135_duration_20250327_1940.0" depart="0.00" departLane="688883939#0_0" departPos="0.64" departSpeed="0.00" departDelay="0.00" arrival="45.00" arrivalLane="1254157399#1_0" arrivalPos="440.36" arrivalSpeed="16.14" duration="45.00" routeLength="573.44" waitingTime="0.00" waitingCount="0" stopTime="0.00" timeLoss="9.43" rerouteNo="0" devices="tripinfo_flow_route_135_duration_20250327_1940.0" vType="car" speedFactor="0.94" vaporized=""/>
    <tripinfo id="flow_route_151_duration_20250327_1940.6" depart="14.00" departLane="31861355#0_0" departPos="577.11" departSpeed="0.00" departDelay="0.67" arrival="54.00" arrivalLane="186410975#0_1" arrivalPos="7.19" arrivalSpeed="12.36" duration="40.00" routeLength="157.29" waitingTime="10.00" waitingCount="1" stopTime="0.00" timeLoss="30.08" rerouteNo="0" devices="tripinfo_flow_route_151_duration_20250327_1940.6" vType="car" speedFactor="1.13" vaporized=""/>
    <tripinfo id="flow_route_153_duration_20250327_1940.14" depart="32.00" departLane="31861355#0_0" departPos="587.48" departSpeed="0.00" departDelay="5.75" arrival="56.00" arrivalLane="809719540#0_0" arrivalPos="37.91" arrivalSpeed="9.16" duration="24.00" routeLength="81.55" waitingTime="3.00" waitingCount="1" stopTime="0.00" timeLoss="17.67" rerouteNo="0" devices="tripinfo_flow_route_153_duration_20250327_1940.14" vType="car" speedFactor="1.00" vaporized=""/>
    <tripinfo id="flow_route_152_duration_20250327_1940.11" depart="24.00" departLane="31861355#0_0" departPos="604.08" departSpeed="0.00" departDelay="3.38" arrival="57.00" arrivalLane="714011134#0_1" arrivalPos="38.49" arrivalSpeed="11.69" duration="33.00" routeLength="95.29" waitingTime="15.00" waitingCount="1" stopTime="0.00" timeLoss="26.64" rerouteNo="0" devices="tripinfo_flow_route_152_duration_20250327_1940.11" vType="car" speedFactor="1.09" vaporized=""/>
    <tripinfo id="flow_route_151_duration_20250327_1940.5" depart="12.00" departLane="31861355#0_0" departPos="593.77" departSpeed="0.00" departDelay="0.89" arrival="59.00" arrivalLane="186410975#0_1" arrivalPos="79.44" arrivalSpeed="9.44" duration="47.00" routeLength="212.88" waitingTime="12.00" waitingCount="1" stopTime="0.00" timeLoss="30.21" rerouteNo="0" devices="tripinfo_flow_route_151_duration_20250327_1940.5" vType="car" speedFactor="0.87" vaporized=""/>
    <tripinfo id="flow_route_152_duration_20250327_1940.9" depart="20.00" departLane="31861355#0_0" departPos="513.32" departSpeed="0.00" departDelay="3.13" arrival="60.00" arrivalLane="714011134#0_1" arrivalPos="19.04" arrivalSpeed="11.59" duration="40.00" routeLength="166.60" waitingTime="2.00" waitingCount="1" stopTime="0.00" timeLoss="29.42" rerouteNo="0" devices="tripinfo_flow_route_152_duration_20250327_1940.9" vType="car" speedFactor="0.99" vaporized=""/>
    <tripinfo id="flow_route_153_duration_20250327_1940.5" depart="11.00" departLane="31861355#0_0" departPos="581.43" departSpeed="0.00" departDelay="1.63" arrival="61.00" arrivalLane="809719540#0_0" arrivalPos="218.02" arrivalSpeed="14.79" duration="50.00" routeLength="267.71" waitingTime="15.00" waitingCount="1" stopTime="0.00" timeLoss="30.94" rerouteNo="0" devices="tripinfo_flow_route_153_duration_20250327_1940.5" vType="car" speedFactor="0.89" vaporized=""/>
    <tripinfo id="flow_route_153_duration_20250327_1940.4" depart="10.00" departLane="31861355#0_0" departPos="415.45" departSpeed="0.00" departDelay="2.50" arrival="64.00" arrivalLane="809719540#0_0" arrivalPos="33.68" arrivalSpeed="8.82" duration="54.00" routeLength="249.34" waitingTime="2.00" waitingCount="1" stopTime="0.00" timeLoss="37.86" rerouteNo="0" devices="tripinfo_flow_route_153_duration_20250327_1940.4" vType="car" speedFactor="1.16" vaporized=""/>
    <tripinfo id="flow_route_152_duration_20250327_1940.1" depart="2.00" departLane="31861355#0_0" departPos="318.97" departSpeed="0.00" departDelay="0.13" arrival="66.00" arrivalLane="714011134#0_1" arrivalPos="72.05" arrivalSpeed="14.27" duration="64.00" routeLength="413.96" waitingTime="1.00" waitingCount="1" stopTime="0.00" timeLoss="34.06" rerouteNo="0" devices="tripinfo_flow_route_152_duration_20250327_1940.1" vType="car" speedFactor="0.86" vaporized=""/>
    <tripinfo id="flow_route_151_duration_20250327_1940.1" depart="3.00" departLane="31861355#0_0" departPos="583.90" departSpeed="0.00" departDelay="0.78" arrival="66.00" arrivalLane="186410975#0_0" arrivalPos="163.51" arrivalSpeed="11.06" duration="63.00" routeLength="306.81" waitingTime="20.00" waitingCount="1" stopTime="0.00" timeLoss="39.07" rerouteNo="0" devices="tripinfo_flow_route_151_duration_20250327_1940.1" vType="car" speedFactor="1.03" vaporized=""/>
    <tripinfo id="flow_route_152_duration_20250327_1940.5" depart="10.00" departLane="31861355#0_0" departPos="370.74" departSpeed="0.00" departDelay="0.63" arrival="66.00" arrivalLane="714011134#0_1" arrivalPos="25.44" arrivalSpeed="12.68" duration="56.00" routeLength="315.58" waitingTime="0.00" waitingCount="0" stopTime="0.00" timeLoss="36.25" rerouteNo="0" devices="tripinfo_flow_route_152_duration_20250327_1940.5" vType="car" speedFactor="0.97" vaporized=""/>
    <tripinfo id="flow_route_152_duration_20250327_1940.6" depart="13.00" departLane="31861355#0_0" departPos="398.98" departSpeed="0.00" departDelay="1.75" arrival="66.00" arrivalLane="714011134#0_1" arrivalPos="51.91" arrivalSpeed="14.36" duration="53.00" routeLength="313.81" waitingTime="1.00" waitingCount="1" stopTime="0.00" timeLoss="31.92" rerouteNo="0" devices="tripinfo_flow_route_152_duration_20250327_1940.6" vType="car" speedFactor="0.92" vaporized=""/>
    <tripinfo id="flow_route_153_duration_20250327_1940.10" depart="24.00" departLane="31861355#0_0" departPos="543.36" departSpeed="0.00" departDelay="5.25" arrival="66.00" arrivalLane="809719540#0_0" arrivalPos="113.68" arrivalSpeed="13.59" duration="42.00" routeLength="201.43" waitingTime="3.00" waitingCount="1" stopTime="0.00" timeLoss="27.04" rerouteNo="0" devices="tripinfo_flow_route_153_duration_20250327_1940.10" vType="car" speedFactor="0.90" vaporized=""/>
    <tripinfo id="flow_route_151_duration_20250327_1940.4" depart="10.00" departLane="31861355#0_0" departPos="444.94" departSpeed="0.00" departDelay="1.11" arrival="67.00" arrivalLane="186410975#0_1" arrivalPos="68.16" arrivalSpeed="11.02" duration="57.00" routeLength="350.43" waitingTime="2.00" waitingCount="1" stopTime="0.00" timeLoss="33.43" rerouteNo="0" devices="tripinfo_flow_route_151_duration_20250327_1940.4" vType="car" speedFactor="1.01" vaporized=""/>
    <tripinfo id="flow_route_135_duration_20250327_1940.1" depart="12.00" departLane="688883939#0_0" departPos="17.75" departSpeed="0.00" departDelay="0.00" arrival="67.00" arrivalLane="1254157399#1_0" arrivalPos="593.29" arrivalSpeed="16.13" duration="55.00" routeLength="709.26" waitingTime="0.00" waitingCount="0" stopTime="0.00" timeLoss="10.12" rerouteNo="0" devices="tripinfo_flow_route_135_duration_20250327_1940.1" vType="car" speedFactor="0.83" vaporized=""/>
    <tripinfo id="flow_route_139_duration_20250327_1940.1" depart="9.00" departLane="1310781056_0" departPos="64.82" departSpeed="0.00" departDelay="0.43" arrival="69.00" arrivalLane="1254157399#1_0" arrivalPos="596.14" arrivalSpeed="16.17" duration="60.00" routeLength="721.15" waitingTime="0.00" waitingCount="0" stopTime="0.00" timeLoss="14.68" rerouteNo="0" devices="tripinfo_flow_route_139_duration_20250327_1940.1" vType="car" speedFactor="1.02" vaporized=""/>
    <tripinfo id="flow_route_151_duration_20250327_1940.0" depart="0.00" departLane="31861355#0_0" departPos="352.12" departSpeed="0.00" departDelay="0.00" arrival="72.00" arrivalLane="186410975#0_0" arrivalPos="191.84" arrivalSpeed="11.23" duration="72.00" routeLength="566.94" waitingTime="7.00" waitingCount="1" stopTime="0.00" timeLoss="32.48" rerouteNo="0" devices="tripinfo_flow_route_151_duration_20250327_1940.0" vType="car" speedFactor="1.05" vaporized=""/>
    <tripinfo id="flow_route_153_duration_20250327_1940.3" depart="7.00" departLane="31861355#0_0" departPos="425.98" departSpeed="0.00" departDelay="1.38" arrival="75.00" arrivalLane="809719540#0_0" arrivalPos="205.35" arrivalSpeed="14.56" duration="68.00" routeLength="410.47" waitingTime="2.00" waitingCount="1" stopTime="0.00" timeLoss="38.43" rerouteNo="0" devices="tripinfo_flow_route_153_duration_20250327_1940.3" vType="car" speedFactor="0.88" vaporized=""/>
    <tripinfo id="flow_route_137_duration_20250327_1940.1" depart="20.00" departLane="1310781056_0" departPos="47.31" departSpeed="0.00" departDelay="0.00" arrival="77.00" arrivalLane="714011134#0_0" arrivalPos="41.08" arrivalSpeed="11.29" duration="57.00" routeLength="187.57" waitingTime="16.00" waitingCount="1" stopTime="0.00" timeLoss="45.08" rerouteNo="0" devices="tripinfo_flow_route_137_duration_20250327_1940.1" vType="car" speedFactor="1.03" vaporized=""/>
    <tripinfo id="flow_route_153_duration_20250327_1940.2" depart="4.00" departLane="31861355#0_0" departPos="338.46" departSpeed="0.00" departDelay="0.25" arrival="81.00" arrivalLane="809719540#0_0" arrivalPos="238.42" arrivalSpeed="16.18" duration="77.00" routeLength="531.07" waitingTime="1.00" waitingCount="1" stopTime="0.00" timeLoss="43.55" rerouteNo="0" devices="tripinfo_flow_route_153_duration_20250327_1940.2" vType="car" speedFactor="1.12" vaporized=""/>
    <tripinfo id="flow_route_139_duration_20250327_1940.6" depart="52.00" departLane="1310781056_0" departPos="68.56" departSpeed="0.00" departDelay="0.57" arrival="83.00" arrivalLane="1254157399#1_1" arrivalPos="4.53" arrivalSpeed="7.97" duration="31.00" routeLength="125.81" waitingTime="1.00" waitingCount="1" stopTime="0.00" timeLoss="21.60" rerouteNo="0" devices="tripinfo_flow_route_139_duration_20250327_1940.6" vType="car" speedFactor="0.91" vaporized=""/>
    <tripinfo id="flow_route_137_duration_20250327_1940.2" depart="41.00" departLane="1310781056_0" departPos="36.68" departSpeed="0.00" departDelay="1.00" arrival="84.00" arrivalLane="714011134#0_0" arrivalPos="98.66" arrivalSpeed="15.39" duration="43.00" routeLength="255.79" waitingTime="4.00" waitingCount="1" stopTime="0.00" timeLoss="26.64" rerouteNo="0" devices="tripinfo_flow_route_137_duration_20250327_1940.2" vType="car" speedFactor="0.98" vaporized=""/>
    <tripinfo id="flow_route_135_duration_20250327_1940.2" depart="24.00" departLane="688883939#0_0" departPos="36.15" departSpeed="0.00" departDelay="0.00" arrival="92.00" arrivalLane="1254157399#1_0" arrivalPos="281.69" arrivalSpeed="16.15" duration="68.00" routeLength="379.26" waitingTime="25.00" waitingCount="1" stopTime="0.00" timeLoss="43.97" rerouteNo="0" devices="tripinfo_flow_route_135_duration_20250327_1940.2" vType="car" speedFactor="0.90" vaporized=""/>
    <tripinfo id="flow_route_138_duration_20250327_1940.1" depart="30.00" departLane="1310781056_0" departPos="67.21" departSpeed="0.00" departDelay="0.00" arrival="92.00" arrivalLane="186410975#0_0" arrivalPos="152.05" arrivalSpeed="11.24" duration="62.00" routeLength="337.66" waitingTime="15.00" waitingCount="1" stopTime="0.00" timeLoss="37.09" rerouteNo="0" devices="tripinfo_flow_route_138_duration_20250327_1940.1" vType="car" speedFactor="1.02" vaporized=""/>
    <tripinfo id="flow_route_135_duration_20250327_1940.3" depart="36.00" departLane="688883939#0_0" departPos="43.42" departSpeed="0.00" departDelay="0.00" arrival="102.00" arrivalLane="1254157399#1_0" arrivalPos="407.06" arrivalSpeed="16.39" duration="66.00" routeLength="497.36" waitingTime="15.00" waitingCount="1" stopTime="0.00" timeLoss="35.38" rerouteNo="0" devices="tripinfo_flow_route_135_duration_20250327_1940.3" vType="car" speedFactor="1.04" vaporized=""/>
    <tripinfo id="flow_route_139_duration_20250327_1940.2" depart="18.00" departLane="1310781056_0" departPos="24.08" departSpeed="0.00" departDelay="0.86" arrival="103.00" arrivalLane="1254157399#1_1" arrivalPos="446.16" arrivalSpeed="16.55" duration="85.00" routeLength="611.90" waitingTime="23.00" waitingCount="1" stopTime="0.00" timeLoss="46.19" rerouteNo="0" devices="tripinfo_flow_route_139_duration_20250327_1940.2" vType="car" speedFactor="0.97" vaporized=""/>
    <tripinfo id="flow_route_153_duration_20250327_1940.1" depart="2.00" departLane="31861355#0_0" departPos="190.94" departSpeed="0.00" departDelay="0.13" arrival="105.00" arrivalLane="809719540#0_0" arrivalPos="12.41" arrivalSpeed="5.99" duration="103.00" routeLength="452.58" waitingTime="36.00" waitingCount="2" stopTime="0.00" timeLoss="74.93" rerouteNo="0" devices="tripinfo_flow_route_153_duration_20250327_1940.1" vType="car" speedFactor="1.09" vaporized=""/>
    <tripinfo id="flow_route_139_duration_20250327_1940.3" depart="26.00" departLane="1310781056_0" departPos="80.77" departSpeed="0.00" departDelay="0.29" arrival="107.00" arrivalLane="1254157399#1_1" arrivalPos="482.70" arrivalSpeed="16.51" duration="81.00" routeLength="591.76" waitingTime="21.00" waitingCount="1" stopTime="0.00" timeLoss="44.36" rerouteNo="0" devices="tripinfo_flow_route_139_duration_20250327_1940.3" vType="car" speedFactor="1.17" vaporized=""/>
    <tripinfo id="flow_route_139_duration_20250327_1940.4" depart="35.00" departLane="1310781056_0" departPos="0.10" departSpeed="0.00" departDelay="0.72" arrival="112.00" arrivalLane="1254157399#1_0" arrivalPos="493.18" arrivalSpeed="16.15" duration="77.00" routeLength="682.91" waitingTime="6.00" waitingCount="1" stopTime="0.00" timeLoss="33.31" rerouteNo="0" devices="tripinfo_flow_route_139_duration_20250327_1940.4" vType="car" speedFactor="0.91" vaporized=""/>
    <tripinfo id="flow_route_152_duration_20250327_1940.0" depart="0.00" departLane="31861355#0_0" departPos="164.48" departSpeed="0.00" departDelay="0.00" arrival="113.00" arrivalLane="714011134#0_1" arrivalPos="26.08" arrivalSpeed="10.09" duration="113.00" routeLength="522.49" waitingTime="34.00" waitingCount="1" stopTime="0.00" timeLoss="77.57" rerouteNo="0" devices="tripinfo_flow_route_152_duration_20250327_1940.0" vType="car" speedFactor="0.89" vaporized=""/>
    <tripinfo id="flow_route_152_duration_20250327_1940.13" depart="28.00" departLane="31861355#0_0" departPos="419.93" departSpeed="0.00" departDelay="3.63" arrival="114.00" arrivalLane="714011134#0_1" arrivalPos="10.70" arrivalSpeed="9.97" duration="86.00" routeLength="251.65" waitingTime="33.00" waitingCount="1" stopTime="0.00" timeLoss="67.81" rerouteNo="0" devices="tripinfo_flow_route_152_duration_20250327_1940.13" vType="car" speedFactor="0.85" vaporized=""/>
    <tripinfo id="flow_route_139_duration_20250327_1940.5" depart="43.00" departLane="1310781056_0" departPos="14.68" departSpeed="0.00" departDelay="0.15" arrival="114.00" arrivalLane="1254157399#1_0" arrivalPos="495.52" arrivalSpeed="16.50" duration="71.00" routeLength="670.66" waitingTime="5.00" waitingCount="1" stopTime="0.00" timeLoss="28.75" rerouteNo="0" devices="tripinfo_flow_route_139_duration_20250327_1940.5" vType="car" speedFactor="1.00" vaporized=""/>
    <tripinfo id="flow_route_135_duration_20250327_1940.4" depart="48.00" departLane="688883939#0_0" departPos="59.95" departSpeed="0.00" departDelay="0.00" arrival="115.00" arrivalLane="1254157399#1_0" arrivalPos="581.40" arrivalSpeed="16.28" duration="67.00" routeLength="655.18" waitingTime="7.00" waitingCount="1" stopTime="0.00" timeLoss="26.16" rerouteNo="0" devices="tripinfo_flow_route_135_duration_20250327_1940.4" vType="car" speedFactor="0.89" vaporized=""/>
    <tripinfo id="flow_route_152_duration_20250327_1940.2" depart="4.00" departLane="31861355#0_0" departPos="246.60" departSpeed="0.00" departDelay="0.25" arrival="116.00" arrivalLane="714011134#0_1" arrivalPos="86.87" arrivalSpeed="13.33" duration="112.00" routeLength="501.16" waitingTime="36.00" waitingCount="1" stopTime="0.00" timeLoss="81.68" rerouteNo="0" devices="tripinfo_flow_route_152_duration_20250327_1940.2" vType="car" speedFactor="1.05" vaporized=""/>
    <tripinfo id="flow_route_152_duration_20250327_1940.3" depart="6.00" departLane="31861355#0_0" departPos="98.93" departSpeed="0.00" departDelay="0.38" arrival="120.00" arrivalLane="714011134#0_1" arrivalPos="31.80" arrivalSpeed="12.42" duration="114.00" routeLength="593.75" waitingTime="32.00" waitingCount="1" stopTime="0.00" timeLoss="75.45" rerouteNo="0" devices="tripinfo_flow_route_152_duration_20250327_1940.3" vType="car" speedFactor="0.93" vaporized=""/>
    <tripinfo id="flow_route_153_duration_20250327_1940.0" depart="0.00" departLane="31861355#0_0" departPos="37.47" departSpeed="0.00" departDelay="0.00" arrival="121.00" arrivalLane="809719540#0_0" arrivalPos="146.46" arrivalSpeed="15.60" duration="121.00" routeLength="740.10" waitingTime="34.00" waitingCount="1" stopTime="0.00" timeLoss="71.98" rerouteNo="0" devices="tripinfo_flow_route_153_duration_20250327_1940.0" vType="car" speedFactor="0.94" vaporized=""/>
    <tripinfo id="flow_route_151_duration_20250327_1940.3" depart="9.00" departLane="31861355#0_0" departPos="138.75" departSpeed="0.00" departDelay="2.33" arrival="122.00" arrivalLane="186410975#0_1" arrivalPos="7.70" arrivalSpeed="9.97" duration="113.00" routeLength="596.16" waitingTime="32.00" waitingCount="1" stopTime="0.00" timeLoss="74.14" rerouteNo="0" devices="tripinfo_flow_route_151_duration_20250327_1940.3" vType="car" speedFactor="0.94" vaporized=""/>
    <tripinfo id="flow_route_151_duration_20250327_1940.12" depart="29.00" departLane="31861355#0_0" departPos="412.45" departSpeed="0.00" departDelay="2.34" arrival="122.00" arrivalLane="186410975#0_0" arrivalPos="32.08" arrivalSpeed="11.21" duration="93.00" routeLength="346.84" waitingTime="33.00" waitingCount="1" stopTime="0.00" timeLoss="70.55" rerouteNo="0" devices="tripinfo_flow_route_151_duration_20250327_1940.12" vType="car" speedFactor="1.02" vaporized=""/>
    <tripinfo id="flow_route_152_duration_20250327_1940.22" depart="63.00" departLane="31861355#0_0" departPos="571.00" departSpeed="0.00" departDelay="21.75" arrival="126.00" arrivalLane="714011134#0_1" arrivalPos="76.21" arrivalSpeed="15.28" duration="63.00" routeLength="166.10" waitingTime="34.00" waitingCount="2" stopTime="0.00" timeLoss="52.29" rerouteNo="0" devices="tripinfo_flow_route_152_duration_20250327_1940.22" vType="car" speedFactor="1.09" vaporized=""/>
    <tripinfo id="flow_route_152_duration_20250327_1940.12" depart="28.00" departLane="31861355#0_0" departPos="298.48" departSpeed="0.00" departDelay="5.50" arrival="127.00" arrivalLane="714011134#0_1" arrivalPos="65.89" arrivalSpeed="15.44" duration="99.00" routeLength="428.29" waitingTime="32.00" waitingCount="1" stopTime="0.00" timeLoss="72.38" rerouteNo="0" devices="tripinfo_flow_route_152_duration_20250327_1940.12" vType="car" speedFactor="1.09" vaporized=""/>
    <tripinfo id="flow_route_152_duration_20250327_1940.14" depart="31.00" departLane="31861355#0_0" departPos="356.51" departSpeed="0.00" departDelay="4.75" arrival="130.00" arrivalLane="714011134#0_1" arrivalPos="75.17" arrivalSpeed="15.81" duration="99.00" routeLength="379.54" waitingTime="32.00" waitingCount="1" stopTime="0.00" timeLoss="75.22" rerouteNo="0" devices="tripinfo_flow_route_152_duration_20250327_1940.14" vType="car" speedFactor="1.10" vaporized=""/>
    <tripinfo id="flow_route_153_duration_20250327_1940.7" depart="14.00" departLane="31861355#0_0" departPos="111.29" departSpeed="0.00" departDelay="0.88" arrival="133.00" arrivalLane="809719540#0_0" arrivalPos="146.86" arrivalSpeed="15.33" duration="119.00" routeLength="666.68" waitingTime="31.00" waitingCount="1" stopTime="0.00" timeLoss="77.45" rerouteNo="0" devices="tripinfo_flow_route_153_duration_20250327_1940.7" vType="car" speedFactor="1.18" vaporized=""/>
    <tripinfo id="flow_route_151_duration_20250327_1940.9" depart="24.00" departLane="31861355#0_0" departPos="356.70" departSpeed="0.00" departDelay="4.00" arrival="134.00" arrivalLane="186410975#0_0" arrivalPos="132.36" arrivalSpeed="10.61" duration="110.00" routeLength="502.87" waitingTime="32.00" waitingCount="1" stopTime="0.00" timeLoss="73.67" rerouteNo="0" devices="tripinfo_flow_route_151_duration_20250327_1940.9" vType="car" speedFactor="0.96" vaporized=""/>
    <tripinfo id="flow_route_152_duration_20250327_1940.8" depart="15.00" departLane="31861355#0_0" departPos="210.80" departSpeed="0.00" departDelay="0.00" arrival="135.00" arrivalLane="714011134#0_1" arrivalPos="104.58" arrivalSpeed="16.41" duration="120.00" routeLength="554.65" waitingTime="31.00" waitingCount="1" stopTime="0.00" timeLoss="86.26" rerouteNo="0" devices="tripinfo_flow_route_152_duration_20250327_1940.8" vType="car" speedFactor="1.15" vaporized=""/>
    <tripinfo id="flow_route_153_duration_20250327_1940.17" depart="50.00" departLane="31861355#0_0" departPos="466.09" departSpeed="0.00" departDelay="18.13" arrival="135.00" arrivalLane="809719540#0_0" arrivalPos="220.55" arrivalSpeed="15.28" duration="85.00" routeLength="385.57" waitingTime="31.00" waitingCount="1" stopTime="0.00" timeLoss="60.15" rerouteNo="0" devices="tripinfo_flow_route_153_duration_20250327_1940.17" vType="car" speedFactor="0.99" vaporized=""/>
    <tripinfo id="flow_route_153_duration_20250327_1940.18" depart="52.00" departLane="31861355#0_0" departPos="493.00" departSpeed="0.00" departDelay="18.25" arrival="135.00" arrivalLane="809719540#0_0" arrivalPos="242.64" arrivalSpeed="15.02" duration="83.00" routeLength="380.76" waitingTime="32.00" waitingCount="1" stopTime="0.00" timeLoss="56.04" rerouteNo="0" devices="tripinfo_flow_route_153_duration_20250327_1940.18" vType="car" speedFactor="0.91" vaporized=""/>
    <tripinfo id="flow_route_151_duration_20250327_1940.8" depart="23.00" departLane="31861355#0_0" departPos="306.35" departSpeed="0.00" departDelay="5.22" arrival="138.00" arrivalLane="186410975#0_1" arrivalPos="90.81" arrivalSpeed="12.91" duration="115.00" routeLength="511.67" waitingTime="31.00" waitingCount="1" stopTime="0.00" timeLoss="82.25" rerouteNo="0" devices="tripinfo_flow_route_151_duration_20250327_1940.8" vType="car" speedFactor="1.18" vaporized=""/>
    <tripinfo id="flow_route_153_duration_20250327_1940.13" depart="29.00" departLane="31861355#0_0" departPos="214.25" departSpeed="0.00" departDelay="4.63" arrival="140.00" arrivalLane="809719540#0_0" arrivalPos="125.26" arrivalSpeed="13.88" duration="111.00" routeLength="542.12" waitingTime="28.00" waitingCount="1" stopTime="0.00" timeLoss="71.11" rerouteNo="0" devices="tripinfo_flow_route_153_duration_20250327_1940.13" vType="car" speedFactor="0.85" vaporized=""/>
    <tripinfo id="flow_route_153_duration_20250327_1940.15" depart="35.00" departLane="31861355#0_0" departPos="292.43" departSpeed="0.00" departDelay="6.88" arrival="140.00" arrivalLane="809719540#0_0" arrivalPos="242.93" arrivalSpeed="16.59" duration="105.00" routeLength="581.61" waitingTime="31.00" waitingCount="1" stopTime="0.00" timeLoss="69.34" rerouteNo="0" devices="tripinfo_flow_route_153_duration_20250327_1940.15" vType="car" speedFactor="1.14" vaporized=""/>
    <tripinfo id="flow_route_151_duration_20250327_1940.10" depart="28.00" departLane="31861355#0_0" departPos="231.07" departSpeed="0.00" departDelay="5.78" arrival="153.00" arrivalLane="186410975#0_0" arrivalPos="225.99" arrivalSpeed="11.17" duration="125.00" routeLength="722.12" waitingTime="29.00" waitingCount="1" stopTime="0.00" timeLoss="74.68" rerouteNo="0" devices="tripinfo_flow_route_151_duration_20250327_1940.10" vType="car" speedFactor="1.04" vaporized=""/>
    <tripinfo id="flow_route_152_duration_20250327_1940.10" depart="23.00" departLane="31861355#0_0" departPos="264.33" departSpeed="0.00" departDelay="4.25" arrival="179.00" arrivalLane="714011134#0_1" arrivalPos="71.53" arrivalSpeed="13.37" duration="156.00" routeLength="468.07" waitingTime="66.00" waitingCount="2" stopTime="0.00" timeLoss="127.06" rerouteNo="0" devices="tripinfo_flow_route_152_duration_20250327_1940.10" vType="car" speedFactor="1.10" vaporized=""/>
    <tripinfo id="flow_route_152_duration_20250327_1940.4" depart="10.00" departLane="31861355#0_0" departPos="55.35" departSpeed="0.00" departDelay="2.50" arrival="182.00" arrivalLane="714011134#0_1" arrivalPos="13.63" arrivalSpeed="11.25" duration="172.00" routeLength="619.16" waitingTime="62.00" waitingCount="2" stopTime="0.00" timeLoss="131.87" rerouteNo="0" devices="tripinfo_flow_route_152_duration_20250327_1940.4" vType="car" speedFactor="0.94" vaporized=""/>
    <tripinfo id="flow_route_153_duration_20250327_1940.8" depart="15.00" departLane="31861355#0_0" departPos="53.49" departSpeed="0.00" departDelay="0.00" arrival="183.00" arrivalLane="809719540#0_0" arrivalPos="84.30" arrivalSpeed="13.11" duration="168.00" routeLength="661.93" waitingTime="61.00" waitingCount="2" stopTime="0.00" timeLoss="126.79" rerouteNo="0" devices="tripinfo_flow_route_153_duration_20250327_1940.8" vType="car" speedFactor="1.01" vaporized=""/>
    <tripinfo id="flow_route_153_duration_20250327_1940.6" depart="13.00" departLane="31861355#0_0" departPos="94.41" departSpeed="0.00" departDelay="1.75" arrival="185.00" arrivalLane="809719540#0_0" arrivalPos="155.81" arrivalSpeed="15.39" duration="172.00" routeLength="692.51" waitingTime="60.00" waitingCount="2" stopTime="0.00" timeLoss="126.67" rerouteNo="0" devices="tripinfo_flow_route_153_duration_20250327_1940.6" vType="car" speedFactor="0.95" vaporized=""/>
    <tripinfo id="flow_route_152_duration_20250327_1940.7" depart="14.00" departLane="31861355#0_0" departPos="41.64" departSpeed="0.00" departDelay="0.88" arrival="185.00" arrivalLane="714011134#0_1" arrivalPos="29.39" arrivalSpeed="12.88" duration="171.00" routeLength="648.62" waitingTime="60.00" waitingCount="2" stopTime="0.00" timeLoss="128.90" rerouteNo="0" devices="tripinfo_flow_route_152_duration_20250327_1940.7" vType="car" speedFactor="0.93" vaporized=""/>
    <tripinfo id="flow_route_153_duration_20250327_1940.9" depart="21.00" departLane="31861355#0_0" departPos="14.83" departSpeed="0.00" departDelay="4.13" arrival="188.00" arrivalLane="809719540#0_0" arrivalPos="12.58" arrivalSpeed="6.95" duration="167.00" routeLength="628.86" waitingTime="53.00" waitingCount="2" stopTime="0.00" timeLoss="127.72" rerouteNo="0" devices="tripinfo_flow_route_153_duration_20250327_1940.9" vType="car" speedFactor="1.02" vaporized=""/>
    <tripinfo id="flow_route_152_duration_20250327_1940.16" depart="40.00" departLane="31861355#0_0" departPos="206.96" departSpeed="0.00" departDelay="10.00" arrival="188.00" arrivalLane="714011134#0_1" arrivalPos="29.22" arrivalSpeed="13.06" duration="148.00" routeLength="483.15" waitingTime="58.00" waitingCount="2" stopTime="0.00" timeLoss="117.36" rerouteNo="0" devices="tripinfo_flow_route_152_duration_20250327_1940.16" vType="car" speedFactor="0.97" vaporized=""/>