<?xml version="1.0" encoding="UTF-8"?>

<!-- generated on 2025-05-06 21:08:33 by Eclipse SUMO sumo Version 1.20.0
<configuration xmlns:xsi="http://www.w3.org/2001/XMLSchema-instance" xsi:noNamespaceSchemaLocation="http://sumo.dlr.de/xsd/sumoConfiguration.xsd">

    <input>
        <net-file value="osm.net.xml"/>
        <route-files value="xml/route_rl_cluster_11657899598_353811979_6712514804_5.rou.xml"/>
    </input>

    <output>
        <tripinfo-output value="xml/tripinfo_rl_cluster_11657899598_353811979_6712514804_5.xml"/>
    </output>

    <traci_server>
        <remote-port value="45059"/>
    </traci_server>

</configuration>
-->

<tripinfos xmlns:xsi="http://www.w3.org/2001/XMLSchema-instance" xsi:noNamespaceSchemaLocation="http://sumo.dlr.de/xsd/tripinfo_file.xsd">
    <tripinfo id="flow_route_136_duration_20250327_2220.0" depart="0.00" departLane="688883939#0_0" departPos="70.95" departSpeed="0.00" departDelay="0.00" arrival="22.00" arrivalLane="186410975#0_1" arrivalPos="11.74" arrivalSpeed="11.21" duration="22.00" routeLength="133.80" waitingTime="1.00" waitingCount="1" stopTime="0.00" timeLoss="11.77" rerouteNo="0" devices="tripinfo_flow_route_136_duration_20250327_2220.0" vType="car" speedFactor="1.01" vaporized=""/>
    <tripinfo id="flow_route_137_duration_20250327_2220.0" depart="0.00" departLane="1310781056_0" departPos="52.86" departSpeed="0.00" departDelay="0.00" arrival="22.00" arrivalLane="714011134#0_0" arrivalPos="51.79" arrivalSpeed="16.36" duration="22.00" routeLength="192.73" waitingTime="0.00" waitingCount="0" stopTime="0.00" timeLoss="9.89" rerouteNo="0" devices="tripinfo_flow_route_137_duration_20250327_2220.0" vType="car" speedFactor="1.08" vaporized=""/>
    <tripinfo id="flow_route_134_duration_20250327_2220.0" depart="0.00" departLane="688883939#0_0" departPos="78.56" departSpeed="0.00" departDelay="0.00" arrival="28.00" arrivalLane="809719540#0_0" arrivalPos="239.32" arrivalSpeed="16.14" duration="28.00" routeLength="300.42" waitingTime="0.00" waitingCount="0" stopTime="0.00" timeLoss="9.69" rerouteNo="0" devices="tripinfo_flow_route_134_duration_20250327_2220.0" vType="car" speedFactor="1.06" vaporized=""/>
    <tripinfo id="flow_route_139_duration_20250327_2220.0" depart="1.00" departLane="1310781056_0" departPos="36.51" departSpeed="0.00" departDelay="1.00" arrival="28.00" arrivalLane="1254157399#1_1" arrivalPos="26.95" arrivalSpeed="10.22" duration="27.00" routeLength="180.27" waitingTime="0.00" waitingCount="0" stopTime="0.00" timeLoss="13.60" rerouteNo="0" devices="tripinfo_flow_route_139_duration_20250327_2220.0" vType="car" speedFactor="0.83" vaporized=""/>
    <tripinfo id="flow_route_138_duration_20250327_2220.0" depart="1.00" departLane="1310781056_0" departPos="99.29" departSpeed="0.00" departDelay="1.00" arrival="35.00" arrivalLane="186410975#0_0" arrivalPos="152.27" arrivalSpeed="11.40" duration="34.00" routeLength="305.80" waitingTime="0.00" waitingCount="0" stopTime="0.00" timeLoss="11.06" rerouteNo="0" devices="tripinfo_flow_route_138_duration_20250327_2220.0" vType="car" speedFactor="1.03" vaporized=""/>
    <tripinfo id="flow_route_135_duration_20250327_2220.0" depart="0.00" departLane="688883939#0_0" departPos="0.64" departSpeed="0.00" departDelay="0.00" arrival="45.00" arrivalLane="1254157399#1_0" arrivalPos="440.36" arrivalSpeed="16.28" duration="45.00" routeLength="573.44" waitingTime="0.00" waitingCount="0" stopTime="0.00" timeLoss="9.40" rerouteNo="0" devices="tripinfo_flow_route_135_duration_20250327_2220.0" vType="car" speedFactor="0.94" vaporized=""/>
    <tripinfo id="flow_route_152_duration_20250327_2220.0" depart="0.00" departLane="31861355#0_0" departPos="164.48" departSpeed="0.00" departDelay="0.00" arrival="52.00" arrivalLane="714011134#0_1" arrivalPos="26.08" arrivalSpeed="9.72" duration="52.00" routeLength="522.49" waitingTime="0.00" waitingCount="0" stopTime="0.00" timeLoss="16.24" rerouteNo="0" devices="tripinfo_flow_route_152_duration_20250327_2220.0" vType="car" speedFactor="0.89" vaporized=""/>
    <tripinfo id="flow_route_152_duration_20250327_2220.1" depart="9.00" departLane="31861355#0_0" departPos="190.94" departSpeed="0.00" departDelay="0.43" arrival="56.00" arrivalLane="714011134#0_1" arrivalPos="54.06" arrivalSpeed="12.28" duration="47.00" routeLength="524.01" waitingTime="0.00" waitingCount="0" stopTime="0.00" timeLoss="15.19" rerouteNo="0" devices="tripinfo_flow_route_152_duration_20250327_2220.1" vType="car" speedFactor="1.09" vaporized=""/>
    <tripinfo id="flow_route_153_duration_20250327_2220.1" depart="12.00" departLane="31861355#0_0" departPos="551.93" departSpeed="0.00" departDelay="0.00" arrival="63.00" arrivalLane="809719540#0_0" arrivalPos="221.41" arrivalSpeed="16.36" duration="51.00" routeLength="300.58" waitingTime="10.00" waitingCount="1" stopTime="0.00" timeLoss="31.50" rerouteNo="0" devices="tripinfo_flow_route_153_duration_20250327_2220.1" vType="car" speedFactor="1.05" vaporized=""/>
    <tripinfo id="flow_route_151_duration_20250327_2220.4" depart="22.00" departLane="31861355#0_0" departPos="475.38" departSpeed="0.00" departDelay="0.18" arrival="64.00" arrivalLane="186410975#0_0" arrivalPos="77.89" arrivalSpeed="10.27" duration="42.00" routeLength="329.72" waitingTime="0.00" waitingCount="0" stopTime="0.00" timeLoss="17.90" rerouteNo="0" devices="tripinfo_flow_route_151_duration_20250327_2220.4" vType="car" speedFactor="0.93" vaporized=""/>
    <tripinfo id="flow_route_153_duration_20250327_2220.0" depart="0.00" departLane="31861355#0_0" departPos="37.47" departSpeed="0.00" departDelay="0.00" arrival="66.00" arrivalLane="809719540#0_0" arrivalPos="146.46" arrivalSpeed="15.17" duration="66.00" routeLength="740.10" waitingTime="0.00" waitingCount="0" stopTime="0.00" timeLoss="17.79" rerouteNo="0" devices="tripinfo_flow_route_153_duration_20250327_2220.0" vType="car" speedFactor="0.94" vaporized=""/>
    <tripinfo id="flow_route_151_duration_20250327_2220.3" depart="17.00" departLane="31861355#0_0" departPos="338.46" departSpeed="0.00" departDelay="0.64" arrival="66.00" arrivalLane="186410975#0_1" arrivalPos="102.36" arrivalSpeed="12.24" duration="49.00" routeLength="491.11" waitingTime="0.00" waitingCount="0" stopTime="0.00" timeLoss="16.97" rerouteNo="0" devices="tripinfo_flow_route_151_duration_20250327_2220.3" vType="car" speedFactor="1.12" vaporized=""/>
    <tripinfo id="flow_route_151_duration_20250327_2220.2" depart="11.00" departLane="31861355#0_0" departPos="583.90" departSpeed="0.00" departDelay="0.09" arrival="67.00" arrivalLane="186410975#0_0" arrivalPos="163.51" arrivalSpeed="11.22" duration="56.00" routeLength="306.81" waitingTime="14.00" waitingCount="1" stopTime="0.00" timeLoss="32.88" rerouteNo="0" devices="tripinfo_flow_route_151_duration_20250327_2220.2" vType="car" speedFactor="1.03" vaporized=""/>
    <tripinfo id="flow_route_152_duration_20250327_2220.4" depart="38.00" departLane="31861355#0_0" departPos="430.05" departSpeed="0.00" departDelay="3.72" arrival="68.00" arrivalLane="714011134#0_1" arrivalPos="85.55" arrivalSpeed="16.08" duration="30.00" routeLength="316.38" waitingTime="0.00" waitingCount="0" stopTime="0.00" timeLoss="10.40" rerouteNo="0" devices="tripinfo_flow_route_152_duration_20250327_2220.4" vType="car" speedFactor="0.97" vaporized=""/>
    <tripinfo id="flow_route_152_duration_20250327_2220.2" depart="18.00" departLane="31861355#0_0" departPos="20.16" departSpeed="0.00" departDelay="0.86" arrival="69.00" arrivalLane="714011134#0_1" arrivalPos="24.95" arrivalSpeed="16.22" duration="51.00" routeLength="665.67" waitingTime="0.00" waitingCount="0" stopTime="0.00" timeLoss="10.64" rerouteNo="0" devices="tripinfo_flow_route_152_duration_20250327_2220.2" vType="car" speedFactor="0.99" vaporized=""/>
    <tripinfo id="flow_route_151_duration_20250327_2220.0" depart="0.00" departLane="31861355#0_0" departPos="352.12" departSpeed="0.00" departDelay="0.00" arrival="70.00" arrivalLane="186410975#0_1" arrivalPos="191.84" arrivalSpeed="11.42" duration="70.00" routeLength="566.94" waitingTime="7.00" waitingCount="1" stopTime="0.00" timeLoss="30.34" rerouteNo="0" devices="tripinfo_flow_route_151_duration_20250327_2220.0" vType="car" speedFactor="1.05" vaporized=""/>
    <tripinfo id="flow_route_151_duration_20250327_2220.5" depart="28.00" departLane="31861355#0_0" departPos="255.78" departSpeed="0.00" departDelay="0.73" arrival="73.00" arrivalLane="186410975#0_1" arrivalPos="32.36" arrivalSpeed="9.93" duration="45.00" routeLength="503.79" waitingTime="0.00" waitingCount="0" stopTime="0.00" timeLoss="11.24" rerouteNo="0" devices="tripinfo_flow_route_151_duration_20250327_2220.5" vType="car" speedFactor="0.94" vaporized=""/>
    <tripinfo id="flow_route_152_duration_20250327_2220.5" depart="44.00" departLane="31861355#0_0" departPos="398.98" departSpeed="0.00" departDelay="1.15" arrival="73.00" arrivalLane="714011134#0_1" arrivalPos="17.75" arrivalSpeed="14.11" duration="29.00" routeLength="279.65" waitingTime="0.00" waitingCount="0" stopTime="0.00" timeLoss="9.06" rerouteNo="0" devices="tripinfo_flow_route_152_duration_20250327_2220.5" vType="car" speedFactor="0.87" vaporized=""/>
    <tripinfo id="flow_route_152_duration_20250327_2220.3" depart="27.00" departLane="31861355#0_0" departPos="80.45" departSpeed="0.00" departDelay="1.29" arrival="80.00" arrivalLane="714011134#0_1" arrivalPos="72.20" arrivalSpeed="15.20" duration="53.00" routeLength="652.63" waitingTime="0.00" waitingCount="0" stopTime="0.00" timeLoss="10.50" rerouteNo="0" devices="tripinfo_flow_route_152_duration_20250327_2220.3" vType="car" speedFactor="0.94" vaporized=""/>
    <tripinfo id="flow_route_151_duration_20250327_2220.9" depart="50.00" departLane="31861355#0_0" departPos="577.11" departSpeed="0.00" departDelay="0.91" arrival="82.00" arrivalLane="186410975#0_0" arrivalPos="141.13" arrivalSpeed="11.86" duration="32.00" routeLength="291.23" waitingTime="0.00" waitingCount="0" stopTime="0.00" timeLoss="11.38" rerouteNo="0" devices="tripinfo_flow_route_151_duration_20250327_2220.9" vType="car" speedFactor="1.13" vaporized=""/>
    <tripinfo id="flow_route_151_duration_20250327_2220.1" depart="6.00" departLane="31861355#0_0" departPos="28.73" departSpeed="0.00" departDelay="0.55" arrival="83.00" arrivalLane="186410975#0_0" arrivalPos="176.45" arrivalSpeed="9.29" duration="77.00" routeLength="874.93" waitingTime="0.00" waitingCount="0" stopTime="0.00" timeLoss="10.68" rerouteNo="0" devices="tripinfo_flow_route_151_duration_20250327_2220.1" vType="car" speedFactor="0.86" vaporized=""/>
    <tripinfo id="flow_route_139_duration_20250327_2220.1" depart="30.00" departLane="1310781056_0" departPos="19.05" departSpeed="0.00" departDelay="0.00" arrival="97.00" arrivalLane="1254157399#1_0" arrivalPos="163.21" arrivalSpeed="16.16" duration="67.00" routeLength="333.99" waitingTime="22.00" waitingCount="1" stopTime="0.00" timeLoss="45.51" rerouteNo="0" devices="tripinfo_flow_route_139_duration_20250327_2220.1" vType="car" speedFactor="1.02" vaporized=""/>
    <tripinfo id="flow_route_151_duration_20250327_2220.7" depart="40.00" departLane="31861355#0_0" departPos="360.69" departSpeed="0.00" departDelay="1.82" arrival="106.00" arrivalLane="186410975#0_0" arrivalPos="247.77" arrivalSpeed="8.85" duration="66.00" routeLength="614.29" waitingTime="0.00" waitingCount="0" stopTime="0.00" timeLoss="12.97" rerouteNo="0" devices="tripinfo_flow_route_151_duration_20250327_2220.7" vType="car" speedFactor="0.83" vaporized=""/>
    <tripinfo id="flow_route_136_duration_20250327_2220.1" depart="30.00" departLane="688883939#0_0" departPos="23.52" departSpeed="0.00" departDelay="0.00" arrival="109.00" arrivalLane="186410975#0_0" arrivalPos="248.96" arrivalSpeed="12.73" duration="79.00" routeLength="418.45" waitingTime="28.00" waitingCount="1" stopTime="0.00" timeLoss="48.09" rerouteNo="0" devices="tripinfo_flow_route_136_duration_20250327_2220.1" vType="car" speedFactor="1.16" vaporized=""/>
    <tripinfo id="flow_route_153_duration_20250327_2220.4" depart="48.00" departLane="31861355#0_0" departPos="173.39" departSpeed="0.00" departDelay="0.00" arrival="123.00" arrivalLane="809719540#0_0" arrivalPos="7.48" arrivalSpeed="5.57" duration="75.00" routeLength="465.20" waitingTime="25.00" waitingCount="1" stopTime="0.00" timeLoss="44.26" rerouteNo="0" devices="tripinfo_flow_route_153_duration_20250327_2220.4" vType="car" speedFactor="0.95" vaporized=""/>
    <tripinfo id="flow_route_153_duration_20250327_2220.2" depart="25.00" departLane="31861355#0_0" departPos="18.54" departSpeed="0.00" departDelay="1.00" arrival="125.00" arrivalLane="809719540#0_0" arrivalPos="42.74" arrivalSpeed="8.58" duration="100.00" routeLength="655.30" waitingTime="32.00" waitingCount="1" stopTime="0.00" timeLoss="54.00" rerouteNo="0" devices="tripinfo_flow_route_153_duration_20250327_2220.2" vType="car" speedFactor="0.88" vaporized=""/>
    <tripinfo id="flow_route_152_duration_20250327_2220.6" depart="52.00" departLane="31861355#0_0" departPos="111.29" departSpeed="0.00" departDelay="0.57" arrival="127.00" arrivalLane="714011134#0_1" arrivalPos="7.06" arrivalSpeed="9.63" duration="75.00" routeLength="556.65" waitingTime="17.00" waitingCount="1" stopTime="0.00" timeLoss="38.62" rerouteNo="0" devices="tripinfo_flow_route_152_duration_20250327_2220.6" vType="car" speedFactor="0.93" vaporized=""/>
    <tripinfo id="flow_route_153_duration_20250327_2220.3" depart="39.00" departLane="31861355#0_0" departPos="191.38" departSpeed="0.00" departDelay="3.00" arrival="133.00" arrivalLane="809719540#0_0" arrivalPos="179.46" arrivalSpeed="14.77" duration="94.00" routeLength="619.18" waitingTime="31.00" waitingCount="1" stopTime="0.00" timeLoss="50.79" rerouteNo="0" devices="tripinfo_flow_route_153_duration_20250327_2220.3" vType="car" speedFactor="0.89" vaporized=""/>
    <tripinfo id="flow_route_151_duration_20250327_2220.8" depart="44.00" departLane="31861355#0_0" departPos="94.41" departSpeed="0.00" departDelay="0.37" arrival="135.00" arrivalLane="186410975#0_1" arrivalPos="47.33" arrivalSpeed="9.84" duration="91.00" routeLength="680.13" waitingTime="20.00" waitingCount="1" stopTime="0.00" timeLoss="44.69" rerouteNo="0" devices="tripinfo_flow_route_151_duration_20250327_2220.8" vType="car" speedFactor="0.92" vaporized=""/>
    <tripinfo id="flow_route_151_duration_20250327_2220.6" depart="33.00" departLane="31861355#0_0" departPos="150.10" departSpeed="0.00" departDelay="0.28" arrival="141.00" arrivalLane="186410975#0_0" arrivalPos="147.54" arrivalSpeed="11.03" duration="108.00" routeLength="724.65" waitingTime="32.00" waitingCount="1" stopTime="0.00" timeLoss="59.89" rerouteNo="0" devices="tripinfo_flow_route_151_duration_20250327_2220.6" vType="car" speedFactor="1.01" vaporized=""/>
    <tripinfo id="flow_route_151_duration_20250327_2220.10" depart="57.00" departLane="31861355#0_0" departPos="53.49" departSpeed="0.00" departDelay="2.46" arrival="153.00" arrivalLane="186410975#0_0" arrivalPos="256.11" arrivalSpeed="12.71" duration="96.00" routeLength="929.84" waitingTime="9.00" waitingCount="1" stopTime="0.00" timeLoss="35.57" rerouteNo="0" devices="tripinfo_flow_route_151_duration_20250327_2220.10" vType="car" speedFactor="1.18" vaporized=""/>
</tripinfos>
