<?xml version="1.0" encoding="UTF-8"?>

<!-- generated on 2025-05-06 21:08:26 by Eclipse SUMO sumo Version 1.20.0
<configuration xmlns:xsi="http://www.w3.org/2001/XMLSchema-instance" xsi:noNamespaceSchemaLocation="http://sumo.dlr.de/xsd/sumoConfiguration.xsd">

    <input>
        <net-file value="osm.net.xml"/>
        <route-files value="xml/route_static_cluster_356722183_3828703848_4.rou.xml"/>
    </input>

    <output>
        <tripinfo-output value="xml/tripinfo_static_cluster_356722183_3828703848_4.xml"/>
    </output>

    <traci_server>
        <remote-port value="49513"/>
    </traci_server>

</configuration>
-->

<tripinfos xmlns:xsi="http://www.w3.org/2001/XMLSchema-instance" xsi:noNamespaceSchemaLocation="http://sumo.dlr.de/xsd/tripinfo_file.xsd">
    <tripinfo id="flow_route_18_duration_20250327_2150.0" depart="0.00" departLane="133126040#0_0" departPos="80.59" departSpeed="0.00" departDelay="0.00" arrival="13.00" arrivalLane="1318893695#0_0" arrivalPos="9.11" arrivalSpeed="9.75" duration="13.00" routeLength="59.37" waitingTime="0.00" waitingCount="0" stopTime="0.00" timeLoss="9.07" rerouteNo="0" devices="tripinfo_flow_route_18_duration_20250327_2150.0" vType="car" speedFactor="1.01" vaporized=""/>
    <tripinfo id="flow_route_19_duration_20250327_2150.2" depart="6.00" departLane="133126040#0_0" departPos="17.21" departSpeed="0.00" departDelay="0.00" arrival="30.00" arrivalLane="133126031#0_1" arrivalPos="10.78" arrivalSpeed="9.13" duration="24.00" routeLength="122.44" waitingTime="0.00" waitingCount="0" stopTime="0.00" timeLoss="15.30" rerouteNo="0" devices="tripinfo_flow_route_19_duration_20250327_2150.2" vType="car" speedFactor="1.03" vaporized=""/>
    <tripinfo id="flow_route_19_duration_20250327_2150.3" depart="9.00" departLane="133126040#0_0" departPos="87.79" departSpeed="0.00" departDelay="0.00" arrival="30.00" arrivalLane="133126031#0_1" arrivalPos="87.82" arrivalSpeed="13.38" duration="21.00" routeLength="128.89" waitingTime="0.00" waitingCount="0" stopTime="0.00" timeLoss="11.00" rerouteNo="0" devices="tripinfo_flow_route_19_duration_20250327_2150.3" vType="car" speedFactor="0.93" vaporized=""/>
    <tripinfo id="flow_route_19_duration_20250327_2150.1" depart="3.00" departLane="133126040#0_0" departPos="68.52" departSpeed="0.00" departDelay="0.00" arrival="33.00" arrivalLane="133126031#0_1" arrivalPos="227.33" arrivalSpeed="16.36" duration="30.00" routeLength="287.69" waitingTime="0.00" waitingCount="0" stopTime="0.00" timeLoss="10.81" rerouteNo="0" devices="tripinfo_flow_route_19_duration_20250327_2150.1" vType="car" speedFactor="0.94" vaporized=""/>
    <tripinfo id="flow_route_0_duration_20250327_2150.0" depart="0.00" departLane="1318793176#1_0" departPos="2.64" departSpeed="0.00" departDelay="0.00" arrival="36.00" arrivalLane="133126031#0_0" arrivalPos="296.30" arrivalSpeed="16.57" duration="36.00" routeLength="414.08" waitingTime="0.00" waitingCount="0" stopTime="0.00" timeLoss="10.50" rerouteNo="0" devices="tripinfo_flow_route_0_duration_20250327_2150.0" vType="car" speedFactor="1.06" vaporized=""/>
    <tripinfo id="flow_route_19_duration_20250327_2150.0" depart="0.00" departLane="133126040#0_0" departPos="0.65" departSpeed="0.00" departDelay="0.00" arrival="36.00" arrivalLane="133126031#0_1" arrivalPos="163.43" arrivalSpeed="16.38" duration="36.00" routeLength="291.65" waitingTime="0.00" waitingCount="0" stopTime="0.00" timeLoss="17.19" rerouteNo="0" devices="tripinfo_flow_route_19_duration_20250327_2150.0" vType="car" speedFactor="1.08" vaporized=""/>
    <tripinfo id="flow_route_0_duration_20250327_2150.1" depart="9.00" departLane="1318793176#1_0" departPos="1.79" departSpeed="0.00" departDelay="6.78" arrival="36.00" arrivalLane="133126031#0_0" arrivalPos="107.07" arrivalSpeed="15.86" duration="27.00" routeLength="225.70" waitingTime="0.00" waitingCount="0" stopTime="0.00" timeLoss="11.60" rerouteNo="0" devices="tripinfo_flow_route_0_duration_20250327_2150.1" vType="car" speedFactor="0.89" vaporized=""/>
    <tripinfo id="flow_route_0_duration_20250327_2150.2" depart="14.00" departLane="1318793176#1_0" departPos="1.62" departSpeed="0.00" departDelay="9.56" arrival="40.00" arrivalLane="133126031#0_0" arrivalPos="131.88" arrivalSpeed="16.34" duration="26.00" routeLength="250.68" waitingTime="0.00" waitingCount="0" stopTime="0.00" timeLoss="10.46" rerouteNo="0" devices="tripinfo_flow_route_0_duration_20250327_2150.2" vType="car" speedFactor="1.09" vaporized=""/>
    <tripinfo id="flow_route_19_duration_20250327_2150.6" depart="18.00" departLane="133126040#0_0" departPos="22.97" departSpeed="0.00" departDelay="0.00" arrival="41.00" arrivalLane="133126031#0_1" arrivalPos="15.58" arrivalSpeed="8.56" duration="23.00" routeLength="121.48" waitingTime="0.00" waitingCount="0" stopTime="0.00" timeLoss="12.76" rerouteNo="0" devices="tripinfo_flow_route_19_duration_20250327_2150.6" vType="car" speedFactor="0.87" vaporized=""/>
    <tripinfo id="flow_route_19_duration_20250327_2150.4" depart="12.00" departLane="133126040#0_0" departPos="62.74" departSpeed="0.00" departDelay="0.00" arrival="48.00" arrivalLane="133126031#0_0" arrivalPos="310.95" arrivalSpeed="16.36" duration="36.00" routeLength="377.08" waitingTime="0.00" waitingCount="0" stopTime="0.00" timeLoss="11.60" rerouteNo="0" devices="tripinfo_flow_route_19_duration_20250327_2150.4" vType="car" speedFactor="0.94" vaporized=""/>
    <tripinfo id="flow_route_19_duration_20250327_2150.8" depart="24.00" departLane="133126040#0_0" departPos="105.08" departSpeed="0.00" departDelay="0.00" arrival="48.00" arrivalLane="133126031#0_1" arrivalPos="141.37" arrivalSpeed="15.08" duration="24.00" routeLength="165.16" waitingTime="1.00" waitingCount="1" stopTime="0.00" timeLoss="12.72" rerouteNo="0" devices="tripinfo_flow_route_19_duration_20250327_2150.8" vType="car" speedFactor="1.15" vaporized=""/>
    <tripinfo id="flow_route_48_duration_20250327_2150.0" depart="2.00" departLane="380351865#0_0" departPos="1.03" departSpeed="0.00" departDelay="2.00" arrival="52.00" arrivalLane="133126031#0_0" arrivalPos="14.50" arrivalSpeed="8.03" duration="50.00" routeLength="180.64" waitingTime="18.00" waitingCount="1" stopTime="0.00" timeLoss="32.30" rerouteNo="0" devices="tripinfo_flow_route_48_duration_20250327_2150.0" vType="car" speedFactor="0.83" vaporized=""/>
    <tripinfo id="flow_route_19_duration_20250327_2150.5" depart="15.00" departLane="133126040#0_0" departPos="19.36" departSpeed="0.00" departDelay="0.00" arrival="52.00" arrivalLane="133126031#0_1" arrivalPos="181.83" arrivalSpeed="16.22" duration="37.00" routeLength="291.34" waitingTime="0.00" waitingCount="0" stopTime="0.00" timeLoss="17.84" rerouteNo="0" devices="tripinfo_flow_route_19_duration_20250327_2150.5" vType="car" speedFactor="1.01" vaporized=""/>
    <tripinfo id="flow_route_19_duration_20250327_2150.7" depart="21.00" departLane="133126040#0_0" departPos="2.58" departSpeed="0.00" departDelay="0.00" arrival="53.00" arrivalLane="133126031#0_1" arrivalPos="138.73" arrivalSpeed="16.12" duration="32.00" routeLength="265.02" waitingTime="0.00" waitingCount="0" stopTime="0.00" timeLoss="14.02" rerouteNo="0" devices="tripinfo_flow_route_19_duration_20250327_2150.7" vType="car" speedFactor="0.93" vaporized=""/>
    <tripinfo id="flow_route_47_duration_20250327_2150.0" depart="0.00" departLane="380351865#0_0" departPos="11.49" departSpeed="0.00" departDelay="0.00" arrival="57.00" arrivalLane="1318793173#0_1" arrivalPos="63.76" arrivalSpeed="11.13" duration="57.00" routeLength="213.71" waitingTime="22.00" waitingCount="1" stopTime="0.00" timeLoss="40.28" rerouteNo="0" devices="tripinfo_flow_route_47_duration_20250327_2150.0" vType="car" speedFactor="1.03" vaporized=""/>
    <tripinfo id="flow_route_47_duration_20250327_2150.1" depart="22.00" departLane="380351865#0_0" departPos="1.79" departSpeed="0.00" departDelay="13.43" arrival="57.00" arrivalLane="1318793173#0_1" arrivalPos="24.11" arrivalSpeed="9.53" duration="35.00" routeLength="183.77" waitingTime="2.00" waitingCount="1" stopTime="0.00" timeLoss="17.32" rerouteNo="0" devices="tripinfo_flow_route_47_duration_20250327_2150.1" vType="car" speedFactor="0.88" vaporized=""/>
    <tripinfo id="flow_route_0_duration_20250327_2150.3" depart="20.00" departLane="1318793176#1_0" departPos="5.48" departSpeed="0.00" departDelay="13.33" arrival="58.00" arrivalLane="133126031#0_0" arrivalPos="318.11" arrivalSpeed="16.34" duration="38.00" routeLength="433.06" waitingTime="0.00" waitingCount="0" stopTime="0.00" timeLoss="10.82" rerouteNo="0" devices="tripinfo_flow_route_0_duration_20250327_2150.3" vType="car" speedFactor="1.05" vaporized=""/>
    <tripinfo id="flow_route_47_duration_20250327_2150.2" depart="36.00" departLane="380351865#0_0" departPos="5.78" departSpeed="0.00" departDelay="18.86" arrival="59.00" arrivalLane="1318793173#0_1" arrivalPos="8.65" arrivalSpeed="11.09" duration="23.00" routeLength="164.30" waitingTime="0.00" waitingCount="0" stopTime="0.00" timeLoss="7.53" rerouteNo="0" devices="tripinfo_flow_route_47_duration_20250327_2150.2" vType="car" speedFactor="0.92" vaporized=""/>
    <tripinfo id="flow_route_48_duration_20250327_2150.2" depart="18.00" departLane="380351865#0_0" departPos="6.01" departSpeed="0.00" departDelay="10.00" arrival="63.00" arrivalLane="133126031#0_0" arrivalPos="43.02" arrivalSpeed="9.68" duration="45.00" routeLength="204.19" waitingTime="6.00" waitingCount="1" stopTime="0.00" timeLoss="30.00" rerouteNo="0" devices="tripinfo_flow_route_48_duration_20250327_2150.2" vType="car" speedFactor="1.12" vaporized=""/>
    <tripinfo id="flow_route_0_duration_20250327_2150.4" depart="24.00" departLane="1318793176#1_0" departPos="4.87" departSpeed="0.00" departDelay="15.11" arrival="63.00" arrivalLane="133126031#0_0" arrivalPos="320.76" arrivalSpeed="16.19" duration="39.00" routeLength="436.31" waitingTime="0.00" waitingCount="0" stopTime="0.00" timeLoss="11.21" rerouteNo="0" devices="tripinfo_flow_route_0_duration_20250327_2150.4" vType="car" speedFactor="0.99" vaporized=""/>
    <tripinfo id="flow_route_49_duration_20250327_2150.0" depart="7.00" departLane="380351865#0_0" departPos="0.51" departSpeed="0.00" departDelay="7.00" arrival="64.00" arrivalLane="1318893695#0_0" arrivalPos="148.83" arrivalSpeed="15.73" duration="57.00" routeLength="292.20" waitingTime="16.00" waitingCount="1" stopTime="0.00" timeLoss="34.34" rerouteNo="0" devices="tripinfo_flow_route_49_duration_20250327_2150.0" vType="car" speedFactor="1.05" vaporized=""/>
    <tripinfo id="flow_route_48_duration_20250327_2150.4" depart="29.00" departLane="380351865#0_0" departPos="11.53" departSpeed="0.00" departDelay="13.00" arrival="70.00" arrivalLane="133126031#0_0" arrivalPos="104.37" arrivalSpeed="14.13" duration="41.00" routeLength="260.02" waitingTime="0.00" waitingCount="0" stopTime="0.00" timeLoss="19.82" rerouteNo="0" devices="tripinfo_flow_route_48_duration_20250327_2150.4" vType="car" speedFactor="0.89" vaporized=""/>
    <tripinfo id="flow_route_48_duration_20250327_2150.5" depart="41.00" departLane="380351865#0_0" departPos="5.68" departSpeed="0.00" departDelay="21.00" arrival="70.00" arrivalLane="133126031#0_1" arrivalPos="129.61" arrivalSpeed="16.35" duration="29.00" routeLength="291.10" waitingTime="0.00" waitingCount="0" stopTime="0.00" timeLoss="8.39" rerouteNo="0" devices="tripinfo_flow_route_48_duration_20250327_2150.5" vType="car" speedFactor="1.13" vaporized=""/>
    <tripinfo id="flow_route_0_duration_20250327_2150.5" depart="28.00" departLane="1318793176#1_0" departPos="1.51" departSpeed="0.00" departDelay="16.89" arrival="74.00" arrivalLane="133126031#0_0" arrivalPos="229.99" arrivalSpeed="16.52" duration="46.00" routeLength="348.91" waitingTime="2.00" waitingCount="1" stopTime="0.00" timeLoss="23.87" rerouteNo="0" devices="tripinfo_flow_route_0_duration_20250327_2150.5" vType="car" speedFactor="0.94" vaporized=""/>
    <tripinfo id="flow_route_48_duration_20250327_2150.1" depart="13.00" departLane="380351865#0_0" departPos="2.87" departSpeed="0.00" departDelay="9.00" arrival="75.00" arrivalLane="133126031#0_0" arrivalPos="312.28" arrivalSpeed="16.36" duration="62.00" routeLength="476.57" waitingTime="8.00" waitingCount="1" stopTime="0.00" timeLoss="26.28" rerouteNo="0" devices="tripinfo_flow_route_48_duration_20250327_2150.1" vType="car" speedFactor="0.86" vaporized=""/>
    <tripinfo id="flow_route_0_duration_20250327_2150.8" depart="42.00" departLane="1318793176#1_0" departPos="4.77" departSpeed="0.00" departDelay="24.22" arrival="78.00" arrivalLane="133126031#0_0" arrivalPos="60.08" arrivalSpeed="12.45" duration="36.00" routeLength="175.73" waitingTime="2.00" waitingCount="1" stopTime="0.00" timeLoss="23.08" rerouteNo="0" devices="tripinfo_flow_route_0_duration_20250327_2150.8" vType="car" speedFactor="0.83" vaporized=""/>
    <tripinfo id="flow_route_1_duration_20250327_2150.0" depart="3.00" departLane="1318793176#1_0" departPos="0.49" departSpeed="0.00" departDelay="3.00" arrival="79.00" arrivalLane="1318793173#0_1" arrivalPos="77.00" arrivalSpeed="13.00" duration="76.00" routeLength="200.41" waitingTime="41.00" waitingCount="2" stopTime="0.00" timeLoss="62.41" rerouteNo="0" devices="tripinfo_flow_route_1_duration_20250327_2150.0" vType="car" speedFactor="0.94" vaporized=""/>
    <tripinfo id="flow_route_48_duration_20250327_2150.3" depart="29.00" departLane="380351865#0_0" departPos="0.73" departSpeed="0.00" departDelay="17.00" arrival="79.00" arrivalLane="133126031#0_1" arrivalPos="319.23" arrivalSpeed="16.16" duration="50.00" routeLength="485.67" waitingTime="0.00" waitingCount="0" stopTime="0.00" timeLoss="17.99" rerouteNo="0" devices="tripinfo_flow_route_48_duration_20250327_2150.3" vType="car" speedFactor="1.16" vaporized=""/>
    <tripinfo id="flow_route_19_duration_20250327_2150.11" depart="33.00" departLane="133126040#0_0" departPos="88.81" departSpeed="0.00" departDelay="0.00" arrival="82.00" arrivalLane="133126031#0_1" arrivalPos="34.21" arrivalSpeed="8.47" duration="49.00" routeLength="74.27" waitingTime="27.00" waitingCount="2" stopTime="0.00" timeLoss="43.52" rerouteNo="0" devices="tripinfo_flow_route_19_duration_20250327_2150.11" vType="car" speedFactor="1.04" vaporized=""/>
    <tripinfo id="flow_route_0_duration_20250327_2150.6" depart="34.00" departLane="1318793176#1_0" departPos="5.87" departSpeed="0.00" departDelay="20.67" arrival="84.00" arrivalLane="133126031#0_0" arrivalPos="213.38" arrivalSpeed="16.16" duration="50.00" routeLength="327.93" waitingTime="5.00" waitingCount="1" stopTime="0.00" timeLoss="29.41" rerouteNo="0" devices="tripinfo_flow_route_0_duration_20250327_2150.6" vType="car" speedFactor="1.02" vaporized=""/>
    <tripinfo id="flow_route_0_duration_20250327_2150.11" depart="54.00" departLane="1318793176#1_0" departPos="0.12" departSpeed="0.00" departDelay="29.56" arrival="86.00" arrivalLane="133126031#0_0" arrivalPos="98.54" arrivalSpeed="14.79" duration="32.00" routeLength="218.84" waitingTime="0.00" waitingCount="0" stopTime="0.00" timeLoss="18.27" rerouteNo="0" devices="tripinfo_flow_route_0_duration_20250327_2150.11" vType="car" speedFactor="1.17" vaporized=""/>
    <tripinfo id="flow_route_19_duration_20250327_2150.13" depart="39.00" departLane="133126040#0_0" departPos="107.81" departSpeed="0.00" departDelay="0.00" arrival="87.00" arrivalLane="133126031#0_1" arrivalPos="38.02" arrivalSpeed="9.38" duration="48.00" routeLength="59.09" waitingTime="34.00" waitingCount="1" stopTime="0.00" timeLoss="43.21" rerouteNo="0" devices="tripinfo_flow_route_19_duration_20250327_2150.13" vType="car" speedFactor="1.17" vaporized=""/>
    <tripinfo id="flow_route_0_duration_20250327_2150.9" depart="45.00" departLane="1318793176#1_0" departPos="2.09" departSpeed="0.00" departDelay="25.00" arrival="89.00" arrivalLane="133126031#0_0" arrivalPos="204.56" arrivalSpeed="16.59" duration="44.00" routeLength="322.89" waitingTime="1.00" waitingCount="1" stopTime="0.00" timeLoss="23.41" rerouteNo="0" devices="tripinfo_flow_route_0_duration_20250327_2150.9" vType="car" speedFactor="0.95" vaporized=""/>
    <tripinfo id="flow_route_0_duration_20250327_2150.10" depart="51.00" departLane="1318793176#1_0" departPos="4.87" departSpeed="0.00" departDelay="28.78" arrival="91.00" arrivalLane="133126031#0_0" arrivalPos="207.92" arrivalSpeed="16.53" duration="40.00" routeLength="323.47" waitingTime="0.00" waitingCount="0" stopTime="0.00" timeLoss="20.28" rerouteNo="0" devices="tripinfo_flow_route_0_duration_20250327_2150.10" vType="car" speedFactor="1.18" vaporized=""/>
    <tripinfo id="flow_route_0_duration_20250327_2150.7" depart="39.00" departLane="1318793176#1_0" departPos="9.09" departSpeed="0.00" departDelay="23.45" arrival="93.00" arrivalLane="133126031#0_0" arrivalPos="329.98" arrivalSpeed="16.37" duration="54.00" routeLength="441.31" waitingTime="4.00" waitingCount="1" stopTime="0.00" timeLoss="26.67" rerouteNo="0" devices="tripinfo_flow_route_0_duration_20250327_2150.7" vType="car" speedFactor="0.97" vaporized=""/>
    <tripinfo id="flow_route_0_duration_20250327_2150.13" depart="65.00" departLane="1318793176#1_0" departPos="5.41" departSpeed="0.00" departDelay="36.11" arrival="93.00" arrivalLane="133126031#0_0" arrivalPos="159.63" arrivalSpeed="16.12" duration="28.00" routeLength="274.64" waitingTime="0.00" waitingCount="0" stopTime="0.00" timeLoss="10.91" rerouteNo="0" devices="tripinfo_flow_route_0_duration_20250327_2150.13" vType="car" speedFactor="1.10" vaporized=""/>
    <tripinfo id="flow_route_0_duration_20250327_2150.12" depart="59.00" departLane="1318793176#1_0" departPos="3.90" departSpeed="0.00" departDelay="32.34" arrival="95.00" arrivalLane="133126031#0_0" arrivalPos="220.09" arrivalSpeed="16.27" duration="36.00" routeLength="336.60" waitingTime="0.00" waitingCount="0" stopTime="0.00" timeLoss="14.95" rerouteNo="0" devices="tripinfo_flow_route_0_duration_20250327_2150.12" vType="car" speedFactor="1.02" vaporized=""/>
    <tripinfo id="flow_route_19_duration_20250327_2150.12" depart="36.00" departLane="133126040#0_0" departPos="71.24" departSpeed="0.00" departDelay="0.00" arrival="95.00" arrivalLane="133126031#0_1" arrivalPos="115.01" arrivalSpeed="14.97" duration="59.00" routeLength="172.64" waitingTime="27.00" waitingCount="2" stopTime="0.00" timeLoss="46.09" rerouteNo="0" devices="tripinfo_flow_route_19_duration_20250327_2150.12" vType="car" speedFactor="0.88" vaporized=""/>
    <tripinfo id="flow_route_19_duration_20250327_2150.10" depart="30.00" departLane="133126040#0_0" departPos="46.60" departSpeed="0.00" departDelay="0.00" arrival="96.00" arrivalLane="133126031#0_1" arrivalPos="51.07" arrivalSpeed="11.42" duration="66.00" routeLength="133.34" waitingTime="27.00" waitingCount="4" stopTime="0.00" timeLoss="56.58" rerouteNo="0" devices="tripinfo_flow_route_19_duration_20250327_2150.10" vType="car" speedFactor="1.03" vaporized=""/>
    <tripinfo id="flow_route_0_duration_20250327_2150.14" depart="74.00" departLane="1318793176#1_0" departPos="9.81" departSpeed="0.00" departDelay="42.89" arrival="99.00" arrivalLane="133126031#0_0" arrivalPos="126.19" arrivalSpeed="16.13" duration="25.00" routeLength="236.79" waitingTime="0.00" waitingCount="0" stopTime="0.00" timeLoss="10.29" rerouteNo="0" devices="tripinfo_flow_route_0_duration_20250327_2150.14" vType="car" speedFactor="1.09" vaporized=""/>
    <tripinfo id="flow_route_19_duration_20250327_2150.19" depart="57.00" departLane="133126040#0_0" departPos="82.31" departSpeed="0.00" departDelay="0.00" arrival="102.00" arrivalLane="133126031#0_1" arrivalPos="87.89" arrivalSpeed="13.34" duration="45.00" routeLength="134.45" waitingTime="20.00" waitingCount="2" stopTime="0.00" timeLoss="35.23" rerouteNo="0" devices="tripinfo_flow_route_19_duration_20250327_2150.19" vType="car" speedFactor="0.94" vaporized=""/>
    <tripinfo id="flow_route_19_duration_20250327_2150.18" depart="54.00" departLane="133126040#0_0" departPos="101.89" departSpeed="0.00" departDelay="0.00" arrival="103.00" arrivalLane="133126031#0_1" arrivalPos="175.69" arrivalSpeed="16.29" duration="49.00" routeLength="202.67" waitingTime="22.00" waitingCount="3" stopTime="0.00" timeLoss="35.15" rerouteNo="0" devices="tripinfo_flow_route_19_duration_20250327_2150.18" vType="car" speedFactor="1.02" vaporized=""/>
    <tripinfo id="flow_route_0_duration_20250327_2150.16" depart="81.00" departLane="1318793176#1_0" departPos="3.24" departSpeed="0.00" departDelay="45.45" arrival="104.00" arrivalLane="133126031#0_0" arrivalPos="55.70" arrivalSpeed="13.72" duration="23.00" routeLength="172.89" waitingTime="0.00" waitingCount="0" stopTime="0.00" timeLoss="10.77" rerouteNo="0" devices="tripinfo_flow_route_0_duration_20250327_2150.16" vType="car" speedFactor="0.90" vaporized=""/>
    <tripinfo id="flow_route_19_duration_20250327_2150.14" depart="42.00" departLane="133126040#0_0" departPos="48.09" departSpeed="0.00" departDelay="0.00" arrival="104.00" arrivalLane="133126031#0_1" arrivalPos="51.00" arrivalSpeed="11.05" duration="62.00" routeLength="131.78" waitingTime="33.00" waitingCount="1" stopTime="0.00" timeLoss="52.41" rerouteNo="0" devices="tripinfo_flow_route_19_duration_20250327_2150.14" vType="car" speedFactor="1.00" vaporized=""/>
    <tripinfo id="flow_route_19_duration_20250327_2150.16" depart="48.00" departLane="133126040#0_0" departPos="43.62" departSpeed="0.00" departDelay="0.00" arrival="108.00" arrivalLane="133126031#0_1" arrivalPos="73.37" arrivalSpeed="12.99" duration="60.00" routeLength="158.61" waitingTime="29.00" waitingCount="1" stopTime="0.00" timeLoss="49.21" rerouteNo="0" devices="tripinfo_flow_route_19_duration_20250327_2150.16" vType="car" speedFactor="1.12" vaporized=""/>
    <tripinfo id="flow_route_19_duration_20250327_2150.15" depart="45.00" departLane="133126040#0_0" departPos="27.09" departSpeed="0.00" departDelay="0.00" arrival="110.00" arrivalLane="133126031#0_1" arrivalPos="75.74" arrivalSpeed="13.07" duration="65.00" routeLength="177.51" waitingTime="29.00" waitingCount="2" stopTime="0.00" timeLoss="52.65" rerouteNo="0" devices="tripinfo_flow_route_19_duration_20250327_2150.15" vType="car" speedFactor="0.97" vaporized=""/>
    <tripinfo id="flow_route_0_duration_20250327_2150.15" depart="77.00" departLane="1318793176#1_0" departPos="4.24" departSpeed="0.00" departDelay="43.67" arrival="115.00" arrivalLane="133126031#0_0" arrivalPos="314.19" arrivalSpeed="16.57" duration="38.00" routeLength="430.37" waitingTime="0.00" waitingCount="0" stopTime="0.00" timeLoss="10.74" rerouteNo="0" devices="tripinfo_flow_route_0_duration_20250327_2150.15" vType="car" speedFactor="1.09" vaporized=""/>
    <tripinfo id="flow_route_0_duration_20250327_2150.17" depart="86.00" departLane="1318793176#1_0" departPos="3.43" departSpeed="0.00" departDelay="48.23" arrival="116.00" arrivalLane="133126031#0_0" arrivalPos="161.76" arrivalSpeed="16.47" duration="30.00" routeLength="278.74" waitingTime="0.00" waitingCount="0" stopTime="0.00" timeLoss="10.96" rerouteNo="0" devices="tripinfo_flow_route_0_duration_20250327_2150.17" vType="car" speedFactor="0.85" vaporized=""/>
    <tripinfo id="flow_route_19_duration_20250327_2150.9" depart="27.00" departLane="133126040#0_0" departPos="13.44" departSpeed="0.00" departDelay="0.00" arrival="117.00" arrivalLane="133126031#0_1" arrivalPos="259.72" arrivalSpeed="16.24" duration="90.00" routeLength="375.15" waitingTime="34.00" waitingCount="1" stopTime="0.00" timeLoss="65.04" rerouteNo="0" devices="tripinfo_flow_route_19_duration_20250327_2150.9" vType="car" speedFactor="0.97" vaporized=""/>
    <tripinfo id="flow_route_47_duration_20250327_2150.3" depart="49.00" departLane="380351865#0_0" departPos="0.59" departSpeed="0.00" departDelay="23.29" arrival="121.00" arrivalLane="1318793173#0_1" arrivalPos="75.59" arrivalSpeed="12.60" duration="72.00" routeLength="236.44" waitingTime="34.00" waitingCount="1" stopTime="0.00" timeLoss="52.84" rerouteNo="0" devices="tripinfo_flow_route_47_duration_20250327_2150.3" vType="car" speedFactor="0.99" vaporized=""/>
    <tripinfo id="flow_route_47_duration_20250327_2150.4" depart="68.00" departLane="380351865#0_0" departPos="5.01" departSpeed="0.00" departDelay="33.72" arrival="126.00" arrivalLane="1318793173#0_1" arrivalPos="95.88" arrivalSpeed="14.16" duration="58.00" routeLength="252.31" waitingTime="19.00" waitingCount="2" stopTime="0.00" timeLoss="38.13" rerouteNo="0" devices="tripinfo_flow_route_47_duration_20250327_2150.4" vType="car" speedFactor="1.00" vaporized=""/>
    <tripinfo id="flow_route_47_duration_20250327_2150.5" depart="81.00" departLane="380351865#0_0" departPos="16.29" departSpeed="0.00" departDelay="38.15" arrival="127.00" arrivalLane="1318793173#0_1" arrivalPos="86.64" arrivalSpeed="14.46" duration="46.00" routeLength="231.80" waitingTime="7.00" waitingCount="1" stopTime="0.00" timeLoss="25.66" rerouteNo="0" devices="tripinfo_flow_route_47_duration_20250327_2150.5" vType="car" speedFactor="0.90" vaporized=""/>
    <tripinfo id="flow_route_47_duration_20250327_2150.6" depart="89.00" departLane="380351865#0_0" departPos="0.97" departSpeed="0.00" departDelay="37.57" arrival="130.00" arrivalLane="1318793173#0_1" arrivalPos="85.68" arrivalSpeed="15.11" duration="41.00" routeLength="246.15" waitingTime="4.00" waitingCount="1" stopTime="0.00" timeLoss="19.87" rerouteNo="0" devices="tripinfo_flow_route_47_duration_20250327_2150.6" vType="car" speedFactor="0.91" vaporized=""/>
    <tripinfo id="flow_route_48_duration_20250327_2150.6" depart="44.00" departLane="380351865#0_0" departPos="1.96" departSpeed="0.00" departDelay="20.00" arrival="131.00" arrivalLane="133126031#0_0" arrivalPos="236.36" arrivalSpeed="16.39" duration="87.00" routeLength="401.57" waitingTime="40.00" waitingCount="1" stopTime="0.00" timeLoss="58.79" rerouteNo="0" devices="tripinfo_flow_route_48_duration_20250327_2150.6" vType="car" speedFactor="1.01" vaporized=""/>
    <tripinfo id="flow_route_49_duration_20250327_2150.1" depart="59.00" departLane="380351865#0_0" departPos="3.61" departSpeed="0.00" departDelay="29.00" arrival="131.00" arrivalLane="1318893695#0_0" arrivalPos="181.10" arrivalSpeed="15.52" duration="72.00" routeLength="321.37" waitingTime="27.00" waitingCount="1" stopTime="0.00" timeLoss="46.39" rerouteNo="0" devices="tripinfo_flow_route_49_duration_20250327_2150.1" vType="car" speedFactor="0.96" vaporized=""/>
    <tripinfo id="flow_route_48_duration_20250327_2150.11" depart="84.00" departLane="380351865#0_0" departPos="10.32" departSpeed="0.00" departDelay="40.00" arrival="131.00" arrivalLane="133126031#0_0" arrivalPos="43.06" arrivalSpeed="10.88" duration="47.00" routeLength="199.92" waitingTime="7.00" waitingCount="1" stopTime="0.00" timeLoss="32.39" rerouteNo="0" devices="tripinfo_flow_route_48_duration_20250327_2150.11" vType="car" speedFactor="1.14" vaporized=""/>
    <tripinfo id="flow_route_48_duration_20250327_2150.14" depart="100.00" departLane="380351865#0_0" departPos="1.03" departSpeed="0.00" departDelay="44.00" arrival="132.00" arrivalLane="133126031#0_1" arrivalPos="76.82" arrivalSpeed="15.73" duration="32.00" routeLength="242.96" waitingTime="0.00" waitingCount="0" stopTime="0.00" timeLoss="12.60" rerouteNo="0" devices="tripinfo_flow_route_48_duration_20250327_2150.14" vType="car" speedFactor="0.97" vaporized=""/>
    <tripinfo id="flow_route_48_duration_20250327_2150.8" depart="63.00" departLane="380351865#0_0" departPos="0.68" departSpeed="0.00" departDelay="31.00" arrival="133.00" arrivalLane="133126031#0_1" arrivalPos="226.42" arrivalSpeed="16.23" duration="70.00" routeLength="392.91" waitingTime="21.00" waitingCount="1" stopTime="0.00" timeLoss="41.85" rerouteNo="0" devices="tripinfo_flow_route_48_duration_20250327_2150.8" vType="car" speedFactor="1.04" vaporized=""/>
    <tripinfo id="flow_route_48_duration_20250327_2150.7" depart="54.00" departLane="380351865#0_0" departPos="3.93" departSpeed="0.00" departDelay="26.00" arrival="134.00" arrivalLane="133126031#0_0" arrivalPos="237.20" arrivalSpeed="16.59" duration="80.00" routeLength="400.44" waitingTime="33.00" waitingCount="2" stopTime="0.00" timeLoss="53.00" rerouteNo="0" devices="tripinfo_flow_route_48_duration_20250327_2150.7" vType="car" speedFactor="1.18" vaporized=""/>
    <tripinfo id="flow_route_0_duration_20250327_2150.18" depart="90.00" departLane="1318793176#1_0" departPos="2.66" departSpeed="0.00" departDelay="50.00" arrival="136.00" arrivalLane="133126031#0_0" arrivalPos="162.10" arrivalSpeed="16.41" duration="46.00" routeLength="279.86" waitingTime="7.00" waitingCount="1" stopTime="0.00" timeLoss="28.11" rerouteNo="0" devices="tripinfo_flow_route_0_duration_20250327_2150.18" vType="car" speedFactor="1.02" vaporized=""/>
    <tripinfo id="flow_route_1_duration_20250327_2150.1" depart="69.00" departLane="1318793176#1_0" departPos="2.31" departSpeed="0.00" departDelay="39.00" arrival="143.00" arrivalLane="1318793173#0_1" arrivalPos="91.37" arrivalSpeed="13.90" duration="74.00" routeLength="212.97" waitingTime="39.00" waitingCount="1" stopTime="0.00" timeLoss="59.12" rerouteNo="0" devices="tripinfo_flow_route_1_duration_20250327_2150.1" vType="car" speedFactor="0.90" vaporized=""/>
    <tripinfo id="flow_route_48_duration_20250327_2150.10" depart="79.00" departLane="380351865#0_0" departPos="4.11" departSpeed="0.00" departDelay="39.00" arrival="143.00" arrivalLane="133126031#0_0" arrivalPos="311.32" arrivalSpeed="16.46" duration="64.00" routeLength="474.39" waitingTime="6.00" waitingCount="2" stopTime="0.00" timeLoss="31.96" rerouteNo="0" devices="tripinfo_flow_route_48_duration_20250327_2150.10" vType="car" speedFactor="1.10" vaporized=""/>