<?xml version="1.0" encoding="UTF-8"?>

<!-- generated on 2025-05-06 21:08:06 by Eclipse SUMO sumo Version 1.20.0
<configuration xmlns:xsi="http://www.w3.org/2001/XMLSchema-instance" xsi:noNamespaceSchemaLocation="http://sumo.dlr.de/xsd/sumoConfiguration.xsd">

    <input>
        <net-file value="osm.net.xml"/>
        <route-files value="xml/route_static_cluster3839130731_cluster_11644940326_11644940327_11648561426_2.rou.xml"/>
    </input>

    <output>
        <tripinfo-output value="xml/tripinfo_static_cluster3839130731_cluster_11644940326_11644940327_11648561426_2.xml"/>
    </output>

    <traci_server>
        <remote-port value="46813"/>
    </traci_server>

</configuration>
-->

<tripinfos xmlns:xsi="http://www.w3.org/2001/XMLSchema-instance" xsi:noNamespaceSchemaLocation="http://sumo.dlr.de/xsd/tripinfo_file.xsd">
    <tripinfo id="flow_route_96_duration_20250327_1940.0" depart="0.00" departLane="1341093416#0_0" departPos="184.53" departSpeed="0.00" departDelay="0.00" arrival="20.00" arrivalLane="1254519229#0_1" arrivalPos="3.62" arrivalSpeed="5.63" duration="20.00" routeLength="114.10" waitingTime="0.00" waitingCount="0" stopTime="0.00" timeLoss="11.88" rerouteNo="0" devices="tripinfo_flow_route_96_duration_20250327_1940.0" vType="car" speedFactor="1.01" vaporized=""/>
    <tripinfo id="flow_route_123_duration_20250327_1940.0" depart="0.00" departLane="189240000#0-AddedOnRampEdge_0" departPos="5.69" departSpeed="0.00" departDelay="0.00" arrival="22.00" arrivalLane="1254519229#0_0" arrivalPos="19.69" arrivalSpeed="10.91" duration="22.00" routeLength="156.33" waitingTime="0.00" waitingCount="0" stopTime="0.00" timeLoss="10.54" rerouteNo="0" devices="tripinfo_flow_route_123_duration_20250327_1940.0" vType="car" speedFactor="0.89" vaporized=""/>
    <tripinfo id="flow_route_123_duration_20250327_1940.1" depart="5.00" departLane="189240000#0-AddedOnRampEdge_0" departPos="83.80" departSpeed="0.00" departDelay="0.72" arrival="22.00" arrivalLane="1254519229#0_0" arrivalPos="50.41" arrivalSpeed="12.54" duration="17.00" routeLength="108.94" waitingTime="0.00" waitingCount="0" stopTime="0.00" timeLoss="9.63" rerouteNo="0" devices="tripinfo_flow_route_123_duration_20250327_1940.1" vType="car" speedFactor="1.03" vaporized=""/>
    <tripinfo id="flow_route_111_duration_20250327_1940.0" depart="0.00" departLane="1253188486#8_0" departPos="138.93" departSpeed="0.00" departDelay="0.00" arrival="33.00" arrivalLane="1254519229#0_1" arrivalPos="3.47" arrivalSpeed="7.71" duration="33.00" routeLength="140.76" waitingTime="5.00" waitingCount="1" stopTime="0.00" timeLoss="24.11" rerouteNo="0" devices="tripinfo_flow_route_111_duration_20250327_1940.0" vType="car" speedFactor="0.83" vaporized=""/>
    <tripinfo id="flow_route_111_duration_20250327_1940.1" depart="5.00" departLane="1253188486#8_0" departPos="202.24" departSpeed="0.00" departDelay="0.72" arrival="35.00" arrivalLane="1254519229#0_0" arrivalPos="24.43" arrivalSpeed="9.12" duration="30.00" routeLength="98.42" waitingTime="6.00" waitingCount="1" stopTime="0.00" timeLoss="23.77" rerouteNo="0" devices="tripinfo_flow_route_111_duration_20250327_1940.1" vType="car" speedFactor="1.09" vaporized=""/>
    <tripinfo id="flow_route_111_duration_20250327_1940.2" depart="9.00" departLane="1253188486#8_0" departPos="81.28" departSpeed="0.00" departDelay="0.43" arrival="35.00" arrivalLane="1254519229#0_1" arrivalPos="12.66" arrivalSpeed="10.71" duration="26.00" routeLength="207.60" waitingTime="0.00" waitingCount="0" stopTime="0.00" timeLoss="13.44" rerouteNo="0" devices="tripinfo_flow_route_111_duration_20250327_1940.2" vType="car" speedFactor="0.88" vaporized=""/>
    <tripinfo id="flow_route_124_duration_20250327_1940.0" depart="0.00" departLane="189240000#0-AddedOnRampEdge_0" departPos="82.66" departSpeed="0.00" departDelay="0.00" arrival="36.00" arrivalLane="1254519225#0.109_3" arrivalPos="34.02" arrivalSpeed="15.22" duration="36.00" routeLength="196.39" waitingTime="4.00" waitingCount="1" stopTime="0.00" timeLoss="21.67" rerouteNo="0" devices="tripinfo_flow_route_124_duration_20250327_1940.0" vType="car" speedFactor="0.94" vaporized=""/>
    <tripinfo id="flow_route_111_duration_20250327_1940.3" depart="15.00" departLane="1253188486#8_0" departPos="229.41" departSpeed="0.00" departDelay="2.15" arrival="37.00" arrivalLane="1254519229#0_0" arrivalPos="17.75" arrivalSpeed="8.61" duration="22.00" routeLength="64.57" waitingTime="5.00" waitingCount="1" stopTime="0.00" timeLoss="17.90" rerouteNo="0" devices="tripinfo_flow_route_111_duration_20250327_1940.3" vType="car" speedFactor="1.02" vaporized=""/>
    <tripinfo id="flow_route_94_duration_20250327_1940.0" depart="0.00" departLane="1341093416#0_0" departPos="204.30" departSpeed="0.00" departDelay="0.00" arrival="38.00" arrivalLane="799091563#0_0" arrivalPos="338.33" arrivalSpeed="16.41" duration="38.00" routeLength="440.38" waitingTime="0.00" waitingCount="0" stopTime="0.00" timeLoss="10.56" rerouteNo="0" devices="tripinfo_flow_route_94_duration_20250327_1940.0" vType="car" speedFactor="1.06" vaporized=""/>
    <tripinfo id="flow_route_124_duration_20250327_1940.1" depart="4.00" departLane="189240000#0-AddedOnRampEdge_0" departPos="48.43" departSpeed="0.00" departDelay="1.78" arrival="39.00" arrivalLane="1254519225#0.109_3" arrivalPos="42.65" arrivalSpeed="14.17" duration="35.00" routeLength="239.25" waitingTime="0.00" waitingCount="0" stopTime="0.00" timeLoss="16.27" rerouteNo="0" devices="tripinfo_flow_route_124_duration_20250327_1940.1" vType="car" speedFactor="0.86" vaporized=""/>
    <tripinfo id="flow_route_104_duration_20250327_1940.0" depart="0.00" departLane="189240001_0" departPos="36.52" departSpeed="0.00" departDelay="0.00" arrival="43.00" arrivalLane="1254519225#0.109_0" arrivalPos="30.66" arrivalSpeed="15.28" duration="43.00" routeLength="198.30" waitingTime="11.00" waitingCount="1" stopTime="0.00" timeLoss="30.85" rerouteNo="0" devices="tripinfo_flow_route_104_duration_20250327_1940.0" vType="car" speedFactor="1.08" vaporized=""/>
    <tripinfo id="flow_route_111_duration_20250327_1940.4" depart="18.00" departLane="1253188486#8_0" departPos="37.25" departSpeed="0.00" departDelay="0.86" arrival="45.00" arrivalLane="1254519229#0_1" arrivalPos="13.40" arrivalSpeed="16.35" duration="27.00" routeLength="252.37" waitingTime="0.00" waitingCount="0" stopTime="0.00" timeLoss="10.95" rerouteNo="0" devices="tripinfo_flow_route_111_duration_20250327_1940.4" vType="car" speedFactor="0.92" vaporized=""/>
    <tripinfo id="flow_route_111_duration_20250327_1940.6" depart="26.00" departLane="1253188486#8_0" departPos="150.91" departSpeed="0.00" departDelay="0.29" arrival="46.00" arrivalLane="1254519229#0_0" arrivalPos="16.90" arrivalSpeed="14.61" duration="20.00" routeLength="142.21" waitingTime="0.00" waitingCount="0" stopTime="0.00" timeLoss="11.07" rerouteNo="0" devices="tripinfo_flow_route_111_duration_20250327_1940.6" vType="car" speedFactor="0.97" vaporized=""/>
    <tripinfo id="flow_route_112_duration_20250327_1940.0" depart="0.00" departLane="1253188486#8_0" departPos="64.90" departSpeed="0.00" departDelay="0.00" arrival="51.00" arrivalLane="799091563#0_0" arrivalPos="282.23" arrivalSpeed="16.39" duration="51.00" routeLength="472.04" waitingTime="0.00" waitingCount="0" stopTime="0.00" timeLoss="20.74" rerouteNo="0" devices="tripinfo_flow_route_112_duration_20250327_1940.0" vType="car" speedFactor="1.05" vaporized=""/>
    <tripinfo id="flow_route_111_duration_20250327_1940.5" depart="22.00" departLane="1253188486#8_0" departPos="83.17" departSpeed="0.00" departDelay="0.58" arrival="53.00" arrivalLane="1254519229#0_1" arrivalPos="78.95" arrivalSpeed="16.33" duration="31.00" routeLength="272.00" waitingTime="0.00" waitingCount="0" stopTime="0.00" timeLoss="14.00" rerouteNo="0" devices="tripinfo_flow_route_111_duration_20250327_1940.5" vType="car" speedFactor="1.15" vaporized=""/>
    <tripinfo id="flow_route_104_duration_20250327_1940.1" depart="30.00" departLane="189240001_0" departPos="38.60" departSpeed="0.00" departDelay="0.00" arrival="54.00" arrivalLane="1254519225#0.109_0" arrivalPos="54.62" arrivalSpeed="15.55" duration="24.00" routeLength="220.18" waitingTime="0.00" waitingCount="0" stopTime="0.00" timeLoss="9.97" rerouteNo="0" devices="tripinfo_flow_route_104_duration_20250327_1940.1" vType="car" speedFactor="0.96" vaporized=""/>
    <tripinfo id="flow_route_111_duration_20250327_1940.7" depart="31.00" departLane="1253188486#8_0" departPos="111.82" departSpeed="0.00" departDelay="1.01" arrival="55.00" arrivalLane="1254519229#0_1" arrivalPos="49.75" arrivalSpeed="16.26" duration="24.00" routeLength="214.15" waitingTime="0.00" waitingCount="0" stopTime="0.00" timeLoss="10.67" rerouteNo="0" devices="tripinfo_flow_route_111_duration_20250327_1940.7" vType="car" speedFactor="1.09" vaporized=""/>
    <tripinfo id="flow_route_123_duration_20250327_1940.3" depart="14.00" departLane="189240000#0-AddedOnRampEdge_0" departPos="67.56" departSpeed="0.00" departDelay="1.15" arrival="64.00" arrivalLane="1254519229#0_0" arrivalPos="13.36" arrivalSpeed="7.19" duration="50.00" routeLength="88.14" waitingTime="26.00" waitingCount="1" stopTime="0.00" timeLoss="44.11" rerouteNo="0" devices="tripinfo_flow_route_123_duration_20250327_1940.3" vType="car" speedFactor="1.01" vaporized=""/>
    <tripinfo id="flow_route_123_duration_20250327_1940.2" depart="9.00" departLane="189240000#0-AddedOnRampEdge_0" departPos="12.21" departSpeed="0.00" departDelay="0.43" arrival="70.00" arrivalLane="1254519229#0_1" arrivalPos="76.12" arrivalSpeed="12.77" duration="61.00" routeLength="209.74" waitingTime="20.00" waitingCount="2" stopTime="0.00" timeLoss="47.27" rerouteNo="0" devices="tripinfo_flow_route_123_duration_20250327_1940.2" vType="car" speedFactor="0.94" vaporized=""/>
    <tripinfo id="flow_route_123_duration_20250327_1940.5" depart="25.00" departLane="189240000#0-AddedOnRampEdge_0" departPos="7.55" departSpeed="0.00" departDelay="3.58" arrival="70.00" arrivalLane="1254519229#0_0" arrivalPos="24.97" arrivalSpeed="8.79" duration="45.00" routeLength="159.75" waitingTime="9.00" waitingCount="1" stopTime="0.00" timeLoss="34.87" rerouteNo="0" devices="tripinfo_flow_route_123_duration_20250327_1940.5" vType="car" speedFactor="1.01" vaporized=""/>
    <tripinfo id="flow_route_123_duration_20250327_1940.4" depart="18.00" departLane="189240000#0-AddedOnRampEdge_0" departPos="2.63" departSpeed="0.00" departDelay="0.86" arrival="73.00" arrivalLane="1254519229#0_1" arrivalPos="75.98" arrivalSpeed="12.46" duration="55.00" routeLength="219.19" waitingTime="18.00" waitingCount="1" stopTime="0.00" timeLoss="40.48" rerouteNo="0" devices="tripinfo_flow_route_123_duration_20250327_1940.4" vType="car" speedFactor="0.95" vaporized=""/>
    <tripinfo id="flow_route_123_duration_20250327_1940.7" depart="30.00" departLane="189240000#0-AddedOnRampEdge_0" departPos="67.10" departSpeed="0.00" departDelay="0.01" arrival="73.00" arrivalLane="1254519229#0_0" arrivalPos="73.59" arrivalSpeed="12.77" duration="43.00" routeLength="148.82" waitingTime="13.00" waitingCount="2" stopTime="0.00" timeLoss="32.90" rerouteNo="0" devices="tripinfo_flow_route_123_duration_20250327_1940.7" vType="car" speedFactor="1.04" vaporized=""/>
    <tripinfo id="flow_route_95_duration_20250327_1940.1" depart="9.00" departLane="1341093416#0_0" departPos="187.84" departSpeed="0.00" departDelay="0.43" arrival="74.00" arrivalLane="1254519225#0.109_0" arrivalPos="47.70" arrivalSpeed="15.27" duration="65.00" routeLength="242.23" waitingTime="29.00" waitingCount="1" stopTime="0.00" timeLoss="48.73" rerouteNo="0" devices="tripinfo_flow_route_95_duration_20250327_1940.1" vType="car" speedFactor="0.93" vaporized=""/>
    <tripinfo id="flow_route_95_duration_20250327_1940.2" depart="18.00" departLane="1341093416#0_0" departPos="175.93" departSpeed="0.00" departDelay="0.86" arrival="76.00" arrivalLane="1254519225#0.109_0" arrivalPos="36.19" arrivalSpeed="14.20" duration="58.00" routeLength="242.63" waitingTime="21.00" waitingCount="1" stopTime="0.00" timeLoss="40.75" rerouteNo="0" devices="tripinfo_flow_route_95_duration_20250327_1940.2" vType="car" speedFactor="0.87" vaporized=""/>
    <tripinfo id="flow_route_95_duration_20250327_1940.0" depart="0.00" departLane="1341093416#0_0" departPos="1.65" departSpeed="0.00" departDelay="0.00" arrival="78.00" arrivalLane="1254519225#0.109_0" arrivalPos="44.45" arrivalSpeed="14.95" duration="78.00" routeLength="425.17" waitingTime="20.00" waitingCount="1" stopTime="0.00" timeLoss="50.56" rerouteNo="0" devices="tripinfo_flow_route_95_duration_20250327_1940.0" vType="car" speedFactor="0.94" vaporized=""/>
    <tripinfo id="flow_route_105_duration_20250327_1940.0" depart="1.00" departLane="189240001_0" departPos="25.23" departSpeed="0.00" departDelay="1.00" arrival="78.00" arrivalLane="799091563#0_2" arrivalPos="224.02" arrivalSpeed="16.14" duration="77.00" routeLength="308.35" waitingTime="32.00" waitingCount="2" stopTime="0.00" timeLoss="58.24" rerouteNo="0" devices="tripinfo_flow_route_105_duration_20250327_1940.0" vType="car" speedFactor="1.03" vaporized=""/>
    <tripinfo id="flow_route_96_duration_20250327_1940.2" depart="14.00" departLane="1341093416#0_0" departPos="163.48" departSpeed="0.00" departDelay="0.67" arrival="79.00" arrivalLane="1254519229#0_1" arrivalPos="64.59" arrivalSpeed="10.26" duration="65.00" routeLength="196.12" waitingTime="27.00" waitingCount="2" stopTime="0.00" timeLoss="52.12" rerouteNo="0" devices="tripinfo_flow_route_96_duration_20250327_1940.2" vType="car" speedFactor="0.97" vaporized=""/>
    <tripinfo id="flow_route_96_duration_20250327_1940.1" depart="7.00" departLane="1341093416#0_0" departPos="8.89" departSpeed="0.00" departDelay="0.33" arrival="80.00" arrivalLane="1254519229#0_1" arrivalPos="43.31" arrivalSpeed="9.21" duration="73.00" routeLength="329.43" waitingTime="25.00" waitingCount="2" stopTime="0.00" timeLoss="51.85" rerouteNo="0" devices="tripinfo_flow_route_96_duration_20250327_1940.1" vType="car" speedFactor="1.12" vaporized=""/>
    <tripinfo id="flow_route_124_duration_20250327_1940.6" depart="15.00" departLane="189240000#0-AddedOnRampEdge_0" departPos="90.63" departSpeed="0.00" departDelay="1.67" arrival="80.00" arrivalLane="1254519225#0.109_3" arrivalPos="5.55" arrivalSpeed="14.11" duration="65.00" routeLength="159.96" waitingTime="31.00" waitingCount="1" stopTime="0.00" timeLoss="52.10" rerouteNo="0" devices="tripinfo_flow_route_124_duration_20250327_1940.6" vType="car" speedFactor="0.89" vaporized=""/>
    <tripinfo id="flow_route_95_duration_20250327_1940.3" depart="26.00" departLane="1341093416#0_0" departPos="116.04" departSpeed="0.00" departDelay="0.29" arrival="80.00" arrivalLane="1254519225#0.109_0" arrivalPos="18.10" arrivalSpeed="13.88" duration="54.00" routeLength="284.42" waitingTime="6.00" waitingCount="1" stopTime="0.00" timeLoss="35.88" rerouteNo="0" devices="tripinfo_flow_route_95_duration_20250327_1940.3" vType="car" speedFactor="1.02" vaporized=""/>
    <tripinfo id="flow_route_95_duration_20250327_1940.4" depart="35.00" departLane="1341093416#0_0" departPos="181.46" departSpeed="0.00" departDelay="0.72" arrival="80.00" arrivalLane="1254519225#0.109_0" arrivalPos="43.64" arrivalSpeed="14.78" duration="45.00" routeLength="244.55" waitingTime="7.00" waitingCount="1" stopTime="0.00" timeLoss="28.06" rerouteNo="0" devices="tripinfo_flow_route_95_duration_20250327_1940.4" vType="car" speedFactor="0.90" vaporized=""/>
    <tripinfo id="flow_route_124_duration_20250327_1940.2" depart="5.00" departLane="189240000#0-AddedOnRampEdge_0" departPos="37.44" departSpeed="0.00" departDelay="0.56" arrival="81.00" arrivalLane="1254519225#0.109_3" arrivalPos="58.59" arrivalSpeed="16.35" duration="76.00" routeLength="266.18" waitingTime="32.00" waitingCount="1" stopTime="0.00" timeLoss="59.00" rerouteNo="0" devices="tripinfo_flow_route_124_duration_20250327_1940.2" vType="car" speedFactor="1.05" vaporized=""/>
    <tripinfo id="flow_route_124_duration_20250327_1940.3" depart="7.00" departLane="189240000#0-AddedOnRampEdge_0" departPos="28.49" departSpeed="0.00" departDelay="0.33" arrival="82.00" arrivalLane="1254519225#0.109_3" arrivalPos="14.77" arrivalSpeed="14.57" duration="75.00" routeLength="231.31" waitingTime="31.00" waitingCount="1" stopTime="0.00" timeLoss="59.66" rerouteNo="0" devices="tripinfo_flow_route_124_duration_20250327_1940.3" vType="car" speedFactor="0.99" vaporized=""/>
    <tripinfo id="flow_route_124_duration_20250327_1940.4" depart="10.00" departLane="189240000#0-AddedOnRampEdge_0" departPos="38.84" departSpeed="0.00" departDelay="1.11" arrival="83.00" arrivalLane="1254519225#0.109_3" arrivalPos="1.86" arrivalSpeed="14.33" duration="73.00" routeLength="208.06" waitingTime="31.00" waitingCount="2" stopTime="0.00" timeLoss="58.30" rerouteNo="0" devices="tripinfo_flow_route_124_duration_20250327_1940.4" vType="car" speedFactor="0.94" vaporized=""/>
    <tripinfo id="flow_route_96_duration_20250327_1940.3" depart="20.00" departLane="1341093416#0_0" departPos="18.36" departSpeed="0.00" departDelay="0.00" arrival="83.00" arrivalLane="1254519229#0_1" arrivalPos="43.51" arrivalSpeed="9.32" duration="63.00" routeLength="320.15" waitingTime="11.00" waitingCount="2" stopTime="0.00" timeLoss="42.04" rerouteNo="0" devices="tripinfo_flow_route_96_duration_20250327_1940.3" vType="car" speedFactor="0.93" vaporized=""/>
    <tripinfo id="flow_route_96_duration_20250327_1940.4" depart="29.00" departLane="1341093416#0_0" departPos="83.01" departSpeed="0.00" departDelay="2.34" arrival="84.00" arrivalLane="1254519229#0_1" arrivalPos="40.81" arrivalSpeed="9.11" duration="55.00" routeLength="252.81" waitingTime="6.00" waitingCount="2" stopTime="0.00" timeLoss="38.97" rerouteNo="0" devices="tripinfo_flow_route_96_duration_20250327_1940.4" vType="car" speedFactor="1.10" vaporized=""/>
    <tripinfo id="flow_route_95_duration_20250327_1940.5" depart="43.00" departLane="1341093416#0_0" departPos="161.52" departSpeed="0.00" departDelay="0.15" arrival="85.00" arrivalLane="1254519225#0.109_0" arrivalPos="56.43" arrivalSpeed="14.97" duration="42.00" routeLength="277.27" waitingTime="2.00" waitingCount="1" stopTime="0.00" timeLoss="23.41" rerouteNo="0" devices="tripinfo_flow_route_95_duration_20250327_1940.5" vType="car" speedFactor="0.90" vaporized=""/>
    <tripinfo id="flow_route_124_duration_20250327_1940.7" depart="16.00" departLane="189240000#0-AddedOnRampEdge_0" departPos="46.50" departSpeed="0.00" departDelay="0.45" arrival="87.00" arrivalLane="1254519225#0.109_3" arrivalPos="19.20" arrivalSpeed="13.37" duration="71.00" routeLength="217.73" waitingTime="29.00" waitingCount="1" stopTime="0.00" timeLoss="53.16" rerouteNo="0" devices="tripinfo_flow_route_124_duration_20250327_1940.7" vType="car" speedFactor="0.83" vaporized=""/>
    <tripinfo id="flow_route_95_duration_20250327_1940.6" depart="52.00" departLane="1341093416#0_0" departPos="180.59" departSpeed="0.00" departDelay="0.57" arrival="88.00" arrivalLane="1254519225#0.109_0" arrivalPos="49.78" arrivalSpeed="14.90" duration="36.00" routeLength="251.57" waitingTime="0.00" waitingCount="0" stopTime="0.00" timeLoss="17.96" rerouteNo="0" devices="tripinfo_flow_route_95_duration_20250327_1940.6" vType="car" speedFactor="0.91" vaporized=""/>
    <tripinfo id="flow_route_111_duration_20250327_1940.8" depart="35.00" departLane="1253188486#8_0" departPos="191.61" departSpeed="0.00" departDelay="0.72" arrival="89.00" arrivalLane="1254519229#0_1" arrivalPos="8.08" arrivalSpeed="7.94" duration="54.00" routeLength="92.69" waitingTime="26.00" waitingCount="2" stopTime="0.00" timeLoss="47.97" rerouteNo="0" devices="tripinfo_flow_route_111_duration_20250327_1940.8" vType="car" speedFactor="0.88" vaporized=""/>
    <tripinfo id="flow_route_111_duration_20250327_1940.12" depart="52.00" departLane="1253188486#8_0" departPos="225.38" departSpeed="0.00" departDelay="0.58" arrival="93.00" arrivalLane="1254519229#0_0" arrivalPos="37.42" arrivalSpeed="10.15" duration="41.00" routeLength="88.26" waitingTime="19.00" waitingCount="1" stopTime="0.00" timeLoss="35.62" rerouteNo="0" devices="tripinfo_flow_route_111_duration_20250327_1940.12" vType="car" speedFactor="0.91" vaporized=""/>
    <tripinfo id="flow_route_111_duration_20250327_1940.10" depart="43.00" departLane="1253188486#8_0" departPos="68.03" departSpeed="0.00" departDelay="0.15" arrival="95.00" arrivalLane="1254519229#0_1" arrivalPos="27.42" arrivalSpeed="10.42" duration="52.00" routeLength="235.61" waitingTime="16.00" waitingCount="1" stopTime="0.00" timeLoss="37.41" rerouteNo="0" devices="tripinfo_flow_route_111_duration_20250327_1940.10" vType="car" speedFactor="1.14" vaporized=""/>
    <tripinfo id="flow_route_111_duration_20250327_1940.11" depart="48.00" departLane="1253188486#8_0" departPos="240.67" departSpeed="0.00" departDelay="0.87" arrival="95.00" arrivalLane="1254519229#0_0" arrivalPos="75.18" arrivalSpeed="12.24" duration="47.00" routeLength="110.73" waitingTime="27.00" waitingCount="1" stopTime="0.00" timeLoss="39.94" rerouteNo="0" devices="tripinfo_flow_route_111_duration_20250327_1940.11" vType="car" speedFactor="0.99" vaporized=""/>
    <tripinfo id="flow_route_111_duration_20250327_1940.13" depart="56.00" departLane="1253188486#8_0" departPos="192.36" departSpeed="0.00" departDelay="0.30" arrival="95.00" arrivalLane="1254519229#0_0" arrivalPos="31.31" arrivalSpeed="10.63" duration="39.00" routeLength="115.17" waitingTime="12.00" waitingCount="1" stopTime="0.00" timeLoss="31.55" rerouteNo="0" devices="tripinfo_flow_route_111_duration_20250327_1940.13" vType="car" speedFactor="0.94" vaporized=""/>
    <tripinfo id="flow_route_111_duration_20250327_1940.9" depart="39.00" departLane="1253188486#8_0" departPos="117.77" departSpeed="0.00" departDelay="0.44" arrival="97.00" arrivalLane="1254519229#0_1" arrivalPos="70.18" arrivalSpeed="13.00" duration="58.00" routeLength="228.63" waitingTime="20.00" waitingCount="1" stopTime="0.00" timeLoss="43.70" rerouteNo="0" devices="tripinfo_flow_route_111_duration_20250327_1940.9" vType="car" speedFactor="1.02" vaporized=""/>
    <tripinfo id="flow_route_123_duration_20250327_1940.6" depart="27.00" departLane="189240000#0-AddedOnRampEdge_0" departPos="55.23" departSpeed="0.00" departDelay="1.29" arrival="123.00" arrivalLane="1254519229#0_0" arrivalPos="54.00" arrivalSpeed="10.49" duration="96.00" routeLength="141.10" waitingTime="53.00" waitingCount="5" stopTime="0.00" timeLoss="86.92" rerouteNo="0" devices="tripinfo_flow_route_123_duration_20250327_1940.6" vType="car" speedFactor="1.18" vaporized=""/>
    <tripinfo id="flow_route_96_duration_20250327_1940.6" depart="41.00" departLane="1341093416#0_0" departPos="42.11" departSpeed="0.00" departDelay="1.00" arrival="123.00" arrivalLane="1254519229#0_1" arrivalPos="31.08" arrivalSpeed="8.96" duration="82.00" routeLength="283.99" waitingTime="30.00" waitingCount="1" stopTime="0.00" timeLoss="63.94" rerouteNo="0" devices="tripinfo_flow_route_96_duration_20250327_1940.6" vType="car" speedFactor="1.00" vaporized=""/>
    <tripinfo id="flow_route_96_duration_20250327_1940.7" depart="48.00" departLane="1341093416#0_0" departPos="4.01" departSpeed="0.00" departDelay="1.34" arrival="124.00" arrivalLane="1254519229#0_1" arrivalPos="8.19" arrivalSpeed="6.99" duration="76.00" routeLength="299.19" waitingTime="30.00" waitingCount="1" stopTime="0.00" timeLoss="56.83" rerouteNo="0" devices="tripinfo_flow_route_96_duration_20250327_1940.7" vType="car" speedFactor="1.12" vaporized=""/>
    <tripinfo id="flow_route_96_duration_20250327_1940.5" depart="34.00" departLane="1341093416#0_0" departPos="112.71" departSpeed="0.00" departDelay="0.67" arrival="125.00" arrivalLane="1254519229#0_1" arrivalPos="77.30" arrivalSpeed="12.17" duration="91.00" routeLength="259.60" waitingTime="34.00" waitingCount="2" stopTime="0.00" timeLoss="74.46" rerouteNo="0" devices="tripinfo_flow_route_96_duration_20250327_1940.5" vType="car" speedFactor="1.09" vaporized=""/>
    <tripinfo id="flow_route_124_duration_20250327_1940.10" depart="25.00" departLane="189240000#0-AddedOnRampEdge_0" departPos="68.15" departSpeed="0.00" departDelay="2.78" arrival="131.00" arrivalLane="1254519225#0.109_3" arrivalPos="35.38" arrivalSpeed="15.75" duration="106.00" routeLength="212.26" waitingTime="58.00" waitingCount="6" stopTime="0.00" timeLoss="91.61" rerouteNo="0" devices="tripinfo_flow_route_124_duration_20250327_1940.10" vType="car" speedFactor="1.17" vaporized=""/>
    <tripinfo id="flow_route_96_duration_20250327_1940.8" depart="54.00" departLane="1341093416#0_0" departPos="31.35" departSpeed="0.00" departDelay="0.67" arrival="132.00" arrivalLane="1254519229#0_1" arrivalPos="72.34" arrivalSpeed="12.54" duration="78.00" routeLength="336.00" waitingTime="29.00" waitingCount="1" stopTime="0.00" timeLoss="56.22" rerouteNo="0" devices="tripinfo_flow_route_96_duration_20250327_1940.8" vType="car" speedFactor="1.02" vaporized=""/>
    <tripinfo id="flow_route_123_duration_20250327_1940.8" depart="35.00" departLane="189240000#0-AddedOnRampEdge_0" departPos="26.55" departSpeed="0.00" departDelay="0.72" arrival="133.00" arrivalLane="1254519229#0_0" arrivalPos="37.11" arrivalSpeed="11.82" duration="98.00" routeLength="152.89" waitingTime="54.00" waitingCount="3" stopTime="0.00" timeLoss="86.69" rerouteNo="0" devices="tripinfo_flow_route_123_duration_20250327_1940.8" vType="car" speedFactor="0.85" vaporized=""/>
    <tripinfo id="flow_route_124_duration_20250327_1940.14" depart="32.00" departLane="189240000#0-AddedOnRampEdge_0" departPos="54.16" departSpeed="0.00" departDelay="0.89" arrival="134.00" arrivalLane="1254519225#0.109_3" arrivalPos="54.52" arrivalSpeed="16.39" duration="102.00" routeLength="245.39" waitingTime="50.00" waitingCount="3" stopTime="0.00" timeLoss="85.55" rerouteNo="0" devices="tripinfo_flow_route_124_duration_20250327_1940.14" vType="car" speedFactor="1.04" vaporized=""/>
    <tripinfo id="flow_route_124_duration_20250327_1940.24" depart="56.00" departLane="189240000#0-AddedOnRampEdge_0" departPos="88.38" departSpeed="0.00" departDelay="2.67" arrival="134.00" arrivalLane="1254519225#0.109_3" arrivalPos="25.70" arrivalSpeed="15.43" duration="78.00" routeLength="182.34" waitingTime="42.00" waitingCount="3" stopTime="0.00" timeLoss="65.18" rerouteNo="0" devices="tripinfo_flow_route_124_duration_20250327_1940.24" vType="car" speedFactor="0.97" vaporized=""/>
    <tripinfo id="flow_route_123_duration_20250327_1940.10" depart="43.00" departLane="189240000#0-AddedOnRampEdge_0" departPos="35.82" departSpeed="0.00" departDelay="0.15" arrival="136.00" arrivalLane="1254519229#0_1" arrivalPos="52.78" arrivalSpeed="14.05" duration="93.00" routeLength="162.79" waitingTime="54.00" waitingCount="4" stopTime="0.00" timeLoss="82.36" rerouteNo="0" devices="tripinfo_flow_route_123_duration_20250327_1940.10" vType="car" speedFactor="1.02" vaporized=""/>
    <tripinfo id="flow_route_124_duration_20250327_1940.5" depart="12.00" departLane="189240000#0-AddedOnRampEdge_0" departPos="24.93" departSpeed="0.00" departDelay="0.89" arrival="138.00" arrivalLane="1254519225#0.109_3" arrivalPos="60.18" arrivalSpeed="16.43" duration="126.00" routeLength="280.28" waitingTime="68.00" waitingCount="6" stopTime="0.00" timeLoss="107.69" rerouteNo="0" devices="tripinfo_flow_route_124_duration_20250327_1940.5" vType="car" speedFactor="1.16" vaporized=""/>
    <tripinfo id="flow_route_124_duration_20250327_1940.18" depart="40.00" departLane="189240000#0-AddedOnRampEdge_0" departPos="79.82" departSpeed="0.00" departDelay="0.00" arrival="140.00" arrivalLane="1254519225#0.109_3" arrivalPos="42.13" arrivalSpeed="16.33" duration="100.00" routeLength="207.34" waitingTime="61.00" waitingCount="5" stopTime="0.00" timeLoss="85.75" rerouteNo="0" devices="tripinfo_flow_route_124_duration_20250327_1940.18" vType="car" speedFactor="1.00" vaporized=""/>
    <tripinfo id="flow_route_124_duration_20250327_1940.8" depart="18.00" departLane="189240000#0-AddedOnRampEdge_0" departPos="26.33" departSpeed="0.00" departDelay="0.22" arrival="143.00" arrivalLane="1254519225#0.109_3" arrivalPos="11.44" arrivalSpeed="15.82" duration="125.00" routeLength="230.14" waitingTime="66.00" waitingCount="6" stopTime="0.00" timeLoss="109.52" rerouteNo="0" devices="tripinfo_flow_route_124_duration_20250327_1940.8" vType="car" speedFactor="1.13" vaporized=""/>
    <tripinfo id="flow_route_123_duration_20250327_1940.9" depart="39.00" departLane="189240000#0-AddedOnRampEdge_0" departPos="4.02" departSpeed="0.00" departDelay="0.44" arrival="176.00" arrivalLane="1254519229#0_0" arrivalPos="29.57" arrivalSpeed="8.19" duration="137.00" routeLength="167.88" waitingTime="73.00" waitingCount="4" stopTime="0.00" timeLoss="126.47" rerouteNo="0" devices="tripinfo_flow_route_123_duration_20250327_1940.9" vType="car" speedFactor="1.10" vaporized=""/>
    <tripinfo id="flow_route_123_duration_20250327_1940.12" depart="52.00" departLane="189240000#0-AddedOnRampEdge_0" departPos="1.10" departSpeed="0.00" departDelay="0.58" arrival="178.00" arrivalLane="1254519229#0_0" arrivalPos="26.96" arrivalSpeed="9.00" duration="126.00" routeLength="168.19" waitingTime="82.00" waitingCount="5" stopTime="0.00" timeLoss="115.09" rerouteNo="0" devices="tripinfo_flow_route_123_duration_20250327_1940.12" vType="car" speedFactor="1.04" vaporized=""/>
    <tripinfo id="flow_route_123_duration_20250327_1940.11" depart="50.00" departLane="189240000#0-AddedOnRampEdge_0" departPos="15.81" departSpeed="0.00" departDelay="2.87" arrival="180.00" arrivalLane="1254519229#0_1" arrivalPos="43.70" arrivalSpeed="10.05" duration="130.00" routeLength="173.73" waitingTime="83.00" waitingCount="2" stopTime="0.00" timeLoss="118.48" rerouteNo="0" devices="tripinfo_flow_route_123_duration_20250327_1940.11" vType="car" speedFactor="0.94" vaporized=""/>