<?xml version="1.0" encoding="UTF-8"?>

<!-- generated on 2025-05-06 21:08:36 by Eclipse SUMO sumo Version 1.20.0
<configuration xmlns:xsi="http://www.w3.org/2001/XMLSchema-instance" xsi:noNamespaceSchemaLocation="http://sumo.dlr.de/xsd/sumoConfiguration.xsd">

    <input>
        <net-file value="osm.net.xml"/>
        <route-files value="xml/route_static_cluster_11648561428_407729599_5.rou.xml"/>
    </input>

    <output>
        <tripinfo-output value="xml/tripinfo_static_cluster_11648561428_407729599_5.xml"/>
    </output>

    <traci_server>
        <remote-port value="52189"/>
    </traci_server>

</configuration>
-->

<tripinfos xmlns:xsi="http://www.w3.org/2001/XMLSchema-instance" xsi:noNamespaceSchemaLocation="http://sumo.dlr.de/xsd/tripinfo_file.xsd">
    <tripinfo id="flow_route_107_duration_20250327_1920.0" depart="0.00" departLane="1254519229#0_0" departPos="43.39" departSpeed="0.00" departDelay="0.00" arrival="20.00" arrivalLane="1342963997_0" arrivalPos="88.24" arrivalSpeed="15.23" duration="20.00" routeLength="145.44" waitingTime="0.00" waitingCount="0" stopTime="0.00" timeLoss="10.61" rerouteNo="0" devices="tripinfo_flow_route_107_duration_20250327_1920.0" vType="car" speedFactor="1.08" vaporized=""/>
    <tripinfo id="flow_route_107_duration_20250327_1920.1" depart="8.00" departLane="1254519229#0_0" departPos="54.51" departSpeed="0.00" departDelay="4.84" arrival="23.00" arrivalLane="1342963997_0" arrivalPos="10.82" arrivalSpeed="7.93" duration="15.00" routeLength="56.89" waitingTime="0.00" waitingCount="0" stopTime="0.00" timeLoss="11.34" rerouteNo="0" devices="tripinfo_flow_route_107_duration_20250327_1920.1" vType="car" speedFactor="0.86" vaporized=""/>
    <tripinfo id="flow_route_107_duration_20250327_1920.2" depart="11.00" departLane="1254519229#0_0" departPos="76.38" departSpeed="0.00" departDelay="4.69" arrival="25.00" arrivalLane="1342963997_0" arrivalPos="42.51" arrivalSpeed="10.32" duration="14.00" routeLength="66.70" waitingTime="0.00" waitingCount="0" stopTime="0.00" timeLoss="9.41" rerouteNo="0" devices="tripinfo_flow_route_107_duration_20250327_1920.2" vType="car" speedFactor="1.12" vaporized=""/>
    <tripinfo id="flow_route_106_duration_20250327_1920.0" depart="0.00" departLane="1254519229#0_0" departPos="19.69" departSpeed="0.00" departDelay="0.00" arrival="29.00" arrivalLane="430416184_1" arrivalPos="13.15" arrivalSpeed="7.05" duration="29.00" routeLength="94.14" waitingTime="1.00" waitingCount="1" stopTime="0.00" timeLoss="22.76" rerouteNo="0" devices="tripinfo_flow_route_106_duration_20250327_1920.0" vType="car" speedFactor="1.01" vaporized=""/>
    <tripinfo id="flow_route_106_duration_20250327_1920.1" depart="2.00" departLane="1254519229#0_0" departPos="35.97" departSpeed="0.00" departDelay="0.24" arrival="30.00" arrivalLane="430416184_1" arrivalPos="194.63" arrivalSpeed="16.50" duration="28.00" routeLength="259.33" waitingTime="0.00" waitingCount="0" stopTime="0.00" timeLoss="11.26" rerouteNo="0" devices="tripinfo_flow_route_106_duration_20250327_1920.1" vType="car" speedFactor="1.05" vaporized=""/>
    <tripinfo id="flow_route_101_duration_20250327_1920.0" depart="0.00" departLane="186409193_0" departPos="43.42" departSpeed="0.00" departDelay="0.00" arrival="34.00" arrivalLane="430416184_0" arrivalPos="206.05" arrivalSpeed="16.32" duration="34.00" routeLength="297.12" waitingTime="0.00" waitingCount="0" stopTime="0.00" timeLoss="14.89" rerouteNo="0" devices="tripinfo_flow_route_101_duration_20250327_1920.0" vType="car" speedFactor="0.94" vaporized=""/>
    <tripinfo id="flow_route_106_duration_20250327_1920.2" depart="5.00" departLane="1254519229#0_0" departPos="24.43" departSpeed="0.00" departDelay="1.47" arrival="34.00" arrivalLane="430416184_1" arrivalPos="76.50" arrivalSpeed="11.57" duration="29.00" routeLength="152.74" waitingTime="0.00" waitingCount="0" stopTime="0.00" timeLoss="18.63" rerouteNo="0" devices="tripinfo_flow_route_106_duration_20250327_1920.2" vType="car" speedFactor="0.94" vaporized=""/>
    <tripinfo id="flow_route_107_duration_20250327_1920.3" depart="12.00" departLane="1254519229#0_0" departPos="51.06" departSpeed="0.00" departDelay="2.53" arrival="35.00" arrivalLane="1342963997_0" arrivalPos="145.75" arrivalSpeed="16.57" duration="23.00" routeLength="195.27" waitingTime="0.00" waitingCount="0" stopTime="0.00" timeLoss="11.09" rerouteNo="0" devices="tripinfo_flow_route_107_duration_20250327_1920.3" vType="car" speedFactor="1.02" vaporized=""/>
    <tripinfo id="flow_route_101_duration_20250327_1920.2" depart="6.00" departLane="186409193_0" departPos="51.86" departSpeed="0.00" departDelay="2.47" arrival="37.00" arrivalLane="430416184_0" arrivalPos="163.76" arrivalSpeed="15.73" duration="31.00" routeLength="246.41" waitingTime="0.00" waitingCount="0" stopTime="0.00" timeLoss="14.10" rerouteNo="0" devices="tripinfo_flow_route_101_duration_20250327_1920.2" vType="car" speedFactor="0.89" vaporized=""/>
    <tripinfo id="flow_route_106_duration_20250327_1920.8" depart="22.00" departLane="1254519229#0_0" departPos="52.66" departSpeed="0.00" departDelay="7.89" arrival="37.00" arrivalLane="430416184_1" arrivalPos="13.55" arrivalSpeed="8.87" duration="15.00" routeLength="61.57" waitingTime="1.00" waitingCount="1" stopTime="0.00" timeLoss="10.53" rerouteNo="0" devices="tripinfo_flow_route_106_duration_20250327_1920.8" vType="car" speedFactor="0.93" vaporized=""/>
    <tripinfo id="flow_route_106_duration_20250327_1920.7" depart="16.00" departLane="1254519229#0_0" departPos="48.94" departSpeed="0.00" departDelay="3.65" arrival="38.00" arrivalLane="430416184_1" arrivalPos="80.64" arrivalSpeed="12.38" duration="22.00" routeLength="132.37" waitingTime="0.00" waitingCount="0" stopTime="0.00" timeLoss="13.00" rerouteNo="0" devices="tripinfo_flow_route_106_duration_20250327_1920.7" vType="car" speedFactor="0.87" vaporized=""/>
    <tripinfo id="flow_route_107_duration_20250327_1920.5" depart="25.00" departLane="1254519229#0_0" departPos="71.97" departSpeed="0.00" departDelay="9.22" arrival="38.00" arrivalLane="1342963997_0" arrivalPos="38.13" arrivalSpeed="9.97" duration="13.00" routeLength="66.75" waitingTime="0.00" waitingCount="0" stopTime="0.00" timeLoss="8.69" rerouteNo="0" devices="tripinfo_flow_route_107_duration_20250327_1920.5" vType="car" speedFactor="1.01" vaporized=""/>
    <tripinfo id="flow_route_106_duration_20250327_1920.4" depart="11.00" departLane="1254519229#0_0" departPos="24.49" departSpeed="0.00" departDelay="3.94" arrival="39.00" arrivalLane="430416184_1" arrivalPos="8.62" arrivalSpeed="9.42" duration="28.00" routeLength="84.81" waitingTime="1.00" waitingCount="1" stopTime="0.00" timeLoss="21.51" rerouteNo="0" devices="tripinfo_flow_route_106_duration_20250327_1920.4" vType="car" speedFactor="0.88" vaporized=""/>
    <tripinfo id="flow_route_106_duration_20250327_1920.5" depart="12.00" departLane="1254519229#0_0" departPos="14.59" departSpeed="0.00" departDelay="3.18" arrival="39.00" arrivalLane="430416184_1" arrivalPos="64.53" arrivalSpeed="11.80" duration="27.00" routeLength="150.62" waitingTime="0.00" waitingCount="0" stopTime="0.00" timeLoss="17.09" rerouteNo="0" devices="tripinfo_flow_route_106_duration_20250327_1920.5" vType="car" speedFactor="1.16" vaporized=""/>
    <tripinfo id="flow_route_107_duration_20250327_1920.4" depart="18.00" departLane="1254519229#0_0" departPos="24.09" departSpeed="0.00" departDelay="5.37" arrival="44.00" arrivalLane="1342963997_1" arrivalPos="98.18" arrivalSpeed="14.11" duration="26.00" routeLength="174.67" waitingTime="0.00" waitingCount="0" stopTime="0.00" timeLoss="15.48" rerouteNo="0" devices="tripinfo_flow_route_107_duration_20250327_1920.4" vType="car" speedFactor="0.92" vaporized=""/>
    <tripinfo id="flow_route_149_duration_20250327_1920.3" depart="10.00" departLane="186410975#0_0" departPos="153.89" departSpeed="0.00" departDelay="0.53" arrival="52.00" arrivalLane="430416184_1" arrivalPos="25.74" arrivalSpeed="10.23" duration="42.00" routeLength="417.52" waitingTime="0.00" waitingCount="0" stopTime="0.00" timeLoss="11.29" rerouteNo="0" devices="tripinfo_flow_route_149_duration_20250327_1920.3" vType="car" speedFactor="1.01" vaporized=""/>
    <tripinfo id="flow_route_101_duration_20250327_1920.1" depart="2.00" departLane="186409193_0" departPos="27.23" departSpeed="0.00" departDelay="0.24" arrival="59.00" arrivalLane="430416184_0" arrivalPos="1.75" arrivalSpeed="4.00" duration="57.00" routeLength="109.01" waitingTime="30.00" waitingCount="1" stopTime="0.00" timeLoss="48.20" rerouteNo="0" devices="tripinfo_flow_route_101_duration_20250327_1920.1" vType="car" speedFactor="0.83" vaporized=""/>
    <tripinfo id="flow_route_149_duration_20250327_1920.0" depart="0.00" departLane="186410975#0_0" departPos="192.32" departSpeed="0.00" departDelay="0.00" arrival="61.00" arrivalLane="430416184_1" arrivalPos="170.61" arrivalSpeed="16.50" duration="61.00" routeLength="523.96" waitingTime="4.00" waitingCount="1" stopTime="0.00" timeLoss="24.99" rerouteNo="0" devices="tripinfo_flow_route_149_duration_20250327_1920.0" vType="car" speedFactor="1.03" vaporized=""/>
    <tripinfo id="flow_route_149_duration_20250327_1920.1" depart="4.00" departLane="186410975#0_0" departPos="11.92" departSpeed="0.00" departDelay="0.84" arrival="69.00" arrivalLane="430416184_1" arrivalPos="253.21" arrivalSpeed="16.52" duration="65.00" routeLength="786.96" waitingTime="0.00" waitingCount="0" stopTime="0.00" timeLoss="9.44" rerouteNo="0" devices="tripinfo_flow_route_149_duration_20250327_1920.1" vType="car" speedFactor="1.09" vaporized=""/>
    <tripinfo id="flow_route_101_duration_20250327_1920.7" depart="18.00" departLane="186409193_0" departPos="1.39" departSpeed="0.00" departDelay="5.65" arrival="76.00" arrivalLane="430416184_0" arrivalPos="8.05" arrivalSpeed="5.14" duration="58.00" routeLength="141.16" waitingTime="22.00" waitingCount="1" stopTime="0.00" timeLoss="46.61" rerouteNo="0" devices="tripinfo_flow_route_101_duration_20250327_1920.7" vType="car" speedFactor="0.83" vaporized=""/>
    <tripinfo id="flow_route_101_duration_20250327_1920.5" depart="13.00" departLane="186409193_0" departPos="3.91" departSpeed="0.00" departDelay="4.18" arrival="78.00" arrivalLane="430416184_0" arrivalPos="76.37" arrivalSpeed="12.51" duration="65.00" routeLength="206.95" waitingTime="26.00" waitingCount="1" stopTime="0.00" timeLoss="50.91" rerouteNo="0" devices="tripinfo_flow_route_101_duration_20250327_1920.5" vType="car" speedFactor="0.94" vaporized=""/>
    <tripinfo id="flow_route_101_duration_20250327_1920.8" depart="22.00" departLane="186409193_0" departPos="27.24" departSpeed="0.00" departDelay="7.89" arrival="78.00" arrivalLane="430416184_0" arrivalPos="52.25" arrivalSpeed="10.41" duration="56.00" routeLength="159.50" waitingTime="22.00" waitingCount="1" stopTime="0.00" timeLoss="45.02" rerouteNo="0" devices="tripinfo_flow_route_101_duration_20250327_1920.8" vType="car" speedFactor="1.13" vaporized=""/>
    <tripinfo id="flow_route_107_duration_20250327_1920.8" depart="39.00" departLane="1254519229#0_0" departPos="58.97" departSpeed="0.00" departDelay="13.74" arrival="78.00" arrivalLane="1342963997_0" arrivalPos="105.78" arrivalSpeed="14.95" duration="39.00" routeLength="147.39" waitingTime="16.00" waitingCount="1" stopTime="0.00" timeLoss="29.40" rerouteNo="0" devices="tripinfo_flow_route_107_duration_20250327_1920.8" vType="car" speedFactor="0.85" vaporized=""/>
    <tripinfo id="flow_route_107_duration_20250327_1920.10" depart="65.00" departLane="1254519229#0_0" departPos="64.91" departSpeed="0.00" departDelay="33.43" arrival="82.00" arrivalLane="1342963997_0" arrivalPos="70.65" arrivalSpeed="13.02" duration="17.00" routeLength="106.32" waitingTime="0.00" waitingCount="0" stopTime="0.00" timeLoss="10.01" rerouteNo="0" devices="tripinfo_flow_route_107_duration_20250327_1920.10" vType="car" speedFactor="1.02" vaporized=""/>
    <tripinfo id="flow_route_101_duration_20250327_1920.4" depart="9.00" departLane="186409193_0" departPos="33.39" departSpeed="0.00" departDelay="1.94" arrival="84.00" arrivalLane="430416184_0" arrivalPos="276.64" arrivalSpeed="16.41" duration="75.00" routeLength="377.74" waitingTime="30.00" waitingCount="1" stopTime="0.00" timeLoss="50.10" rerouteNo="0" devices="tripinfo_flow_route_101_duration_20250327_1920.4" vType="car" speedFactor="0.93" vaporized=""/>
    <tripinfo id="flow_route_101_duration_20250327_1920.6" depart="14.00" departLane="186409193_0" departPos="19.81" departSpeed="0.00" departDelay="3.42" arrival="84.00" arrivalLane="430416184_0" arrivalPos="200.01" arrivalSpeed="16.11" duration="70.00" routeLength="314.70" waitingTime="26.00" waitingCount="1" stopTime="0.00" timeLoss="48.94" rerouteNo="0" devices="tripinfo_flow_route_101_duration_20250327_1920.6" vType="car" speedFactor="0.97" vaporized=""/>
    <tripinfo id="flow_route_107_duration_20250327_1920.11" depart="72.00" departLane="1254519229#0_0" departPos="67.97" departSpeed="0.00" departDelay="37.27" arrival="84.00" arrivalLane="1342963997_0" arrivalPos="28.30" arrivalSpeed="9.73" duration="12.00" routeLength="60.91" waitingTime="0.00" waitingCount="0" stopTime="0.00" timeLoss="8.03" rerouteNo="0" devices="tripinfo_flow_route_107_duration_20250327_1920.11" vType="car" speedFactor="0.91" vaporized=""/>
    <tripinfo id="flow_route_101_duration_20250327_1920.3" depart="8.00" departLane="186409193_0" departPos="19.36" departSpeed="0.00" departDelay="2.71" arrival="85.00" arrivalLane="430416184_0" arrivalPos="271.56" arrivalSpeed="16.35" duration="77.00" routeLength="386.71" waitingTime="29.00" waitingCount="1" stopTime="0.00" timeLoss="52.37" rerouteNo="0" devices="tripinfo_flow_route_101_duration_20250327_1920.3" vType="car" speedFactor="1.03" vaporized=""/>
    <tripinfo id="flow_route_106_duration_20250327_1920.3" depart="8.00" departLane="1254519229#0_0" departPos="10.29" departSpeed="0.00" departDelay="2.71" arrival="93.00" arrivalLane="430416184_1" arrivalPos="238.38" arrivalSpeed="16.39" duration="85.00" routeLength="328.77" waitingTime="26.00" waitingCount="4" stopTime="0.00" timeLoss="63.90" rerouteNo="0" devices="tripinfo_flow_route_106_duration_20250327_1920.3" vType="car" speedFactor="1.05" vaporized=""/>
    <tripinfo id="flow_route_106_duration_20250327_1920.13" depart="35.00" departLane="1254519229#0_0" departPos="62.82" departSpeed="0.00" departDelay="12.07" arrival="93.00" arrivalLane="430416184_1" arrivalPos="206.27" arrivalSpeed="16.28" duration="58.00" routeLength="244.13" waitingTime="20.00" waitingCount="2" stopTime="0.00" timeLoss="41.98" rerouteNo="0" devices="tripinfo_flow_route_106_duration_20250327_1920.13" vType="car" speedFactor="1.04" vaporized=""/>
    <tripinfo id="flow_route_106_duration_20250327_1920.20" depart="79.00" departLane="1254519229#0_0" departPos="69.32" departSpeed="0.00" departDelay="43.72" arrival="94.00" arrivalLane="430416184_1" arrivalPos="56.49" arrivalSpeed="11.41" duration="15.00" routeLength="87.85" waitingTime="0.00" waitingCount="0" stopTime="0.00" timeLoss="8.88" rerouteNo="0" devices="tripinfo_flow_route_106_duration_20250327_1920.20" vType="car" speedFactor="1.02" vaporized=""/>
    <tripinfo id="flow_route_106_duration_20250327_1920.14" depart="37.00" departLane="1254519229#0_0" departPos="67.70" departSpeed="0.00" departDelay="12.30" arrival="97.00" arrivalLane="430416184_1" arrivalPos="244.51" arrivalSpeed="16.41" duration="60.00" routeLength="277.49" waitingTime="27.00" waitingCount="2" stopTime="0.00" timeLoss="42.15" rerouteNo="0" devices="tripinfo_flow_route_106_duration_20250327_1920.14" vType="car" speedFactor="0.88" vaporized=""/>
    <tripinfo id="flow_route_106_duration_20250327_1920.10" depart="28.00" departLane="1254519229#0_0" departPos="43.70" departSpeed="0.00" departDelay="10.36" arrival="101.00" arrivalLane="430416184_1" arrivalPos="282.49" arrivalSpeed="16.58" duration="73.00" routeLength="339.46" waitingTime="21.00" waitingCount="5" stopTime="0.00" timeLoss="51.62" rerouteNo="0" devices="tripinfo_flow_route_106_duration_20250327_1920.10" vType="car" speedFactor="0.97" vaporized=""/>
    <tripinfo id="flow_route_106_duration_20250327_1920.6" depart="14.00" departLane="1254519229#0_0" departPos="6.84" departSpeed="0.00" departDelay="3.42" arrival="103.00" arrivalLane="430416184_1" arrivalPos="270.41" arrivalSpeed="16.58" duration="89.00" routeLength="364.24" waitingTime="19.00" waitingCount="3" stopTime="0.00" timeLoss="65.26" rerouteNo="0" devices="tripinfo_flow_route_106_duration_20250327_1920.6" vType="car" speedFactor="0.89" vaporized=""/>
    <tripinfo id="flow_route_149_duration_20250327_1920.2" depart="7.00" departLane="186410975#0_0" departPos="41.07" departSpeed="0.00" departDelay="0.69" arrival="106.00" arrivalLane="430416184_1" arrivalPos="9.37" arrivalSpeed="8.21" duration="99.00" routeLength="513.98" waitingTime="33.00" waitingCount="1" stopTime="0.00" timeLoss="58.87" rerouteNo="0" devices="tripinfo_flow_route_149_duration_20250327_1920.2" vType="car" speedFactor="0.99" vaporized=""/>
    <tripinfo id="flow_route_107_duration_20250327_1920.12" depart="84.00" departLane="1254519229#0_0" departPos="77.28" departSpeed="0.00" departDelay="46.12" arrival="106.00" arrivalLane="1342963997_0" arrivalPos="168.91" arrivalSpeed="16.17" duration="22.00" routeLength="192.21" waitingTime="0.00" waitingCount="0" stopTime="0.00" timeLoss="10.41" rerouteNo="0" devices="tripinfo_flow_route_107_duration_20250327_1920.12" vType="car" speedFactor="1.06" vaporized=""/>
    <tripinfo id="flow_route_106_duration_20250327_1920.18" depart="55.00" departLane="1254519229#0_0" departPos="51.72" departSpeed="0.00" departDelay="23.25" arrival="109.00" arrivalLane="430416184_1" arrivalPos="236.95" arrivalSpeed="16.23" duration="54.00" routeLength="285.91" waitingTime="18.00" waitingCount="3" stopTime="0.00" timeLoss="36.06" rerouteNo="0" devices="tripinfo_flow_route_106_duration_20250327_1920.18" vType="car" speedFactor="1.12" vaporized=""/>
    <tripinfo id="flow_route_149_duration_20250327_1920.5" depart="16.00" departLane="186410975#0_0" departPos="132.36" departSpeed="0.00" departDelay="0.22" arrival="117.00" arrivalLane="430416184_1" arrivalPos="196.27" arrivalSpeed="16.18" duration="101.00" routeLength="609.57" waitingTime="38.00" waitingCount="1" stopTime="0.00" timeLoss="60.36" rerouteNo="0" devices="tripinfo_flow_route_149_duration_20250327_1920.5" vType="car" speedFactor="1.17" vaporized=""/>
    <tripinfo id="flow_route_149_duration_20250327_1920.4" depart="13.00" departLane="186410975#0_0" departPos="81.01" departSpeed="0.00" departDelay="0.37" arrival="123.00" arrivalLane="430416184_1" arrivalPos="268.40" arrivalSpeed="16.15" duration="110.00" routeLength="733.06" waitingTime="34.00" waitingCount="1" stopTime="0.00" timeLoss="56.90" rerouteNo="0" devices="tripinfo_flow_route_149_duration_20250327_1920.4" vType="car" speedFactor="0.95" vaporized=""/>
    <tripinfo id="flow_route_101_duration_20250327_1920.9" depart="25.00" departLane="186409193_0" departPos="8.97" departSpeed="0.00" departDelay="9.12" arrival="124.00" arrivalLane="430416184_0" arrivalPos="101.75" arrivalSpeed="13.13" duration="99.00" routeLength="227.28" waitingTime="52.00" waitingCount="2" stopTime="0.00" timeLoss="84.24" rerouteNo="0" devices="tripinfo_flow_route_101_duration_20250327_1920.9" vType="car" speedFactor="1.18" vaporized=""/>
    <tripinfo id="flow_route_149_duration_20250327_1920.6" depart="20.00" departLane="186410975#0_0" departPos="76.48" departSpeed="0.00" departDelay="1.06" arrival="126.00" arrivalLane="430416184_1" arrivalPos="267.47" arrivalSpeed="16.49" duration="106.00" routeLength="736.66" waitingTime="31.00" waitingCount="1" stopTime="0.00" timeLoss="55.39" rerouteNo="0" devices="tripinfo_flow_route_149_duration_20250327_1920.6" vType="car" speedFactor="1.10" vaporized=""/>
    <tripinfo id="flow_route_101_duration_20250327_1920.13" depart="40.00" departLane="186409193_0" departPos="26.62" departSpeed="0.00" departDelay="17.07" arrival="126.00" arrivalLane="430416184_0" arrivalPos="35.95" arrivalSpeed="8.92" duration="86.00" routeLength="143.82" waitingTime="43.00" waitingCount="2" stopTime="0.00" timeLoss="75.83" rerouteNo="0" devices="tripinfo_flow_route_101_duration_20250327_1920.13" vType="car" speedFactor="1.04" vaporized=""/>
    <tripinfo id="flow_route_101_duration_20250327_1920.10" depart="33.00" departLane="186409193_0" departPos="27.04" departSpeed="0.00" departDelay="15.36" arrival="129.00" arrivalLane="430416184_0" arrivalPos="105.60" arrivalSpeed="13.80" duration="96.00" routeLength="213.06" waitingTime="47.00" waitingCount="2" stopTime="0.00" timeLoss="82.33" rerouteNo="0" devices="tripinfo_flow_route_101_duration_20250327_1920.10" vType="car" speedFactor="1.02" vaporized=""/>
    <tripinfo id="flow_route_101_duration_20250327_1920.11" depart="38.00" departLane="186409193_0" departPos="53.63" departSpeed="0.00" departDelay="18.60" arrival="129.00" arrivalLane="430416184_0" arrivalPos="131.81" arrivalSpeed="15.46" duration="91.00" routeLength="212.68" waitingTime="47.00" waitingCount="2" stopTime="0.00" timeLoss="75.87" rerouteNo="0" devices="tripinfo_flow_route_101_duration_20250327_1920.11" vType="car" speedFactor="0.90" vaporized=""/>
    <tripinfo id="flow_route_106_duration_20250327_1920.12" depart="34.00" departLane="1254519229#0_0" departPos="35.38" departSpeed="0.00" departDelay="12.83" arrival="135.00" arrivalLane="430416184_1" arrivalPos="29.36" arrivalSpeed="7.48" duration="101.00" routeLength="94.66" waitingTime="57.00" waitingCount="5" stopTime="0.00" timeLoss="94.66" rerouteNo="0" devices="tripinfo_flow_route_106_duration_20250327_1920.12" vType="car" speedFactor="1.09" vaporized=""/>
    <tripinfo id="flow_route_101_duration_20250327_1920.12" depart="39.00" departLane="186409193_0" departPos="2.02" departSpeed="0.00" departDelay="17.83" arrival="141.00" arrivalLane="430416184_0" arrivalPos="202.28" arrivalSpeed="16.43" duration="102.00" routeLength="334.76" waitingTime="43.00" waitingCount="2" stopTime="0.00" timeLoss="80.04" rerouteNo="0" devices="tripinfo_flow_route_101_duration_20250327_1920.12" vType="car" speedFactor="0.96" vaporized=""/>
    <tripinfo id="flow_route_106_duration_20250327_1920.21" depart="79.00" departLane="1254519229#0_0" departPos="58.29" departSpeed="0.00" departDelay="41.96" arrival="141.00" arrivalLane="430416184_1" arrivalPos="68.95" arrivalSpeed="11.53" duration="62.00" routeLength="111.34" waitingTime="32.00" waitingCount="4" stopTime="0.00" timeLoss="54.28" rerouteNo="0" devices="tripinfo_flow_route_106_duration_20250327_1920.21" vType="car" speedFactor="0.94" vaporized=""/>
    <tripinfo id="flow_route_101_duration_20250327_1920.15" depart="57.00" departLane="186409193_0" departPos="19.13" departSpeed="0.00" departDelay="30.54" arrival="143.00" arrivalLane="430416184_0" arrivalPos="165.80" arrivalSpeed="16.37" duration="86.00" routeLength="281.17" waitingTime="33.00" waitingCount="2" stopTime="0.00" timeLoss="67.75" rerouteNo="0" devices="tripinfo_flow_route_101_duration_20250327_1920.15" vType="car" speedFactor="1.02" vaporized=""/>
    <tripinfo id="flow_route_100_duration_20250327_1920.0" depart="0.00" departLane="186409193_0" departPos="2.55" departSpeed="0.00" departDelay="0.00" arrival="145.00" arrivalLane="1254519229#0_1" arrivalPos="70.90" arrivalSpeed="1.68" duration="145.00" routeLength="299.97" waitingTime="62.00" waitingCount="6" stopTime="0.00" timeLoss="126.22" rerouteNo="0" devices="tripinfo_flow_route_100_duration_20250327_1920.0" vType="car" speedFactor="1.06" vaporized=""/>
    <tripinfo id="flow_route_101_duration_20250327_1920.14" depart="47.00" departLane="186409193_0" departPos="12.37" departSpeed="0.00" departDelay="22.30" arrival="149.00" arrivalLane="430416184_0" arrivalPos="282.89" arrivalSpeed="16.15" duration="102.00" routeLength="405.02" waitingTime="35.00" waitingCount="2" stopTime="0.00" timeLoss="74.90" rerouteNo="0" devices="tripinfo_flow_route_101_duration_20250327_1920.14" vType="car" speedFactor="0.90" vaporized=""/>
    <tripinfo id="flow_route_107_duration_20250327_1920.9" depart="48.00" departLane="1254519229#0_0" departPos="3.15" departSpeed="0.00" departDelay="19.59" arrival="150.00" arrivalLane="1342963997_0" arrivalPos="30.08" arrivalSpeed="9.84" duration="102.00" routeLength="127.51" waitingTime="55.00" waitingCount="3" stopTime="0.00" timeLoss="93.85" rerouteNo="0" devices="tripinfo_flow_route_107_duration_20250327_1920.9" vType="car" speedFactor="0.90" vaporized=""/>
    <tripinfo id="flow_route_106_duration_20250327_1920.22" depart="93.00" departLane="1254519229#0_0" departPos="74.37" departSpeed="0.00" departDelay="54.19" arrival="152.00" arrivalLane="430416184_1" arrivalPos="164.72" arrivalSpeed="16.44" duration="59.00" routeLength="191.03" waitingTime="33.00" waitingCount="2" stopTime="0.00" timeLoss="46.07" rerouteNo="0" devices="tripinfo_flow_route_106_duration_20250327_1920.22" vType="car" speedFactor="1.03" vaporized=""/>
    <tripinfo id="flow_route_106_duration_20250327_1920.9" depart="22.00" departLane="1254519229#0_0" departPos="22.38" departSpeed="0.00" departDelay="6.12" arrival="153.00" arrivalLane="430416184_1" arrivalPos="83.88" arrivalSpeed="13.17" duration="131.00" routeLength="162.18" waitingTime="67.00" waitingCount="6" stopTime="0.00" timeLoss="120.53" rerouteNo="0" devices="tripinfo_flow_route_106_duration_20250327_1920.9" vType="car" speedFactor="1.15" vaporized=""/>
    <tripinfo id="flow_route_107_duration_20250327_1920.6" depart="28.00" departLane="1254519229#0_0" departPos="1.16" departSpeed="0.00" departDelay="9.06" arrival="155.00" arrivalLane="1342963997_0" arrivalPos="112.27" arrivalSpeed="14.35" duration="127.00" routeLength="211.68" waitingTime="71.00" waitingCount="5" stopTime="0.00" timeLoss="113.77" rerouteNo="0" devices="tripinfo_flow_route_107_duration_20250327_1920.6" vType="car" speedFactor="1.18" vaporized=""/>
    <tripinfo id="flow_route_149_duration_20250327_1920.8" depart="29.00" departLane="186410975#0_0" departPos="87.46" departSpeed="0.00" departDelay="3.74" arrival="163.00" arrivalLane="430416184_1" arrivalPos="80.19" arrivalSpeed="13.32" duration="134.00" routeLength="538.40" waitingTime="65.00" waitingCount="2" stopTime="0.00" timeLoss="96.72" rerouteNo="0" devices="tripinfo_flow_route_149_duration_20250327_1920.8" vType="car" speedFactor="1.17" vaporized=""/>
    <tripinfo id="flow_route_106_duration_20250327_1920.27" depart="130.00" departLane="1254519229#0_0" departPos="78.13" departSpeed="0.00" departDelay="82.37" arrival="163.00" arrivalLane="430416184_0" arrivalPos="265.56" arrivalSpeed="16.36" duration="33.00" routeLength="288.11" waitingTime="3.00" waitingCount="1" stopTime="0.00" timeLoss="14.41" rerouteNo="0" devices="tripinfo_flow_route_106_duration_20250327_1920.27" vType="car" speedFactor="0.89" vaporized=""/>
    <tripinfo id="flow_route_107_duration_20250327_1920.7" depart="35.00" departLane="1254519229#0_0" departPos="9.12" departSpeed="0.00" departDelay="12.90" arrival="173.00" arrivalLane="1342963997_0" arrivalPos="25.35" arrivalSpeed="8.85" duration="138.00" routeLength="116.80" waitingTime="73.00" waitingCount="8" stopTime="0.00" timeLoss="130.51" rerouteNo="0" devices="tripinfo_flow_route_107_duration_20250327_1920.7" vType="car" speedFactor="1.09" vaporized=""/>
    <tripinfo id="flow_route_149_duration_20250327_1920.11" depart="35.00" departLane="186410975#0_0" departPos="58.33" departSpeed="0.00" departDelay="0.27" arrival="173.00" arrivalLane="430416184_1" arrivalPos="167.60" arrivalSpeed="16.16" duration="138.00" routeLength="654.95" waitingTime="58.00" waitingCount="2" stopTime="0.00" timeLoss="90.42" rerouteNo="0" devices="tripinfo_flow_route_149_duration_20250327_1920.11" vType="car" speedFactor="1.04" vaporized=""/>
    <tripinfo id="flow_route_149_duration_20250327_1920.7" depart="23.00" departLane="186410975#0_0" departPos="10.99" departSpeed="0.00" departDelay="0.90" arrival="176.00" arrivalLane="430416184_1" arrivalPos="255.07" arrivalSpeed="16.40" duration="153.00" routeLength="789.74" waitingTime="62.00" waitingCount="2" stopTime="0.00" timeLoss="94.89" rerouteNo="0" devices="tripinfo_flow_route_149_duration_20250327_1920.7" vType="car" speedFactor="1.00" vaporized=""/>
    <tripinfo id="flow_route_107_duration_20250327_1920.15" depart="146.00" departLane="1254519229#0_0" departPos="58.37" departSpeed="0.00" departDelay="98.65" arrival="176.00" arrivalLane="1342963997_0" arrivalPos="36.26" arrivalSpeed="10.47" duration="30.00" routeLength="78.47" waitingTime="10.00" waitingCount="1" stopTime="0.00" timeLoss="24.99" rerouteNo="0" devices="tripinfo_flow_route_107_duration_20250327_1920.15" vType="car" speedFactor="0.83" vaporized=""/>
    <tripinfo id="flow_route_107_duration_20250327_1920.13" depart="107.00" departLane="1254519229#0_0" departPos="12.91" departSpeed="0.00" departDelay="65.96" arrival="178.00" arrivalLane="1342963997_0" arrivalPos="34.22" arrivalSpeed="10.01" duration="71.00" routeLength="121.90" waitingTime="36.00" waitingCount="2" stopTime="0.00" timeLoss="63.39" rerouteNo="0" devices="tripinfo_flow_route_107_duration_20250327_1920.13" vType="car" speedFactor="1.09" vaporized=""/>
    <tripinfo id="flow_route_106_duration_20250327_1920.15" depart="42.00" departLane="1254519229#0_0" departPos="8.73" departSpeed="0.00" departDelay="15.54" arrival="181.00" arrivalLane="430416184_1" arrivalPos="29.75" arrivalSpeed="8.39" duration="139.00" routeLength="121.70" waitingTime="67.00" waitingCount="7" stopTime="0.00" timeLoss="130.88" rerouteNo="0" devices="tripinfo_flow_route_106_duration_20250327_1920.15" vType="car" speedFactor="1.10" vaporized=""/>