<?xml version="1.0" encoding="UTF-8"?>

<!-- generated on 2025-05-06 21:08:54 by Eclipse SUMO sumo Version 1.20.0
<configuration xmlns:xsi="http://www.w3.org/2001/XMLSchema-instance" xsi:noNamespaceSchemaLocation="http://sumo.dlr.de/xsd/sumoConfiguration.xsd">

    <input>
        <net-file value="osm.net.xml"/>
        <route-files value="xml/route_rl_632031937_7.rou.xml"/>
    </input>

    <output>
        <tripinfo-output value="xml/tripinfo_rl_632031937_7.xml"/>
    </output>

    <traci_server>
        <remote-port value="49563"/>
    </traci_server>

</configuration>
-->

<tripinfos xmlns:xsi="http://www.w3.org/2001/XMLSchema-instance" xsi:noNamespaceSchemaLocation="http://sumo.dlr.de/xsd/tripinfo_file.xsd">
    <tripinfo id="flow_route_66_duration_20250327_1930.0" depart="0.00" departLane="-138002002#2_0" departPos="85.87" departSpeed="0.00" departDelay="0.00" arrival="20.00" arrivalLane="-138002006#3_1" arrivalPos="3.87" arrivalSpeed="12.62" duration="20.00" routeLength="121.39" waitingTime="0.00" waitingCount="0" stopTime="0.00" timeLoss="10.86" rerouteNo="0" devices="tripinfo_flow_route_66_duration_20250327_1930.0" vType="car" speedFactor="0.83" vaporized=""/>
    <tripinfo id="flow_route_53_duration_20250327_1930.0" depart="0.00" departLane="138002006#0_0" departPos="48.40" departSpeed="0.00" departDelay="0.00" arrival="23.00" arrivalLane="1369578052#0_0" arrivalPos="131.33" arrivalSpeed="15.39" duration="23.00" routeLength="190.85" waitingTime="0.00" waitingCount="0" stopTime="0.00" timeLoss="10.19" rerouteNo="0" devices="tripinfo_flow_route_53_duration_20250327_1930.0" vType="car" speedFactor="0.94" vaporized=""/>
    <tripinfo id="flow_route_53_duration_20250327_1930.1" depart="3.00" departLane="138002006#0_0" departPos="5.35" departSpeed="0.00" departDelay="0.27" arrival="23.00" arrivalLane="1369578052#0_1" arrivalPos="48.76" arrivalSpeed="14.32" duration="20.00" routeLength="151.33" waitingTime="0.00" waitingCount="0" stopTime="0.00" timeLoss="9.17" rerouteNo="0" devices="tripinfo_flow_route_53_duration_20250327_1930.1" vType="car" speedFactor="0.89" vaporized=""/>
    <tripinfo id="flow_route_53_duration_20250327_1930.2" depart="6.00" departLane="138002006#0_0" departPos="27.26" departSpeed="0.00" departDelay="0.55" arrival="27.00" arrivalLane="1369578052#0_0" arrivalPos="94.56" arrivalSpeed="16.40" duration="21.00" routeLength="175.22" waitingTime="0.00" waitingCount="0" stopTime="0.00" timeLoss="10.10" rerouteNo="0" devices="tripinfo_flow_route_53_duration_20250327_1930.2" vType="car" speedFactor="1.09" vaporized=""/>
    <tripinfo id="flow_route_52_duration_20250327_1930.0" depart="0.00" departLane="138002006#0_0" departPos="21.97" departSpeed="0.00" departDelay="0.00" arrival="30.00" arrivalLane="380351865#0_1" arrivalPos="15.21" arrivalSpeed="11.55" duration="30.00" routeLength="234.80" waitingTime="0.00" waitingCount="0" stopTime="0.00" timeLoss="10.25" rerouteNo="0" devices="tripinfo_flow_route_52_duration_20250327_1930.0" vType="car" speedFactor="1.06" vaporized=""/>
    <tripinfo id="flow_route_67_duration_20250327_1930.0" depart="1.00" departLane="-138002002#2_0" departPos="104.31" departSpeed="0.00" departDelay="1.00" arrival="32.00" arrivalLane="380351865#0_0" arrivalPos="12.69" arrivalSpeed="11.37" duration="31.00" routeLength="241.42" waitingTime="0.00" waitingCount="0" stopTime="0.00" timeLoss="11.22" rerouteNo="0" devices="tripinfo_flow_route_67_duration_20250327_1930.0" vType="car" speedFactor="1.05" vaporized=""/>
    <tripinfo id="flow_route_53_duration_20250327_1930.7" depart="20.00" departLane="138002006#0_0" departPos="84.77" departSpeed="0.00" departDelay="0.91" arrival="34.00" arrivalLane="1369578052#0_0" arrivalPos="56.73" arrivalSpeed="10.83" duration="14.00" routeLength="79.89" waitingTime="0.00" waitingCount="0" stopTime="0.00" timeLoss="8.48" rerouteNo="0" devices="tripinfo_flow_route_53_duration_20250327_1930.7" vType="car" speedFactor="0.89" vaporized=""/>
    <tripinfo id="flow_route_52_duration_20250327_1930.1" depart="19.00" departLane="138002006#0_0" departPos="83.00" departSpeed="0.00" departDelay="4.00" arrival="40.00" arrivalLane="380351865#0_1" arrivalPos="7.02" arrivalSpeed="12.86" duration="21.00" routeLength="165.58" waitingTime="0.00" waitingCount="0" stopTime="0.00" timeLoss="7.36" rerouteNo="0" devices="tripinfo_flow_route_52_duration_20250327_1930.1" vType="car" speedFactor="1.16" vaporized=""/>
    <tripinfo id="flow_route_53_duration_20250327_1930.10" depart="28.00" departLane="138002006#0_0" departPos="64.08" departSpeed="0.00" departDelay="0.73" arrival="40.00" arrivalLane="1369578052#0_0" arrivalPos="14.75" arrivalSpeed="9.19" duration="12.00" routeLength="58.59" waitingTime="0.00" waitingCount="0" stopTime="0.00" timeLoss="8.36" rerouteNo="0" devices="tripinfo_flow_route_53_duration_20250327_1930.10" vType="car" speedFactor="1.01" vaporized=""/>
    <tripinfo id="flow_route_53_duration_20250327_1930.3" depart="10.00" departLane="138002006#0_0" departPos="21.01" departSpeed="0.00" departDelay="1.82" arrival="41.00" arrivalLane="1369578052#0_1" arrivalPos="151.94" arrivalSpeed="16.28" duration="31.00" routeLength="238.85" waitingTime="0.00" waitingCount="0" stopTime="0.00" timeLoss="16.57" rerouteNo="0" devices="tripinfo_flow_route_53_duration_20250327_1930.3" vType="car" speedFactor="1.05" vaporized=""/>
    <tripinfo id="flow_route_53_duration_20250327_1930.5" depart="16.00" departLane="138002006#0_0" departPos="50.74" departSpeed="0.00" departDelay="2.37" arrival="41.00" arrivalLane="1369578052#0_0" arrivalPos="126.28" arrivalSpeed="15.01" duration="25.00" routeLength="183.46" waitingTime="0.00" waitingCount="0" stopTime="0.00" timeLoss="13.06" rerouteNo="0" devices="tripinfo_flow_route_53_duration_20250327_1930.5" vType="car" speedFactor="0.94" vaporized=""/>
    <tripinfo id="flow_route_53_duration_20250327_1930.9" depart="26.00" departLane="138002006#0_0" departPos="50.35" departSpeed="0.00" departDelay="1.46" arrival="41.00" arrivalLane="1369578052#0_1" arrivalPos="32.99" arrivalSpeed="11.70" duration="15.00" routeLength="90.57" waitingTime="0.00" waitingCount="0" stopTime="0.00" timeLoss="8.91" rerouteNo="0" devices="tripinfo_flow_route_53_duration_20250327_1930.9" vType="car" speedFactor="0.93" vaporized=""/>
    <tripinfo id="flow_route_53_duration_20250327_1930.8" depart="22.00" departLane="138002006#0_0" departPos="2.47" departSpeed="0.00" departDelay="0.18" arrival="42.00" arrivalLane="1369578052#0_1" arrivalPos="27.99" arrivalSpeed="11.42" duration="20.00" routeLength="133.44" waitingTime="0.00" waitingCount="0" stopTime="0.00" timeLoss="11.24" rerouteNo="0" devices="tripinfo_flow_route_53_duration_20250327_1930.8" vType="car" speedFactor="0.92" vaporized=""/>
    <tripinfo id="flow_route_53_duration_20250327_1930.4" depart="11.00" departLane="138002006#0_0" departPos="14.12" departSpeed="0.00" departDelay="0.09" arrival="43.00" arrivalLane="1369578052#0_1" arrivalPos="140.92" arrivalSpeed="15.06" duration="32.00" routeLength="234.72" waitingTime="0.00" waitingCount="0" stopTime="0.00" timeLoss="16.50" rerouteNo="0" devices="tripinfo_flow_route_53_duration_20250327_1930.4" vType="car" speedFactor="0.93" vaporized=""/>
    <tripinfo id="flow_route_53_duration_20250327_1930.6" depart="20.00" departLane="138002006#0_0" departPos="14.95" departSpeed="0.00" departDelay="3.64" arrival="52.00" arrivalLane="1369578052#0_0" arrivalPos="149.62" arrivalSpeed="16.33" duration="32.00" routeLength="242.59" waitingTime="0.00" waitingCount="0" stopTime="0.00" timeLoss="17.04" rerouteNo="0" devices="tripinfo_flow_route_53_duration_20250327_1930.6" vType="car" speedFactor="1.01" vaporized=""/>
    <tripinfo id="flow_route_67_duration_20250327_1930.4" depart="20.00" departLane="-138002002#2_0" departPos="118.20" departSpeed="0.00" departDelay="0.00" arrival="52.00" arrivalLane="380351865#0_0" arrivalPos="9.90" arrivalSpeed="9.23" duration="32.00" routeLength="224.76" waitingTime="0.00" waitingCount="0" stopTime="0.00" timeLoss="9.81" rerouteNo="0" devices="tripinfo_flow_route_67_duration_20250327_1930.4" vType="car" speedFactor="0.87" vaporized=""/>
    <tripinfo id="flow_route_53_duration_20250327_1930.11" depart="35.00" departLane="138002006#0_0" departPos="43.74" departSpeed="0.00" departDelay="5.00" arrival="54.00" arrivalLane="1369578052#0_1" arrivalPos="53.46" arrivalSpeed="13.53" duration="19.00" routeLength="117.65" waitingTime="0.00" waitingCount="0" stopTime="0.00" timeLoss="11.43" rerouteNo="0" devices="tripinfo_flow_route_53_duration_20250327_1930.11" vType="car" speedFactor="0.99" vaporized=""/>
    <tripinfo id="flow_route_53_duration_20250327_1930.14" depart="41.00" departLane="138002006#0_0" departPos="86.84" departSpeed="0.00" departDelay="2.82" arrival="54.00" arrivalLane="1369578052#0_0" arrivalPos="51.83" arrivalSpeed="10.22" duration="13.00" routeLength="72.92" waitingTime="0.00" waitingCount="0" stopTime="0.00" timeLoss="8.46" rerouteNo="0" devices="tripinfo_flow_route_53_duration_20250327_1930.14" vType="car" speedFactor="1.04" vaporized=""/>
    <tripinfo id="flow_route_53_duration_20250327_1930.15" depart="41.00" departLane="138002006#0_0" departPos="75.05" departSpeed="0.00" departDelay="0.10" arrival="58.00" arrivalLane="1369578052#0_0" arrivalPos="72.01" arrivalSpeed="11.71" duration="17.00" routeLength="104.88" waitingTime="0.00" waitingCount="0" stopTime="0.00" timeLoss="10.42" rerouteNo="0" devices="tripinfo_flow_route_53_duration_20250327_1930.15" vType="car" speedFactor="1.00" vaporized=""/>
    <tripinfo id="flow_route_53_duration_20250327_1930.12" depart="37.00" departLane="138002006#0_0" departPos="36.49" departSpeed="0.00" departDelay="4.28" arrival="61.00" arrivalLane="1369578052#0_0" arrivalPos="67.31" arrivalSpeed="12.08" duration="24.00" routeLength="138.74" waitingTime="0.00" waitingCount="0" stopTime="0.00" timeLoss="15.55" rerouteNo="0" devices="tripinfo_flow_route_53_duration_20250327_1930.12" vType="car" speedFactor="1.18" vaporized=""/>
    <tripinfo id="flow_route_53_duration_20250327_1930.13" depart="39.00" departLane="138002006#0_0" departPos="63.22" departSpeed="0.00" departDelay="3.55" arrival="61.00" arrivalLane="1369578052#0_0" arrivalPos="84.01" arrivalSpeed="13.54" duration="22.00" routeLength="128.71" waitingTime="0.00" waitingCount="0" stopTime="0.00" timeLoss="13.66" rerouteNo="0" devices="tripinfo_flow_route_53_duration_20250327_1930.13" vType="car" speedFactor="1.03" vaporized=""/>
    <tripinfo id="flow_route_52_duration_20250327_1930.2" depart="34.00" departLane="138002006#0_0" departPos="9.30" departSpeed="0.00" departDelay="4.00" arrival="64.00" arrivalLane="380351865#0_1" arrivalPos="6.01" arrivalSpeed="12.54" duration="30.00" routeLength="238.27" waitingTime="0.00" waitingCount="0" stopTime="0.00" timeLoss="11.97" rerouteNo="0" devices="tripinfo_flow_route_52_duration_20250327_1930.2" vType="car" speedFactor="1.17" vaporized=""/>
    <tripinfo id="flow_route_53_duration_20250327_1930.16" depart="45.00" departLane="138002006#0_0" departPos="52.61" departSpeed="0.00" departDelay="1.37" arrival="67.00" arrivalLane="1369578052#0_0" arrivalPos="122.27" arrivalSpeed="14.95" duration="22.00" routeLength="177.57" waitingTime="0.00" waitingCount="0" stopTime="0.00" timeLoss="9.62" rerouteNo="0" devices="tripinfo_flow_route_53_duration_20250327_1930.16" vType="car" speedFactor="0.90" vaporized=""/>
    <tripinfo id="flow_route_53_duration_20250327_1930.19" depart="55.00" departLane="138002006#0_0" departPos="13.61" departSpeed="0.00" departDelay="3.19" arrival="73.00" arrivalLane="1369578052#0_1" arrivalPos="21.08" arrivalSpeed="12.56" duration="18.00" routeLength="115.38" waitingTime="0.00" waitingCount="0" stopTime="0.00" timeLoss="10.76" rerouteNo="0" devices="tripinfo_flow_route_53_duration_20250327_1930.19" vType="car" speedFactor="1.14" vaporized=""/>
    <tripinfo id="flow_route_53_duration_20250327_1930.18" depart="53.00" departLane="138002006#0_0" departPos="34.93" departSpeed="0.00" departDelay="3.91" arrival="74.00" arrivalLane="1369578052#0_0" arrivalPos="86.69" arrivalSpeed="15.50" duration="21.00" routeLength="159.68" waitingTime="0.00" waitingCount="0" stopTime="0.00" timeLoss="10.66" rerouteNo="0" devices="tripinfo_flow_route_53_duration_20250327_1930.18" vType="car" speedFactor="1.00" vaporized=""/>
    <tripinfo id="flow_route_53_duration_20250327_1930.17" depart="51.00" departLane="138002006#0_0" departPos="43.18" departSpeed="0.00" departDelay="4.64" arrival="76.00" arrivalLane="1369578052#0_0" arrivalPos="174.15" arrivalSpeed="16.25" duration="25.00" routeLength="238.89" waitingTime="0.00" waitingCount="0" stopTime="0.00" timeLoss="10.16" rerouteNo="0" devices="tripinfo_flow_route_53_duration_20250327_1930.17" vType="car" speedFactor="1.17" vaporized=""/>
    <tripinfo id="flow_route_52_duration_20250327_1930.3" depart="45.00" departLane="138002006#0_0" departPos="9.13" departSpeed="0.00" departDelay="0.00" arrival="79.00" arrivalLane="380351865#0_1" arrivalPos="6.48" arrivalSpeed="9.28" duration="34.00" routeLength="238.91" waitingTime="0.00" waitingCount="0" stopTime="0.00" timeLoss="10.30" rerouteNo="0" devices="tripinfo_flow_route_52_duration_20250327_1930.3" vType="car" speedFactor="0.85" vaporized=""/>
    <tripinfo id="flow_route_58_duration_20250327_1930.0" depart="0.00" departLane="186407685_0" departPos="1.07" departSpeed="0.00" departDelay="0.00" arrival="84.00" arrivalLane="-138002006#3_1" arrivalPos="43.63" arrivalSpeed="10.34" duration="84.00" routeLength="235.82" waitingTime="49.00" waitingCount="1" stopTime="0.00" timeLoss="68.79" rerouteNo="0" devices="tripinfo_flow_route_58_duration_20250327_1930.0" vType="car" speedFactor="1.08" vaporized=""/>
    <tripinfo id="flow_route_59_duration_20250327_1930.5" depart="18.00" departLane="186407685_0" departPos="122.46" departSpeed="0.00" departDelay="1.34" arrival="87.00" arrivalLane="1369578052#0_0" arrivalPos="16.41" arrivalSpeed="7.09" duration="69.00" routeLength="80.06" waitingTime="47.00" waitingCount="1" stopTime="0.00" timeLoss="62.90" rerouteNo="0" devices="tripinfo_flow_route_59_duration_20250327_1930.5" vType="car" speedFactor="0.97" vaporized=""/>
    <tripinfo id="flow_route_59_duration_20250327_1930.2" depart="7.00" departLane="186407685_0" departPos="166.28" departSpeed="0.00" departDelay="0.33" arrival="90.00" arrivalLane="1369578052#0_0" arrivalPos="116.77" arrivalSpeed="14.45" duration="83.00" routeLength="136.60" waitingTime="59.00" waitingCount="1" stopTime="0.00" timeLoss="73.47" rerouteNo="0" devices="tripinfo_flow_route_59_duration_20250327_1930.2" vType="car" speedFactor="1.03" vaporized=""/>
    <tripinfo id="flow_route_59_duration_20250327_1930.0" depart="0.00" departLane="186407685_0" departPos="119.17" departSpeed="0.00" departDelay="0.00" arrival="92.00" arrivalLane="1369578052#0_0" arrivalPos="108.75" arrivalSpeed="13.99" duration="92.00" routeLength="175.69" waitingTime="58.00" waitingCount="1" stopTime="0.00" timeLoss="79.95" rerouteNo="0" devices="tripinfo_flow_route_59_duration_20250327_1930.0" vType="car" speedFactor="1.03" vaporized=""/>
    <tripinfo id="flow_route_57_duration_20250327_1930.0" depart="0.00" departLane="186407685_0" departPos="131.94" departSpeed="0.00" departDelay="0.00" arrival="94.00" arrivalLane="380351865#0_1" arrivalPos="0.78" arrivalSpeed="11.22" duration="94.00" routeLength="205.45" waitingTime="59.00" waitingCount="1" stopTime="0.00" timeLoss="77.04" rerouteNo="0" devices="tripinfo_flow_route_57_duration_20250327_1930.0" vType="car" speedFactor="1.01" vaporized=""/>
    <tripinfo id="flow_route_59_duration_20250327_1930.4" depart="15.00" departLane="186407685_0" departPos="39.51" departSpeed="0.00" departDelay="1.67" arrival="95.00" arrivalLane="1369578052#0_0" arrivalPos="61.07" arrivalSpeed="11.05" duration="80.00" routeLength="207.67" waitingTime="42.00" waitingCount="1" stopTime="0.00" timeLoss="65.78" rerouteNo="0" devices="tripinfo_flow_route_59_duration_20250327_1930.4" vType="car" speedFactor="0.94" vaporized=""/>
    <tripinfo id="flow_route_59_duration_20250327_1930.1" depart="4.00" departLane="186407685_0" departPos="57.01" departSpeed="0.00" departDelay="0.67" arrival="97.00" arrivalLane="1369578052#0_0" arrivalPos="161.40" arrivalSpeed="15.42" duration="93.00" routeLength="290.50" waitingTime="52.00" waitingCount="1" stopTime="0.00" timeLoss="74.08" rerouteNo="0" devices="tripinfo_flow_route_59_duration_20250327_1930.1" vType="car" speedFactor="0.94" vaporized=""/>
    <tripinfo id="flow_route_59_duration_20250327_1930.3" depart="10.00" departLane="186407685_0" departPos="5.74" departSpeed="0.00" departDelay="0.00" arrival="98.00" arrivalLane="1369578052#0_0" arrivalPos="73.10" arrivalSpeed="11.72" duration="88.00" routeLength="253.47" waitingTime="42.00" waitingCount="1" stopTime="0.00" timeLoss="72.03" rerouteNo="0" devices="tripinfo_flow_route_59_duration_20250327_1930.3" vType="car" speedFactor="1.12" vaporized=""/>
    <tripinfo id="flow_route_59_duration_20250327_1930.10" depart="34.00" departLane="186407685_0" departPos="110.71" departSpeed="0.00" departDelay="0.67" arrival="99.00" arrivalLane="1369578052#0_0" arrivalPos="55.80" arrivalSpeed="12.04" duration="65.00" routeLength="131.20" waitingTime="36.00" waitingCount="1" stopTime="0.00" timeLoss="55.84" rerouteNo="0" devices="tripinfo_flow_route_59_duration_20250327_1930.10" vType="car" speedFactor="1.10" vaporized=""/>
    <tripinfo id="flow_route_59_duration_20250327_1930.7" depart="25.00" departLane="186407685_0" departPos="55.58" departSpeed="0.00" departDelay="1.67" arrival="101.00" arrivalLane="1369578052#0_0" arrivalPos="51.40" arrivalSpeed="9.95" duration="76.00" routeLength="181.93" waitingTime="34.00" waitingCount="1" stopTime="0.00" timeLoss="64.26" rerouteNo="0" devices="tripinfo_flow_route_59_duration_20250327_1930.7" vType="car" speedFactor="0.95" vaporized=""/>
    <tripinfo id="flow_route_59_duration_20250327_1930.8" depart="27.00" departLane="186407685_0" departPos="8.29" departSpeed="0.00" departDelay="0.34" arrival="105.00" arrivalLane="1369578052#0_0" arrivalPos="33.30" arrivalSpeed="9.23" duration="78.00" routeLength="211.12" waitingTime="34.00" waitingCount="1" stopTime="0.00" timeLoss="64.29" rerouteNo="0" devices="tripinfo_flow_route_59_duration_20250327_1930.8" vType="car" speedFactor="1.15" vaporized=""/>
    <tripinfo id="flow_route_59_duration_20250327_1930.12" depart="43.00" departLane="186407685_0" departPos="61.01" departSpeed="0.00" departDelay="3.00" arrival="107.00" arrivalLane="1369578052#0_0" arrivalPos="26.02" arrivalSpeed="8.84" duration="64.00" routeLength="151.12" waitingTime="29.00" waitingCount="1" stopTime="0.00" timeLoss="53.86" rerouteNo="0" devices="tripinfo_flow_route_59_duration_20250327_1930.12" vType="car" speedFactor="1.04" vaporized=""/>
    <tripinfo id="flow_route_59_duration_20250327_1930.6" depart="20.00" departLane="186407685_0" departPos="32.47" departSpeed="0.00" departDelay="0.00" arrival="109.00" arrivalLane="1369578052#0_0" arrivalPos="90.80" arrivalSpeed="12.66" duration="89.00" routeLength="244.44" waitingTime="36.00" waitingCount="2" stopTime="0.00" timeLoss="71.72" rerouteNo="0" devices="tripinfo_flow_route_59_duration_20250327_1930.6" vType="car" speedFactor="0.83" vaporized=""/>
    <tripinfo id="flow_route_59_duration_20250327_1930.9" depart="33.00" departLane="186407685_0" departPos="4.22" departSpeed="0.00" departDelay="3.00" arrival="110.00" arrivalLane="1369578052#0_0" arrivalPos="39.15" arrivalSpeed="10.02" duration="77.00" routeLength="221.03" waitingTime="28.00" waitingCount="1" stopTime="0.00" timeLoss="62.85" rerouteNo="0" devices="tripinfo_flow_route_59_duration_20250327_1930.9" vType="car" speedFactor="1.02" vaporized=""/>
    <tripinfo id="flow_route_59_duration_20250327_1930.11" depart="42.00" departLane="186407685_0" departPos="27.19" departSpeed="0.00" departDelay="5.34" arrival="114.00" arrivalLane="1369578052#0_0" arrivalPos="54.62" arrivalSpeed="11.59" duration="72.00" routeLength="213.54" waitingTime="27.00" waitingCount="1" stopTime="0.00" timeLoss="57.64" rerouteNo="0" devices="tripinfo_flow_route_59_duration_20250327_1930.11" vType="car" speedFactor="1.09" vaporized=""/>
    <tripinfo id="flow_route_66_duration_20250327_1930.2" depart="24.00" departLane="-138002002#2_0" departPos="12.34" departSpeed="0.00" departDelay="0.00" arrival="124.00" arrivalLane="-138002006#3_1" arrivalPos="48.54" arrivalSpeed="11.21" duration="100.00" routeLength="239.59" waitingTime="64.00" waitingCount="1" stopTime="0.00" timeLoss="85.24" rerouteNo="0" devices="tripinfo_flow_route_66_duration_20250327_1930.2" vType="car" speedFactor="1.13" vaporized=""/>
    <tripinfo id="flow_route_66_duration_20250327_1930.1" depart="12.00" departLane="-138002002#2_0" departPos="5.49" departSpeed="0.00" departDelay="0.00" arrival="125.00" arrivalLane="-138002006#3_0" arrivalPos="84.93" arrivalSpeed="12.46" duration="113.00" routeLength="282.82" waitingTime="72.00" waitingCount="1" stopTime="0.00" timeLoss="93.62" rerouteNo="0" devices="tripinfo_flow_route_66_duration_20250327_1930.1" vType="car" speedFactor="0.88" vaporized=""/>
    <tripinfo id="flow_route_66_duration_20250327_1930.4" depart="48.00" departLane="-138002002#2_0" departPos="63.71" departSpeed="0.00" departDelay="0.00" arrival="128.00" arrivalLane="-138002006#3_1" arrivalPos="42.85" arrivalSpeed="11.60" duration="80.00" routeLength="182.54" waitingTime="46.00" waitingCount="1" stopTime="0.00" timeLoss="68.61" rerouteNo="0" devices="tripinfo_flow_route_66_duration_20250327_1930.4" vType="car" speedFactor="1.10" vaporized=""/>
    <tripinfo id="flow_route_53_duration_20250327_1930.21" depart="65.00" departLane="138002006#0_0" departPos="70.40" departSpeed="0.00" departDelay="7.73" arrival="128.00" arrivalLane="1369578052#0_0" arrivalPos="106.83" arrivalSpeed="13.88" duration="63.00" routeLength="144.36" waitingTime="36.00" waitingCount="1" stopTime="0.00" timeLoss="53.83" rerouteNo="0" devices="tripinfo_flow_route_53_duration_20250327_1930.21" vType="car" speedFactor="1.02" vaporized=""/>
    <tripinfo id="flow_route_66_duration_20250327_1930.3" depart="38.00" departLane="-138002002#2_0" departPos="121.91" departSpeed="0.00" departDelay="2.00" arrival="129.00" arrivalLane="-138002006#3_1" arrivalPos="77.58" arrivalSpeed="13.35" duration="91.00" routeLength="159.06" waitingTime="61.00" waitingCount="1" stopTime="0.00" timeLoss="80.53" rerouteNo="0" devices="tripinfo_flow_route_66_duration_20250327_1930.3" vType="car" speedFactor="0.96" vaporized=""/>
    <tripinfo id="flow_route_67_duration_20250327_1930.2" depart="10.00" departLane="-138002002#2_0" departPos="55.59" departSpeed="0.00" departDelay="0.00" arrival="131.00" arrivalLane="380351865#0_0" arrivalPos="9.29" arrivalSpeed="10.93" duration="121.00" routeLength="286.75" waitingTime="71.00" waitingCount="1" stopTime="0.00" timeLoss="97.90" rerouteNo="0" devices="tripinfo_flow_route_67_duration_20250327_1930.2" vType="car" speedFactor="0.99" vaporized=""/>
    <tripinfo id="flow_route_53_duration_20250327_1930.20" depart="63.00" departLane="138002006#0_0" departPos="16.91" departSpeed="0.00" departDelay="8.46" arrival="131.00" arrivalLane="1369578052#0_1" arrivalPos="155.51" arrivalSpeed="15.91" duration="68.00" routeLength="246.52" waitingTime="32.00" waitingCount="1" stopTime="0.00" timeLoss="51.82" rerouteNo="0" devices="tripinfo_flow_route_53_duration_20250327_1930.20" vType="car" speedFactor="0.97" vaporized=""/>
    <tripinfo id="flow_route_67_duration_20250327_1930.1" depart="5.00" departLane="-138002002#2_0" departPos="8.51" departSpeed="0.00" departDelay="0.00" arrival="134.00" arrivalLane="380351865#0_0" arrivalPos="11.67" arrivalSpeed="9.07" duration="129.00" routeLength="336.21" waitingTime="71.00" waitingCount="1" stopTime="0.00" timeLoss="99.25" rerouteNo="0" devices="tripinfo_flow_route_67_duration_20250327_1930.1" vType="car" speedFactor="0.86" vaporized=""/>
    <tripinfo id="flow_route_67_duration_20250327_1930.3" depart="15.00" departLane="-138002002#2_0" departPos="30.94" departSpeed="0.00" departDelay="0.00" arrival="136.00" arrivalLane="380351865#0_0" arrivalPos="16.46" arrivalSpeed="10.85" duration="121.00" routeLength="318.58" waitingTime="71.00" waitingCount="1" stopTime="0.00" timeLoss="96.63" rerouteNo="0" devices="tripinfo_flow_route_67_duration_20250327_1930.3" vType="car" speedFactor="1.02" vaporized=""/>
    <tripinfo id="flow_route_67_duration_20250327_1930.7" depart="35.00" departLane="-138002002#2_0" departPos="130.93" departSpeed="0.00" departDelay="0.00" arrival="138.00" arrivalLane="380351865#0_0" arrivalPos="15.79" arrivalSpeed="9.80" duration="103.00" routeLength="217.91" waitingTime="67.00" waitingCount="1" stopTime="0.00" timeLoss="82.19" rerouteNo="0" devices="tripinfo_flow_route_67_duration_20250327_1930.7" vType="car" speedFactor="0.90" vaporized=""/>
    <tripinfo id="flow_route_67_duration_20250327_1930.9" depart="46.00" departLane="-138002002#2_0" departPos="151.25" departSpeed="0.00" departDelay="1.00" arrival="142.00" arrivalLane="380351865#0_0" arrivalPos="11.62" arrivalSpeed="9.50" duration="96.00" routeLength="193.42" waitingTime="64.00" waitingCount="1" stopTime="0.00" timeLoss="75.28" rerouteNo="0" devices="tripinfo_flow_route_67_duration_20250327_1930.9" vType="car" speedFactor="0.85" vaporized=""/>
    <tripinfo id="flow_route_67_duration_20250327_1930.6" depart="30.00" departLane="-138002002#2_0" departPos="71.80" departSpeed="0.00" departDelay="0.00" arrival="144.00" arrivalLane="380351865#0_0" arrivalPos="11.59" arrivalSpeed="10.21" duration="114.00" routeLength="272.84" waitingTime="64.00" waitingCount="1" stopTime="0.00" timeLoss="90.61" rerouteNo="0" devices="tripinfo_flow_route_67_duration_20250327_1930.6" vType="car" speedFactor="0.97" vaporized=""/>
    <tripinfo id="flow_route_67_duration_20250327_1930.5" depart="26.00" departLane="-138002002#2_0" departPos="38.16" departSpeed="0.00" departDelay="1.00" arrival="146.00" arrivalLane="380351865#0_0" arrivalPos="16.94" arrivalSpeed="11.00" duration="120.00" routeLength="311.83" waitingTime="63.00" waitingCount="1" stopTime="0.00" timeLoss="97.74" rerouteNo="0" devices="tripinfo_flow_route_67_duration_20250327_1930.5" vType="car" speedFactor="1.18" vaporized=""/>
    <tripinfo id="flow_route_67_duration_20250327_1930.8" depart="40.00" departLane="-138002002#2_0" departPos="7.85" departSpeed="0.00" departDelay="0.00" arrival="147.00" arrivalLane="380351865#0_0" arrivalPos="15.06" arrivalSpeed="10.95" duration="107.00" routeLength="340.26" waitingTime="51.00" waitingCount="1" stopTime="0.00" timeLoss="82.45" rerouteNo="0" devices="tripinfo_flow_route_67_duration_20250327_1930.8" vType="car" speedFactor="1.09" vaporized=""/>
    <tripinfo id="flow_route_67_duration_20250327_1930.11" depart="55.00" departLane="-138002002#2_0" departPos="59.58" departSpeed="0.00" departDelay="0.00" arrival="148.00" arrivalLane="380351865#0_0" arrivalPos="5.68" arrivalSpeed="11.15" duration="93.00" routeLength="279.15" waitingTime="46.00" waitingCount="1" stopTime="0.00" timeLoss="72.10" rerouteNo="0" devices="tripinfo_flow_route_67_duration_20250327_1930.11" vType="car" speedFactor="1.08" vaporized=""/>
    <tripinfo id="flow_route_67_duration_20250327_1930.10" depart="50.00" departLane="-138002002#2_0" departPos="2.15" departSpeed="0.00" departDelay="0.00" arrival="151.00" arrivalLane="380351865#0_0" arrivalPos="0.01" arrivalSpeed="9.65" duration="101.00" routeLength="330.92" waitingTime="47.00" waitingCount="1" stopTime="0.00" timeLoss="72.36" rerouteNo="0" devices="tripinfo_flow_route_67_duration_20250327_1930.10" vType="car" speedFactor="0.90" vaporized=""/>
    <tripinfo id="flow_route_59_duration_20250327_1930.13" depart="47.00" departLane="186407685_0" departPos="2.59" departSpeed="0.00" departDelay="3.67" arrival="200.00" arrivalLane="1369578052#0_0" arrivalPos="79.42" arrivalSpeed="11.14" duration="153.00" routeLength="262.94" waitingTime="95.00" waitingCount="2" stopTime="0.00" timeLoss="135.45" rerouteNo="0" devices="tripinfo_flow_route_59_duration_20250327_1930.13" vType="car" speedFactor="0.88" vaporized=""/>
    <tripinfo id="flow_route_59_duration_20250327_1930.14" depart="48.00" departLane="186407685_0" departPos="29.66" departSpeed="0.00" departDelay="1.34" arrival="200.00" arrivalLane="1369578052#0_0" arrivalPos="101.24" arrivalSpeed="13.08" duration="152.00" routeLength="257.69" waitingTime="96.00" waitingCount="2" stopTime="0.00" timeLoss="135.18" rerouteNo="0" devices="tripinfo_flow_route_59_duration_20250327_1930.14" vType="car" speedFactor="1.02" vaporized=""/>
    <tripinfo id="flow_route_59_duration_20250327_1930.15" depart="58.00" departLane="186407685_0" departPos="22.93" departSpeed="0.00" departDelay="8.01" arrival="203.00" arrivalLane="1369578052#0_0" arrivalPos="62.46" arrivalSpeed="11.14" duration="145.00" routeLength="225.64" waitingTime="89.00" waitingCount="2" stopTime="0.00" timeLoss="129.92" rerouteNo="0" devices="tripinfo_flow_route_59_duration_20250327_1930.15" vType="car" speedFactor="1.00" vaporized=""/>
    <tripinfo id="flow_route_59_duration_20250327_1930.17" depart="67.00" departLane="186407685_0" departPos="14.98" departSpeed="0.00" departDelay="10.34" arrival="205.00" arrivalLane="1369578052#0_0" arrivalPos="67.56" arrivalSpeed="11.17" duration="138.00" routeLength="238.69" waitingTime="84.00" waitingCount="2" stopTime="0.00" timeLoss="122.57" rerouteNo="0" devices="tripinfo_flow_route_59_duration_20250327_1930.17" vType="car" speedFactor="1.12" vaporized=""/>