<?xml version="1.0" encoding="UTF-8"?>

<!-- generated on 2025-05-06 21:07:55 by Eclipse SUMO sumo Version 1.20.0
<configuration xmlns:xsi="http://www.w3.org/2001/XMLSchema-instance" xsi:noNamespaceSchemaLocation="http://sumo.dlr.de/xsd/sumoConfiguration.xsd">

    <input>
        <net-file value="osm.net.xml"/>
        <route-files value="xml/route_static_cluster_11648561428_407729599_1.rou.xml"/>
    </input>

    <output>
        <tripinfo-output value="xml/tripinfo_static_cluster_11648561428_407729599_1.xml"/>
    </output>

    <traci_server>
        <remote-port value="49337"/>
    </traci_server>

</configuration>
-->

<tripinfos xmlns:xsi="http://www.w3.org/2001/XMLSchema-instance" xsi:noNamespaceSchemaLocation="http://sumo.dlr.de/xsd/tripinfo_file.xsd">
    <tripinfo id="flow_route_106_duration_20250327_2220.0" depart="0.00" departLane="1254519229#0_0" departPos="19.69" departSpeed="0.00" departDelay="0.00" arrival="17.00" arrivalLane="430416184_1" arrivalPos="13.15" arrivalSpeed="9.70" duration="17.00" routeLength="94.14" waitingTime="0.00" waitingCount="0" stopTime="0.00" timeLoss="10.35" rerouteNo="0" devices="tripinfo_flow_route_106_duration_20250327_2220.0" vType="car" speedFactor="1.01" vaporized=""/>
    <tripinfo id="flow_route_107_duration_20250327_2220.0" depart="0.00" departLane="1254519229#0_0" departPos="43.39" departSpeed="0.00" departDelay="0.00" arrival="20.00" arrivalLane="1342963997_0" arrivalPos="88.24" arrivalSpeed="14.75" duration="20.00" routeLength="145.44" waitingTime="0.00" waitingCount="0" stopTime="0.00" timeLoss="10.92" rerouteNo="0" devices="tripinfo_flow_route_107_duration_20250327_2220.0" vType="car" speedFactor="1.08" vaporized=""/>
    <tripinfo id="flow_route_106_duration_20250327_2220.1" depart="10.00" departLane="1254519229#0_0" departPos="53.55" departSpeed="0.00" departDelay="0.00" arrival="23.00" arrivalLane="430416184_1" arrivalPos="1.75" arrivalSpeed="7.41" duration="13.00" routeLength="48.87" waitingTime="0.00" waitingCount="0" stopTime="0.00" timeLoss="8.57" rerouteNo="0" devices="tripinfo_flow_route_106_duration_20250327_2220.1" vType="car" speedFactor="0.83" vaporized=""/>
    <tripinfo id="flow_route_107_duration_20250327_2220.1" depart="12.00" departLane="1254519229#0_0" departPos="35.97" departSpeed="0.00" departDelay="0.00" arrival="32.00" arrivalLane="1342963997_0" arrivalPos="83.70" arrivalSpeed="15.12" duration="20.00" routeLength="148.31" waitingTime="0.00" waitingCount="0" stopTime="0.00" timeLoss="10.37" rerouteNo="0" devices="tripinfo_flow_route_107_duration_20250327_2220.1" vType="car" speedFactor="1.05" vaporized=""/>
    <tripinfo id="flow_route_101_duration_20250327_2220.0" depart="0.00" departLane="186409193_0" departPos="43.42" departSpeed="0.00" departDelay="0.00" arrival="34.00" arrivalLane="430416184_0" arrivalPos="206.05" arrivalSpeed="16.21" duration="34.00" routeLength="297.12" waitingTime="0.00" waitingCount="0" stopTime="0.00" timeLoss="14.79" rerouteNo="0" devices="tripinfo_flow_route_101_duration_20250327_2220.0" vType="car" speedFactor="0.94" vaporized=""/>
    <tripinfo id="flow_route_100_duration_20250327_2220.0" depart="0.00" departLane="186409193_0" departPos="2.55" departSpeed="0.00" departDelay="0.00" arrival="42.00" arrivalLane="1254519229#0_1" arrivalPos="70.90" arrivalSpeed="0.15" duration="42.00" routeLength="299.97" waitingTime="0.00" waitingCount="0" stopTime="0.00" timeLoss="23.25" rerouteNo="0" devices="tripinfo_flow_route_100_duration_20250327_2220.0" vType="car" speedFactor="1.06" vaporized=""/>
    <tripinfo id="flow_route_106_duration_20250327_2220.2" depart="21.00" departLane="1254519229#0_0" departPos="25.62" departSpeed="0.00" departDelay="1.00" arrival="44.00" arrivalLane="430416184_1" arrivalPos="76.50" arrivalSpeed="13.72" duration="23.00" routeLength="151.56" waitingTime="0.00" waitingCount="0" stopTime="0.00" timeLoss="12.39" rerouteNo="0" devices="tripinfo_flow_route_106_duration_20250327_2220.2" vType="car" speedFactor="0.94" vaporized=""/>
    <tripinfo id="flow_route_149_duration_20250327_2220.0" depart="0.00" departLane="186410975#0_0" departPos="192.32" departSpeed="0.00" departDelay="0.00" arrival="61.00" arrivalLane="430416184_1" arrivalPos="170.61" arrivalSpeed="16.56" duration="61.00" routeLength="523.96" waitingTime="4.00" waitingCount="1" stopTime="0.00" timeLoss="25.07" rerouteNo="0" devices="tripinfo_flow_route_149_duration_20250327_2220.0" vType="car" speedFactor="1.03" vaporized=""/>
    <tripinfo id="flow_route_106_duration_20250327_2220.4" depart="40.00" departLane="1254519229#0_0" departPos="24.01" departSpeed="0.00" departDelay="0.00" arrival="71.00" arrivalLane="430416184_1" arrivalPos="68.46" arrivalSpeed="11.53" duration="31.00" routeLength="145.13" waitingTime="2.00" waitingCount="1" stopTime="0.00" timeLoss="21.28" rerouteNo="0" devices="tripinfo_flow_route_106_duration_20250327_2220.4" vType="car" speedFactor="1.12" vaporized=""/>
    <tripinfo id="flow_route_107_duration_20250327_2220.2" depart="24.00" departLane="1254519229#0_0" departPos="3.68" departSpeed="0.00" departDelay="0.00" arrival="72.00" arrivalLane="1342963997_0" arrivalPos="122.75" arrivalSpeed="14.95" duration="48.00" routeLength="219.65" waitingTime="13.00" waitingCount="1" stopTime="0.00" timeLoss="34.58" rerouteNo="0" devices="tripinfo_flow_route_107_duration_20250327_2220.2" vType="car" speedFactor="0.86" vaporized=""/>
    <tripinfo id="flow_route_101_duration_20250327_2220.1" depart="20.00" departLane="186409193_0" departPos="3.52" departSpeed="0.00" departDelay="0.00" arrival="74.00" arrivalLane="430416184_0" arrivalPos="163.76" arrivalSpeed="15.23" duration="54.00" routeLength="294.74" waitingTime="13.00" waitingCount="1" stopTime="0.00" timeLoss="34.31" rerouteNo="0" devices="tripinfo_flow_route_101_duration_20250327_2220.1" vType="car" speedFactor="0.89" vaporized=""/>
    <tripinfo id="flow_route_107_duration_20250327_2220.4" depart="48.00" departLane="1254519229#0_0" departPos="12.66" departSpeed="0.00" departDelay="0.00" arrival="74.00" arrivalLane="1342963997_1" arrivalPos="137.27" arrivalSpeed="16.50" duration="26.00" routeLength="225.19" waitingTime="0.00" waitingCount="0" stopTime="0.00" timeLoss="11.51" rerouteNo="0" devices="tripinfo_flow_route_107_duration_20250327_2220.4" vType="car" speedFactor="0.99" vaporized=""/>
    <tripinfo id="flow_route_106_duration_20250327_2220.3" depart="31.00" departLane="1254519229#0_0" departPos="50.41" departSpeed="0.00" departDelay="1.00" arrival="75.00" arrivalLane="430416184_1" arrivalPos="148.34" arrivalSpeed="15.77" duration="44.00" routeLength="198.62" waitingTime="13.00" waitingCount="1" stopTime="0.00" timeLoss="31.00" rerouteNo="0" devices="tripinfo_flow_route_106_duration_20250327_2220.3" vType="car" speedFactor="1.09" vaporized=""/>
    <tripinfo id="flow_route_101_duration_20250327_2220.2" depart="40.00" departLane="186409193_0" departPos="1.89" departSpeed="0.00" departDelay="0.00" arrival="76.00" arrivalLane="430416184_0" arrivalPos="157.41" arrivalSpeed="15.81" duration="36.00" routeLength="290.02" waitingTime="0.00" waitingCount="0" stopTime="0.00" timeLoss="16.57" rerouteNo="0" devices="tripinfo_flow_route_101_duration_20250327_2220.2" vType="car" speedFactor="1.05" vaporized=""/>
    <tripinfo id="flow_route_107_duration_20250327_2220.3" depart="38.00" departLane="1254519229#0_0" departPos="31.56" departSpeed="0.00" departDelay="2.00" arrival="77.00" arrivalLane="1342963997_0" arrivalPos="168.61" arrivalSpeed="16.46" duration="39.00" routeLength="237.64" waitingTime="5.00" waitingCount="1" stopTime="0.00" timeLoss="24.39" rerouteNo="0" devices="tripinfo_flow_route_107_duration_20250327_2220.3" vType="car" speedFactor="1.03" vaporized=""/>
    <tripinfo id="flow_route_106_duration_20250327_2220.5" depart="50.00" departLane="1254519229#0_0" departPos="2.37" departSpeed="0.00" departDelay="0.00" arrival="88.00" arrivalLane="430416184_1" arrivalPos="276.64" arrivalSpeed="16.22" duration="38.00" routeLength="374.94" waitingTime="0.00" waitingCount="0" stopTime="0.00" timeLoss="14.21" rerouteNo="0" devices="tripinfo_flow_route_106_duration_20250327_2220.5" vType="car" speedFactor="0.93" vaporized=""/>
</tripinfos>
