<?xml version="1.0" encoding="UTF-8"?>

<!-- generated on 2025-05-06 21:09:13 by Eclipse SUMO sumo Version 1.20.0
<configuration xmlns:xsi="http://www.w3.org/2001/XMLSchema-instance" xsi:noNamespaceSchemaLocation="http://sumo.dlr.de/xsd/sumoConfiguration.xsd">

    <input>
        <net-file value="osm.net.xml"/>
        <route-files value="xml/route_rl_cluster_4110471701_632031939_9.rou.xml"/>
    </input>

    <output>
        <tripinfo-output value="xml/tripinfo_rl_cluster_4110471701_632031939_9.xml"/>
    </output>

    <traci_server>
        <remote-port value="41981"/>
    </traci_server>

</configuration>
-->

<tripinfos xmlns:xsi="http://www.w3.org/2001/XMLSchema-instance" xsi:noNamespaceSchemaLocation="http://sumo.dlr.de/xsd/tripinfo_file.xsd">
    <tripinfo id="flow_route_83_duration_20250327_2040.0" depart="0.00" departLane="423956929_0" departPos="101.16" departSpeed="0.00" departDelay="0.00" arrival="17.00" arrivalLane="186407685_0" arrivalPos="8.05" arrivalSpeed="6.86" duration="17.00" routeLength="101.45" waitingTime="0.00" waitingCount="0" stopTime="0.00" timeLoss="10.18" rerouteNo="0" devices="tripinfo_flow_route_83_duration_20250327_2040.0" vType="car" speedFactor="1.01" vaporized=""/>
    <tripinfo id="flow_route_62_duration_20250327_2040.0" depart="0.00" departLane="409155823_0" departPos="65.43" departSpeed="0.00" departDelay="0.00" arrival="23.00" arrivalLane="1091883842_0" arrivalPos="165.47" arrivalSpeed="16.29" duration="23.00" routeLength="205.45" waitingTime="0.00" waitingCount="0" stopTime="0.00" timeLoss="10.50" rerouteNo="0" devices="tripinfo_flow_route_62_duration_20250327_2040.0" vType="car" speedFactor="1.06" vaporized=""/>
    <tripinfo id="flow_route_82_duration_20250327_2040.0" depart="0.00" departLane="423956929_0" departPos="45.92" departSpeed="0.00" departDelay="0.00" arrival="24.00" arrivalLane="186407684#0_0" arrivalPos="62.79" arrivalSpeed="15.18" duration="24.00" routeLength="219.95" waitingTime="0.00" waitingCount="0" stopTime="0.00" timeLoss="8.99" rerouteNo="0" devices="tripinfo_flow_route_82_duration_20250327_2040.0" vType="car" speedFactor="0.94" vaporized=""/>
    <tripinfo id="flow_route_62_duration_20250327_2040.1" depart="20.00" departLane="409155823_0" departPos="72.56" departSpeed="0.00" departDelay="0.00" arrival="36.00" arrivalLane="1091883842_0" arrivalPos="57.02" arrivalSpeed="11.95" duration="16.00" routeLength="89.87" waitingTime="0.00" waitingCount="0" stopTime="0.00" timeLoss="9.98" rerouteNo="0" devices="tripinfo_flow_route_62_duration_20250327_2040.1" vType="car" speedFactor="1.03" vaporized=""/>
    <tripinfo id="flow_route_83_duration_20250327_2040.1" depart="20.00" departLane="423956929_0" departPos="164.68" departSpeed="0.00" departDelay="0.00" arrival="39.00" arrivalLane="186407685_0" arrivalPos="112.17" arrivalSpeed="14.28" duration="19.00" routeLength="142.05" waitingTime="0.00" waitingCount="0" stopTime="0.00" timeLoss="9.29" rerouteNo="0" devices="tripinfo_flow_route_83_duration_20250327_2040.1" vType="car" speedFactor="1.05" vaporized=""/>
    <tripinfo id="flow_route_88_duration_20250327_2040.0" depart="0.00" departLane="430416184_0" departPos="194.63" departSpeed="0.00" departDelay="0.00" arrival="48.00" arrivalLane="186407684#0_1" arrivalPos="3.84" arrivalSpeed="8.09" duration="48.00" routeLength="126.85" waitingTime="20.00" waitingCount="1" stopTime="0.00" timeLoss="38.33" rerouteNo="0" devices="tripinfo_flow_route_88_duration_20250327_2040.0" vType="car" speedFactor="0.83" vaporized=""/>
    <tripinfo id="flow_route_87_duration_20250327_2040.1" depart="10.00" departLane="430416184_0" departPos="76.50" departSpeed="0.00" departDelay="0.00" arrival="48.00" arrivalLane="1091883842_0" arrivalPos="105.16" arrivalSpeed="13.41" duration="38.00" routeLength="329.12" waitingTime="0.00" waitingCount="0" stopTime="0.00" timeLoss="16.15" rerouteNo="0" devices="tripinfo_flow_route_87_duration_20250327_2040.1" vType="car" speedFactor="0.89" vaporized=""/>
    <tripinfo id="flow_route_88_duration_20250327_2040.2" depart="11.00" departLane="430416184_0" departPos="253.21" departSpeed="0.00" departDelay="0.09" arrival="50.00" arrivalLane="186407684#0_1" arrivalPos="5.31" arrivalSpeed="8.85" duration="39.00" routeLength="69.73" waitingTime="18.00" waitingCount="1" stopTime="0.00" timeLoss="33.53" rerouteNo="0" devices="tripinfo_flow_route_88_duration_20250327_2040.2" vType="car" speedFactor="0.94" vaporized=""/>
    <tripinfo id="flow_route_87_duration_20250327_2040.0" depart="0.00" departLane="430416184_0" departPos="1.75" departSpeed="0.00" departDelay="0.00" arrival="51.00" arrivalLane="1091883842_0" arrivalPos="109.56" arrivalSpeed="14.10" duration="51.00" routeLength="408.27" waitingTime="0.00" waitingCount="0" stopTime="0.00" timeLoss="24.65" rerouteNo="0" devices="tripinfo_flow_route_87_duration_20250327_2040.0" vType="car" speedFactor="1.03" vaporized=""/>
    <tripinfo id="flow_route_86_duration_20250327_2040.0" depart="0.00" departLane="430416184_0" departPos="215.48" departSpeed="0.00" departDelay="0.00" arrival="54.00" arrivalLane="186407685_1" arrivalPos="87.02" arrivalSpeed="13.43" duration="54.00" routeLength="195.42" waitingTime="21.00" waitingCount="1" stopTime="0.00" timeLoss="41.81" rerouteNo="0" devices="tripinfo_flow_route_86_duration_20250327_2040.0" vType="car" speedFactor="1.08" vaporized=""/>
    <tripinfo id="flow_route_86_duration_20250327_2040.1" depart="15.00" departLane="430416184_0" departPos="197.69" departSpeed="0.00" departDelay="0.00" arrival="57.00" arrivalLane="186407685_1" arrivalPos="57.01" arrivalSpeed="13.17" duration="42.00" routeLength="183.20" waitingTime="9.00" waitingCount="1" stopTime="0.00" timeLoss="30.69" rerouteNo="0" devices="tripinfo_flow_route_86_duration_20250327_2040.1" vType="car" speedFactor="0.86" vaporized=""/>
    <tripinfo id="flow_route_88_duration_20250327_2040.3" depart="17.00" departLane="430416184_0" departPos="148.34" departSpeed="0.00" departDelay="0.64" arrival="57.00" arrivalLane="186407684#0_1" arrivalPos="4.07" arrivalSpeed="10.23" duration="40.00" routeLength="173.36" waitingTime="6.00" waitingCount="1" stopTime="0.00" timeLoss="28.39" rerouteNo="0" devices="tripinfo_flow_route_88_duration_20250327_2040.3" vType="car" speedFactor="1.09" vaporized=""/>
    <tripinfo id="flow_route_88_duration_20250327_2040.1" depart="6.00" departLane="430416184_0" departPos="130.75" departSpeed="0.00" departDelay="0.55" arrival="58.00" arrivalLane="186407684#0_1" arrivalPos="41.08" arrivalSpeed="11.70" duration="52.00" routeLength="227.97" waitingTime="7.00" waitingCount="1" stopTime="0.00" timeLoss="37.46" rerouteNo="0" devices="tripinfo_flow_route_88_duration_20250327_2040.1" vType="car" speedFactor="1.05" vaporized=""/>
    <tripinfo id="flow_route_88_duration_20250327_2040.7" depart="39.00" departLane="430416184_0" departPos="234.74" departSpeed="0.00" departDelay="0.82" arrival="60.00" arrivalLane="186407684#0_1" arrivalPos="21.27" arrivalSpeed="11.14" duration="21.00" routeLength="104.17" waitingTime="0.00" waitingCount="0" stopTime="0.00" timeLoss="14.16" rerouteNo="0" devices="tripinfo_flow_route_88_duration_20250327_2040.7" vType="car" speedFactor="1.16" vaporized=""/>
    <tripinfo id="flow_route_88_duration_20250327_2040.4" depart="22.00" departLane="430416184_0" departPos="87.27" departSpeed="0.00" departDelay="0.18" arrival="62.00" arrivalLane="186407684#0_1" arrivalPos="20.86" arrivalSpeed="11.88" duration="40.00" routeLength="251.23" waitingTime="3.00" waitingCount="1" stopTime="0.00" timeLoss="23.64" rerouteNo="0" devices="tripinfo_flow_route_88_duration_20250327_2040.4" vType="car" speedFactor="0.99" vaporized=""/>
    <tripinfo id="flow_route_87_duration_20250327_2040.3" depart="34.00" departLane="430416184_0" departPos="76.37" departSpeed="0.00" departDelay="4.00" arrival="62.00" arrivalLane="1091883842_0" arrivalPos="5.54" arrivalSpeed="7.17" duration="28.00" routeLength="229.62" waitingTime="0.00" waitingCount="0" stopTime="0.00" timeLoss="13.57" rerouteNo="0" devices="tripinfo_flow_route_87_duration_20250327_2040.3" vType="car" speedFactor="0.94" vaporized=""/>
    <tripinfo id="flow_route_87_duration_20250327_2040.4" depart="40.00" departLane="430416184_0" departPos="270.41" departSpeed="0.00" departDelay="0.00" arrival="62.00" arrivalLane="1091883842_0" arrivalPos="132.89" arrivalSpeed="15.89" duration="22.00" routeLength="162.93" waitingTime="0.00" waitingCount="0" stopTime="0.00" timeLoss="10.24" rerouteNo="0" devices="tripinfo_flow_route_87_duration_20250327_2040.4" vType="car" speedFactor="0.97" vaporized=""/>
    <tripinfo id="flow_route_88_duration_20250327_2040.6" depart="36.00" departLane="430416184_0" departPos="165.30" departSpeed="0.00" departDelay="3.28" arrival="66.00" arrivalLane="186407684#0_1" arrivalPos="36.25" arrivalSpeed="12.49" duration="30.00" routeLength="188.58" waitingTime="0.00" waitingCount="0" stopTime="0.00" timeLoss="16.75" rerouteNo="0" devices="tripinfo_flow_route_88_duration_20250327_2040.6" vType="car" speedFactor="0.94" vaporized=""/>
    <tripinfo id="flow_route_88_duration_20250327_2040.5" depart="28.00" departLane="430416184_0" departPos="46.01" departSpeed="0.00" departDelay="0.73" arrival="72.00" arrivalLane="186407684#0_1" arrivalPos="67.38" arrivalSpeed="14.01" duration="44.00" routeLength="338.99" waitingTime="0.00" waitingCount="0" stopTime="0.00" timeLoss="21.50" rerouteNo="0" devices="tripinfo_flow_route_88_duration_20250327_2040.5" vType="car" speedFactor="0.93" vaporized=""/>
    <tripinfo id="flow_route_86_duration_20250327_2040.3" depart="45.00" departLane="430416184_0" departPos="167.75" departSpeed="0.00" departDelay="0.00" arrival="75.00" arrivalLane="186407685_1" arrivalPos="87.22" arrivalSpeed="16.32" duration="30.00" routeLength="243.35" waitingTime="0.00" waitingCount="0" stopTime="0.00" timeLoss="14.44" rerouteNo="0" devices="tripinfo_flow_route_86_duration_20250327_2040.3" vType="car" speedFactor="0.83" vaporized=""/>
    <tripinfo id="flow_route_86_duration_20250327_2040.2" depart="31.00" departLane="430416184_0" departPos="95.81" departSpeed="0.00" departDelay="1.00" arrival="76.00" arrivalLane="186407685_1" arrivalPos="169.38" arrivalSpeed="16.46" duration="45.00" routeLength="397.45" waitingTime="0.00" waitingCount="0" stopTime="0.00" timeLoss="20.28" rerouteNo="0" devices="tripinfo_flow_route_86_duration_20250327_2040.2" vType="car" speedFactor="0.88" vaporized=""/>
    <tripinfo id="flow_route_87_duration_20250327_2040.2" depart="22.00" departLane="430416184_0" departPos="9.37" departSpeed="0.00" departDelay="2.00" arrival="77.00" arrivalLane="1091883842_0" arrivalPos="174.39" arrivalSpeed="16.29" duration="55.00" routeLength="465.46" waitingTime="0.00" waitingCount="0" stopTime="0.00" timeLoss="26.00" rerouteNo="0" devices="tripinfo_flow_route_87_duration_20250327_2040.2" vType="car" speedFactor="1.12" vaporized=""/>
    <tripinfo id="flow_route_88_duration_20250327_2040.8" depart="44.00" departLane="430416184_0" departPos="89.01" departSpeed="0.00" departDelay="0.37" arrival="78.00" arrivalLane="186407684#0_1" arrivalPos="84.60" arrivalSpeed="14.61" duration="34.00" routeLength="313.22" waitingTime="0.00" waitingCount="0" stopTime="0.00" timeLoss="12.70" rerouteNo="0" devices="tripinfo_flow_route_88_duration_20250327_2040.8" vType="car" speedFactor="0.89" vaporized=""/>
    <tripinfo id="flow_route_62_duration_20250327_2040.2" depart="40.00" departLane="409155823_0" departPos="52.49" departSpeed="0.00" departDelay="0.00" arrival="84.00" arrivalLane="1091883842_0" arrivalPos="16.53" arrivalSpeed="8.24" duration="44.00" routeLength="69.46" waitingTime="23.00" waitingCount="1" stopTime="0.00" timeLoss="39.35" rerouteNo="0" devices="tripinfo_flow_route_62_duration_20250327_2040.2" vType="car" speedFactor="1.02" vaporized=""/>
    <tripinfo id="flow_route_87_duration_20250327_2040.5" depart="50.00" departLane="430416184_0" departPos="53.03" departSpeed="0.00" departDelay="0.00" arrival="88.00" arrivalLane="1091883842_0" arrivalPos="31.27" arrivalSpeed="9.47" duration="38.00" routeLength="278.70" waitingTime="0.00" waitingCount="0" stopTime="0.00" timeLoss="19.32" rerouteNo="0" devices="tripinfo_flow_route_87_duration_20250327_2040.5" vType="car" speedFactor="0.87" vaporized=""/>
    <tripinfo id="flow_route_83_duration_20250327_2040.2" depart="40.00" departLane="423956929_0" departPos="128.31" departSpeed="0.00" departDelay="0.00" arrival="92.00" arrivalLane="186407685_0" arrivalPos="118.31" arrivalSpeed="14.99" duration="52.00" routeLength="184.55" waitingTime="19.00" waitingCount="1" stopTime="0.00" timeLoss="39.44" rerouteNo="0" devices="tripinfo_flow_route_83_duration_20250327_2040.2" vType="car" speedFactor="1.01" vaporized=""/>
    <tripinfo id="flow_route_88_duration_20250327_2040.10" depart="55.00" departLane="430416184_0" departPos="80.64" departSpeed="0.00" departDelay="0.46" arrival="123.00" arrivalLane="186407684#0_1" arrivalPos="2.45" arrivalSpeed="7.89" duration="68.00" routeLength="239.45" waitingTime="31.00" waitingCount="1" stopTime="0.00" timeLoss="52.09" rerouteNo="0" devices="tripinfo_flow_route_88_duration_20250327_2040.10" vType="car" speedFactor="0.95" vaporized=""/>
    <tripinfo id="flow_route_88_duration_20250327_2040.9" depart="51.00" departLane="430416184_0" departPos="43.91" departSpeed="0.00" departDelay="1.91" arrival="128.00" arrivalLane="186407684#0_1" arrivalPos="84.16" arrivalSpeed="13.26" duration="77.00" routeLength="357.88" waitingTime="33.00" waitingCount="1" stopTime="0.00" timeLoss="53.34" rerouteNo="0" devices="tripinfo_flow_route_88_duration_20250327_2040.9" vType="car" speedFactor="0.92" vaporized=""/>
</tripinfos>
