<?xml version="1.0" encoding="UTF-8"?>

<!-- generated on 2025-05-06 21:08:02 by Eclipse SUMO sumo Version 1.20.0
<configuration xmlns:xsi="http://www.w3.org/2001/XMLSchema-instance" xsi:noNamespaceSchemaLocation="http://sumo.dlr.de/xsd/sumoConfiguration.xsd">

    <input>
        <net-file value="osm.net.xml"/>
        <route-files value="xml/route_rl_cluster3828547534_cluster_1507433914_2954854770_2954854771_2954854772_#9more_2.rou.xml"/>
    </input>

    <output>
        <tripinfo-output value="xml/tripinfo_rl_cluster3828547534_cluster_1507433914_2954854770_2954854771_2954854772_#9more_2.xml"/>
    </output>

    <traci_server>
        <remote-port value="42447"/>
    </traci_server>

</configuration>
-->

<tripinfos xmlns:xsi="http://www.w3.org/2001/XMLSchema-instance" xsi:noNamespaceSchemaLocation="http://sumo.dlr.de/xsd/tripinfo_file.xsd">
    <tripinfo id="flow_route_6_duration_20250327_2100.0" depart="0.00" departLane="1252820505#0_0" departPos="39.30" departSpeed="0.00" departDelay="0.00" arrival="18.00" arrivalLane="379698350#0_0" arrivalPos="9.38" arrivalSpeed="14.45" duration="18.00" routeLength="129.45" waitingTime="0.00" waitingCount="0" stopTime="0.00" timeLoss="9.75" rerouteNo="0" devices="tripinfo_flow_route_6_duration_20250327_2100.0" vType="car" speedFactor="1.01" vaporized=""/>
    <tripinfo id="flow_route_22_duration_20250327_2100.0" depart="0.00" departLane="137415945#0_0" departPos="8.70" departSpeed="0.00" departDelay="0.00" arrival="24.00" arrivalLane="1342054204_0" arrivalPos="47.56" arrivalSpeed="15.23" duration="24.00" routeLength="232.19" waitingTime="0.00" waitingCount="0" stopTime="0.00" timeLoss="9.07" rerouteNo="0" devices="tripinfo_flow_route_22_duration_20250327_2100.0" vType="car" speedFactor="0.94" vaporized=""/>
    <tripinfo id="flow_route_24_duration_20250327_2100.0" depart="4.00" departLane="137415945#0_0" departPos="5.05" departSpeed="0.00" departDelay="4.00" arrival="25.00" arrivalLane="137406408#0_0" arrivalPos="0.56" arrivalSpeed="15.37" duration="21.00" routeLength="164.51" waitingTime="0.00" waitingCount="0" stopTime="0.00" timeLoss="10.80" rerouteNo="0" devices="tripinfo_flow_route_24_duration_20250327_2100.0" vType="car" speedFactor="1.09" vaporized=""/>
    <tripinfo id="flow_route_10_duration_20250327_2100.0" depart="0.00" departLane="1252820505#0_0" departPos="5.24" departSpeed="0.00" departDelay="0.00" arrival="28.00" arrivalLane="1235147073.116_0" arrivalPos="0.67" arrivalSpeed="13.80" duration="28.00" routeLength="263.17" waitingTime="0.00" waitingCount="0" stopTime="0.00" timeLoss="8.24" rerouteNo="0" devices="tripinfo_flow_route_10_duration_20250327_2100.0" vType="car" speedFactor="0.83" vaporized=""/>
    <tripinfo id="flow_route_22_duration_20250327_2100.1" depart="8.00" departLane="137415945#0_0" departPos="1.60" departSpeed="0.00" departDelay="6.13" arrival="34.00" arrivalLane="1342054204_0" arrivalPos="55.26" arrivalSpeed="16.42" duration="26.00" routeLength="246.99" waitingTime="0.00" waitingCount="0" stopTime="0.00" timeLoss="10.74" rerouteNo="0" devices="tripinfo_flow_route_22_duration_20250327_2100.1" vType="car" speedFactor="1.03" vaporized=""/>
    <tripinfo id="flow_route_10_duration_20250327_2100.1" depart="14.00" departLane="1252820505#0_0" departPos="80.67" departSpeed="0.00" departDelay="5.43" arrival="37.00" arrivalLane="1235147073.116_0" arrivalPos="4.04" arrivalSpeed="16.18" duration="23.00" routeLength="191.11" waitingTime="0.00" waitingCount="0" stopTime="0.00" timeLoss="10.72" rerouteNo="0" devices="tripinfo_flow_route_10_duration_20250327_2100.1" vType="car" speedFactor="1.16" vaporized=""/>
    <tripinfo id="flow_route_22_duration_20250327_2100.2" depart="13.00" departLane="137415945#0_0" departPos="2.33" departSpeed="0.00" departDelay="9.25" arrival="40.00" arrivalLane="1342054204_0" arrivalPos="77.43" arrivalSpeed="16.24" duration="27.00" routeLength="268.42" waitingTime="0.00" waitingCount="0" stopTime="0.00" timeLoss="10.60" rerouteNo="0" devices="tripinfo_flow_route_22_duration_20250327_2100.2" vType="car" speedFactor="1.05" vaporized=""/>
    <tripinfo id="flow_route_6_duration_20250327_2100.2" depart="19.00" departLane="1252820505#0_0" departPos="71.76" departSpeed="0.00" departDelay="1.86" arrival="40.00" arrivalLane="379698350#0_0" arrivalPos="72.56" arrivalSpeed="15.00" duration="21.00" routeLength="160.18" waitingTime="0.00" waitingCount="0" stopTime="0.00" timeLoss="10.94" rerouteNo="0" devices="tripinfo_flow_route_6_duration_20250327_2100.2" vType="car" speedFactor="1.17" vaporized=""/>
    <tripinfo id="flow_route_8_duration_20250327_2100.1" depart="6.00" departLane="133000078#0_0" departPos="141.45" departSpeed="0.00" departDelay="0.55" arrival="45.00" arrivalLane="1235147073.116_0" arrivalPos="2.44" arrivalSpeed="15.37" duration="39.00" routeLength="221.16" waitingTime="6.00" waitingCount="1" stopTime="0.00" timeLoss="23.37" rerouteNo="0" devices="tripinfo_flow_route_8_duration_20250327_2100.1" vType="car" speedFactor="0.93" vaporized=""/>
    <tripinfo id="flow_route_10_duration_20250327_2100.2" depart="19.00" departLane="1252820505#0_0" departPos="50.85" departSpeed="0.00" departDelay="1.86" arrival="47.00" arrivalLane="1235147073.116_0" arrivalPos="4.44" arrivalSpeed="16.11" duration="28.00" routeLength="221.33" waitingTime="0.00" waitingCount="0" stopTime="0.00" timeLoss="14.01" rerouteNo="0" devices="tripinfo_flow_route_10_duration_20250327_2100.2" vType="car" speedFactor="0.99" vaporized=""/>
    <tripinfo id="flow_route_11_duration_20250327_2100.1" depart="15.00" departLane="1252820505#0_0" departPos="29.47" departSpeed="0.00" departDelay="0.00" arrival="48.00" arrivalLane="137406408#0_2" arrivalPos="6.18" arrivalSpeed="8.67" duration="33.00" routeLength="138.29" waitingTime="5.00" waitingCount="1" stopTime="0.00" timeLoss="24.60" rerouteNo="0" devices="tripinfo_flow_route_11_duration_20250327_2100.1" vType="car" speedFactor="1.13" vaporized=""/>
    <tripinfo id="flow_route_11_duration_20250327_2100.2" depart="31.00" departLane="1252820505#0_0" departPos="59.18" departSpeed="0.00" departDelay="1.00" arrival="51.00" arrivalLane="137406408#0_2" arrivalPos="14.17" arrivalSpeed="10.52" duration="20.00" routeLength="116.57" waitingTime="0.00" waitingCount="0" stopTime="0.00" timeLoss="12.62" rerouteNo="0" devices="tripinfo_flow_route_11_duration_20250327_2100.2" vType="car" speedFactor="1.10" vaporized=""/>
    <tripinfo id="flow_route_11_duration_20250327_2100.0" depart="0.00" departLane="1252820505#0_0" departPos="76.11" departSpeed="0.00" departDelay="0.00" arrival="52.00" arrivalLane="137406408#0_2" arrivalPos="68.60" arrivalSpeed="12.60" duration="52.00" routeLength="154.08" waitingTime="22.00" waitingCount="1" stopTime="0.00" timeLoss="42.28" rerouteNo="0" devices="tripinfo_flow_route_11_duration_20250327_2100.0" vType="car" speedFactor="1.05" vaporized=""/>
    <tripinfo id="flow_route_6_duration_20250327_2100.1" depart="12.00" departLane="1252820505#0_0" departPos="14.64" departSpeed="0.00" departDelay="3.43" arrival="52.00" arrivalLane="379698350#0_0" arrivalPos="198.93" arrivalSpeed="15.57" duration="40.00" routeLength="343.66" waitingTime="0.00" waitingCount="0" stopTime="0.00" timeLoss="17.08" rerouteNo="0" devices="tripinfo_flow_route_6_duration_20250327_2100.1" vType="car" speedFactor="0.94" vaporized=""/>
    <tripinfo id="flow_route_8_duration_20250327_2100.0" depart="0.00" departLane="133000078#0_0" departPos="54.62" departSpeed="0.00" departDelay="0.00" arrival="55.00" arrivalLane="1235147073.116_0" arrivalPos="9.03" arrivalSpeed="15.67" duration="55.00" routeLength="314.60" waitingTime="7.00" waitingCount="2" stopTime="0.00" timeLoss="34.64" rerouteNo="0" devices="tripinfo_flow_route_8_duration_20250327_2100.0" vType="car" speedFactor="1.03" vaporized=""/>
    <tripinfo id="flow_route_6_duration_20250327_2100.3" depart="27.00" departLane="1252820505#0_0" departPos="12.27" departSpeed="0.00" departDelay="1.29" arrival="55.00" arrivalLane="379698350#0_0" arrivalPos="96.17" arrivalSpeed="16.13" duration="28.00" routeLength="243.28" waitingTime="0.00" waitingCount="0" stopTime="0.00" timeLoss="12.69" rerouteNo="0" devices="tripinfo_flow_route_6_duration_20250327_2100.3" vType="car" speedFactor="1.00" vaporized=""/>
    <tripinfo id="flow_route_8_duration_20250327_2100.3" depart="17.00" departLane="133000078#0_0" departPos="149.05" departSpeed="0.00" departDelay="0.64" arrival="56.00" arrivalLane="1235147073.116_0" arrivalPos="3.17" arrivalSpeed="15.19" duration="39.00" routeLength="214.30" waitingTime="1.00" waitingCount="1" stopTime="0.00" timeLoss="25.31" rerouteNo="0" devices="tripinfo_flow_route_8_duration_20250327_2100.3" vType="car" speedFactor="1.15" vaporized=""/>
    <tripinfo id="flow_route_6_duration_20250327_2100.4" depart="35.00" departLane="1252820505#0_0" departPos="14.56" departSpeed="0.00" departDelay="0.72" arrival="56.00" arrivalLane="379698350#0_0" arrivalPos="3.02" arrivalSpeed="13.70" duration="21.00" routeLength="147.83" waitingTime="0.00" waitingCount="0" stopTime="0.00" timeLoss="11.43" rerouteNo="0" devices="tripinfo_flow_route_6_duration_20250327_2100.4" vType="car" speedFactor="1.08" vaporized=""/>
    <tripinfo id="flow_route_10_duration_20250327_2100.3" depart="28.00" departLane="1252820505#0_0" departPos="33.96" departSpeed="0.00" departDelay="2.29" arrival="58.00" arrivalLane="1235147073.116_0" arrivalPos="10.13" arrivalSpeed="14.66" duration="30.00" routeLength="243.92" waitingTime="0.00" waitingCount="0" stopTime="0.00" timeLoss="13.61" rerouteNo="0" devices="tripinfo_flow_route_10_duration_20250327_2100.3" vType="car" speedFactor="0.90" vaporized=""/>
    <tripinfo id="flow_route_8_duration_20250327_2100.4" depart="22.00" departLane="133000078#0_0" departPos="146.76" departSpeed="0.00" departDelay="0.18" arrival="64.00" arrivalLane="1235147073.116_0" arrivalPos="7.54" arrivalSpeed="15.51" duration="42.00" routeLength="220.97" waitingTime="3.00" waitingCount="2" stopTime="0.00" timeLoss="26.88" rerouteNo="0" devices="tripinfo_flow_route_8_duration_20250327_2100.4" vType="car" speedFactor="0.96" vaporized=""/>
    <tripinfo id="flow_route_10_duration_20250327_2100.4" depart="35.00" departLane="1252820505#0_0" departPos="30.06" departSpeed="0.00" departDelay="0.72" arrival="66.00" arrivalLane="1235147073.116_1" arrivalPos="15.02" arrivalSpeed="16.29" duration="31.00" routeLength="252.70" waitingTime="0.00" waitingCount="0" stopTime="0.00" timeLoss="14.91" rerouteNo="0" devices="tripinfo_flow_route_10_duration_20250327_2100.4" vType="car" speedFactor="1.12" vaporized=""/>
    <tripinfo id="flow_route_6_duration_20250327_2100.5" depart="44.00" departLane="1252820505#0_0" departPos="19.64" departSpeed="0.00" departDelay="1.15" arrival="71.00" arrivalLane="379698350#0_0" arrivalPos="91.69" arrivalSpeed="16.40" duration="27.00" routeLength="231.42" waitingTime="0.00" waitingCount="0" stopTime="0.00" timeLoss="12.15" rerouteNo="0" devices="tripinfo_flow_route_6_duration_20250327_2100.5" vType="car" speedFactor="1.06" vaporized=""/>
    <tripinfo id="flow_route_8_duration_20250327_2100.2" depart="11.00" departLane="133000078#0_0" departPos="63.55" departSpeed="0.00" departDelay="0.09" arrival="72.00" arrivalLane="1235147073.116_0" arrivalPos="10.59" arrivalSpeed="13.71" duration="61.00" routeLength="307.22" waitingTime="3.00" waitingCount="2" stopTime="0.00" timeLoss="37.45" rerouteNo="0" devices="tripinfo_flow_route_8_duration_20250327_2100.2" vType="car" speedFactor="0.83" vaporized=""/>
    <tripinfo id="flow_route_10_duration_20250327_2100.5" depart="45.00" departLane="1252820505#0_0" departPos="40.49" departSpeed="0.00" departDelay="2.15" arrival="73.00" arrivalLane="1235147073.116_0" arrivalPos="5.61" arrivalSpeed="14.24" duration="28.00" routeLength="232.86" waitingTime="0.00" waitingCount="0" stopTime="0.00" timeLoss="13.36" rerouteNo="0" devices="tripinfo_flow_route_10_duration_20250327_2100.5" vType="car" speedFactor="0.96" vaporized=""/>
    <tripinfo id="flow_route_11_duration_20250327_2100.3" depart="47.00" departLane="1252820505#0_0" departPos="7.35" departSpeed="0.00" departDelay="2.00" arrival="77.00" arrivalLane="137406408#0_2" arrivalPos="84.88" arrivalSpeed="14.73" duration="30.00" routeLength="239.10" waitingTime="0.00" waitingCount="0" stopTime="0.00" timeLoss="15.21" rerouteNo="0" devices="tripinfo_flow_route_11_duration_20250327_2100.3" vType="car" speedFactor="1.01" vaporized=""/>
    <tripinfo id="flow_route_6_duration_20250327_2100.6" depart="52.00" departLane="1252820505#0_0" departPos="34.28" departSpeed="0.00" departDelay="0.57" arrival="80.00" arrivalLane="379698350#0_0" arrivalPos="152.42" arrivalSpeed="16.56" duration="28.00" routeLength="277.50" waitingTime="0.00" waitingCount="0" stopTime="0.00" timeLoss="11.29" rerouteNo="0" devices="tripinfo_flow_route_6_duration_20250327_2100.6" vType="car" speedFactor="1.01" vaporized=""/>
    <tripinfo id="flow_route_8_duration_20250327_2100.6" depart="33.00" departLane="133000078#0_0" departPos="169.54" departSpeed="0.00" departDelay="0.28" arrival="81.00" arrivalLane="1235147073.116_0" arrivalPos="1.58" arrivalSpeed="15.06" duration="48.00" routeLength="192.21" waitingTime="2.00" waitingCount="1" stopTime="0.00" timeLoss="35.56" rerouteNo="0" devices="tripinfo_flow_route_8_duration_20250327_2100.6" vType="car" speedFactor="1.14" vaporized=""/>
    <tripinfo id="flow_route_8_duration_20250327_2100.5" depart="28.00" departLane="133000078#0_0" departPos="139.44" departSpeed="0.00" departDelay="0.73" arrival="84.00" arrivalLane="1235147073.116_0" arrivalPos="5.69" arrivalSpeed="13.81" duration="56.00" routeLength="226.43" waitingTime="1.00" waitingCount="1" stopTime="0.00" timeLoss="38.31" rerouteNo="0" devices="tripinfo_flow_route_8_duration_20250327_2100.5" vType="car" speedFactor="0.85" vaporized=""/>
    <tripinfo id="flow_route_10_duration_20250327_2100.6" depart="52.00" departLane="1252820505#0_0" departPos="9.53" departSpeed="0.00" departDelay="0.57" arrival="84.00" arrivalLane="1235147073.116_1" arrivalPos="9.26" arrivalSpeed="16.46" duration="32.00" routeLength="267.46" waitingTime="0.00" waitingCount="0" stopTime="0.00" timeLoss="15.16" rerouteNo="0" devices="tripinfo_flow_route_10_duration_20250327_2100.6" vType="car" speedFactor="1.02" vaporized=""/>
    <tripinfo id="flow_route_23_duration_20250327_2100.1" depart="17.00" departLane="137415945#0_0" departPos="0.60" departSpeed="0.00" departDelay="12.39" arrival="89.00" arrivalLane="379698350#0_2" arrivalPos="6.69" arrivalSpeed="9.10" duration="72.00" routeLength="198.44" waitingTime="36.00" waitingCount="1" stopTime="0.00" timeLoss="59.44" rerouteNo="0" devices="tripinfo_flow_route_23_duration_20250327_2100.1" vType="car" speedFactor="0.99" vaporized=""/>
    <tripinfo id="flow_route_5_duration_20250327_2100.0" depart="0.00" departLane="291974733#0_0" departPos="43.68" departSpeed="0.00" departDelay="0.00" arrival="90.00" arrivalLane="1342054204_0" arrivalPos="62.15" arrivalSpeed="13.56" duration="90.00" routeLength="156.72" waitingTime="60.00" waitingCount="1" stopTime="0.00" timeLoss="78.58" rerouteNo="0" devices="tripinfo_flow_route_5_duration_20250327_2100.0" vType="car" speedFactor="0.94" vaporized=""/>
    <tripinfo id="flow_route_5_duration_20250327_2100.1" depart="20.00" departLane="291974733#0_0" departPos="9.81" departSpeed="0.00" departDelay="0.00" arrival="90.00" arrivalLane="1342054204_0" arrivalPos="36.39" arrivalSpeed="12.09" duration="70.00" routeLength="164.83" waitingTime="38.00" waitingCount="1" stopTime="0.00" timeLoss="59.13" rerouteNo="0" devices="tripinfo_flow_route_5_duration_20250327_2100.1" vType="car" speedFactor="1.10" vaporized=""/>
    <tripinfo id="flow_route_8_duration_20250327_2100.7" depart="40.00" departLane="133000078#0_0" departPos="161.89" departSpeed="0.00" departDelay="1.82" arrival="90.00" arrivalLane="1235147073.116_0" arrivalPos="1.75" arrivalSpeed="15.19" duration="50.00" routeLength="200.04" waitingTime="2.00" waitingCount="2" stopTime="0.00" timeLoss="35.97" rerouteNo="0" devices="tripinfo_flow_route_8_duration_20250327_2100.7" vType="car" speedFactor="0.91" vaporized=""/>
    <tripinfo id="flow_route_23_duration_20250327_2100.2" depart="36.00" departLane="137415945#0_0" departPos="4.31" departSpeed="0.00" departDelay="26.77" arrival="92.00" arrivalLane="379698350#0_2" arrivalPos="18.36" arrivalSpeed="10.36" duration="56.00" routeLength="206.40" waitingTime="20.00" waitingCount="1" stopTime="0.00" timeLoss="41.43" rerouteNo="0" devices="tripinfo_flow_route_23_duration_20250327_2100.2" vType="car" speedFactor="0.89" vaporized=""/>
    <tripinfo id="flow_route_5_duration_20250327_2100.2" depart="40.00" departLane="291974733#0_0" departPos="43.37" departSpeed="0.00" departDelay="0.00" arrival="92.00" arrivalLane="1342054204_0" arrivalPos="34.32" arrivalSpeed="12.57" duration="52.00" routeLength="129.20" waitingTime="25.00" waitingCount="1" stopTime="0.00" timeLoss="42.95" rerouteNo="0" devices="tripinfo_flow_route_5_duration_20250327_2100.2" vType="car" speedFactor="1.04" vaporized=""/>
    <tripinfo id="flow_route_8_duration_20250327_2100.8" depart="44.00" departLane="133000078#0_0" departPos="40.33" departSpeed="0.00" departDelay="0.37" arrival="92.00" arrivalLane="1235147073.116_0" arrivalPos="1.98" arrivalSpeed="15.29" duration="48.00" routeLength="321.83" waitingTime="0.00" waitingCount="0" stopTime="0.00" timeLoss="27.72" rerouteNo="0" devices="tripinfo_flow_route_8_duration_20250327_2100.8" vType="car" speedFactor="1.03" vaporized=""/>
    <tripinfo id="flow_route_8_duration_20250327_2100.10" depart="55.00" departLane="133000078#0_0" departPos="45.82" departSpeed="0.00" departDelay="0.46" arrival="94.00" arrivalLane="1235147073.116_0" arrivalPos="3.53" arrivalSpeed="13.41" duration="39.00" routeLength="317.88" waitingTime="0.00" waitingCount="0" stopTime="0.00" timeLoss="15.14" rerouteNo="0" devices="tripinfo_flow_route_8_duration_20250327_2100.10" vType="car" speedFactor="0.83" vaporized=""/>
    <tripinfo id="flow_route_8_duration_20250327_2100.9" depart="50.00" departLane="133000078#0_0" departPos="1.51" departSpeed="0.00" departDelay="0.91" arrival="96.00" arrivalLane="1235147073.116_0" arrivalPos="11.35" arrivalSpeed="15.38" duration="46.00" routeLength="370.01" waitingTime="0.00" waitingCount="0" stopTime="0.00" timeLoss="23.23" rerouteNo="0" devices="tripinfo_flow_route_8_duration_20250327_2100.9" vType="car" speedFactor="1.15" vaporized=""/>
    <tripinfo id="flow_route_23_duration_20250327_2100.0" depart="0.00" departLane="137415945#0_0" departPos="0.59" departSpeed="0.00" departDelay="0.00" arrival="97.00" arrivalLane="379698350#0_2" arrivalPos="153.67" arrivalSpeed="14.16" duration="97.00" routeLength="345.44" waitingTime="52.00" waitingCount="1" stopTime="0.00" timeLoss="72.37" rerouteNo="0" devices="tripinfo_flow_route_23_duration_20250327_2100.0" vType="car" speedFactor="0.86" vaporized=""/>
    <tripinfo id="flow_route_23_duration_20250327_2100.3" depart="44.00" departLane="137415945#0_0" departPos="1.46" departSpeed="0.00" departDelay="30.16" arrival="98.00" arrivalLane="379698350#0_2" arrivalPos="57.51" arrivalSpeed="13.00" duration="54.00" routeLength="248.40" waitingTime="11.00" waitingCount="1" stopTime="0.00" timeLoss="37.71" rerouteNo="0" devices="tripinfo_flow_route_23_duration_20250327_2100.3" vType="car" speedFactor="0.95" vaporized=""/>
    <tripinfo id="flow_route_4_duration_20250327_2100.0" depart="0.00" departLane="291974733#0_0" departPos="63.06" departSpeed="0.00" departDelay="0.00" arrival="99.00" arrivalLane="379698350#0_0" arrivalPos="183.76" arrivalSpeed="16.15" duration="99.00" routeLength="311.60" waitingTime="62.00" waitingCount="1" stopTime="0.00" timeLoss="79.97" rerouteNo="0" devices="tripinfo_flow_route_4_duration_20250327_2100.0" vType="car" speedFactor="1.06" vaporized=""/>
    <tripinfo id="flow_route_23_duration_20250327_2100.4" depart="67.00" departLane="137415945#0_0" departPos="2.57" departSpeed="0.00" departDelay="48.54" arrival="102.00" arrivalLane="379698350#0_2" arrivalPos="80.38" arrivalSpeed="14.80" duration="35.00" routeLength="270.16" waitingTime="0.00" waitingCount="0" stopTime="0.00" timeLoss="17.86" rerouteNo="0" devices="tripinfo_flow_route_23_duration_20250327_2100.4" vType="car" speedFactor="1.18" vaporized=""/>
    <tripinfo id="flow_route_23_duration_20250327_2100.5" depart="76.00" departLane="137415945#0_0" departPos="4.90" departSpeed="0.00" departDelay="52.93" arrival="111.00" arrivalLane="379698350#0_2" arrivalPos="118.31" arrivalSpeed="16.06" duration="35.00" routeLength="305.76" waitingTime="0.00" waitingCount="0" stopTime="0.00" timeLoss="15.70" rerouteNo="0" devices="tripinfo_flow_route_23_duration_20250327_2100.5" vType="car" speedFactor="1.04" vaporized=""/>
    <tripinfo id="flow_route_12_duration_20250327_2100.1" depart="5.00" departLane="133000078#0_0" departPos="157.85" departSpeed="0.00" departDelay="0.00" arrival="124.00" arrivalLane="1342054204_3" arrivalPos="20.65" arrivalSpeed="13.06" duration="119.00" routeLength="160.59" waitingTime="90.00" waitingCount="1" stopTime="0.00" timeLoss="109.26" rerouteNo="0" devices="tripinfo_flow_route_12_duration_20250327_2100.1" vType="car" speedFactor="1.12" vaporized=""/>
    <tripinfo id="flow_route_12_duration_20250327_2100.0" depart="0.00" departLane="133000078#0_0" departPos="66.48" departSpeed="0.00" departDelay="0.00" arrival="126.00" arrivalLane="1342054204_3" arrivalPos="21.59" arrivalSpeed="12.80" duration="126.00" routeLength="252.91" waitingTime="87.00" waitingCount="1" stopTime="0.00" timeLoss="108.76" rerouteNo="0" devices="tripinfo_flow_route_12_duration_20250327_2100.0" vType="car" speedFactor="0.89" vaporized=""/>
    <tripinfo id="flow_route_7_duration_20250327_2100.0" depart="0.00" departLane="133000078#0_0" departPos="116.92" departSpeed="0.00" departDelay="0.00" arrival="127.00" arrivalLane="137406408#0_1" arrivalPos="45.36" arrivalSpeed="15.28" duration="127.00" routeLength="233.24" waitingTime="89.00" waitingCount="1" stopTime="0.00" timeLoss="112.47" rerouteNo="0" devices="tripinfo_flow_route_7_duration_20250327_2100.0" vType="car" speedFactor="1.08" vaporized=""/>
    <tripinfo id="flow_route_12_duration_20250327_2100.4" depart="20.00" departLane="133000078#0_0" departPos="180.78" departSpeed="0.00" departDelay="0.00" arrival="129.00" arrivalLane="1342054204_3" arrivalPos="31.85" arrivalSpeed="14.44" duration="109.00" routeLength="148.87" waitingTime="81.00" waitingCount="1" stopTime="0.00" timeLoss="98.73" rerouteNo="0" devices="tripinfo_flow_route_12_duration_20250327_2100.4" vType="car" speedFactor="0.90" vaporized=""/>
    <tripinfo id="flow_route_12_duration_20250327_2100.2" depart="10.00" departLane="133000078#0_0" departPos="123.11" departSpeed="0.00" departDelay="0.00" arrival="135.00" arrivalLane="1342054204_3" arrivalPos="21.06" arrivalSpeed="13.02" duration="125.00" routeLength="195.75" waitingTime="85.00" waitingCount="2" stopTime="0.00" timeLoss="112.98" rerouteNo="0" devices="tripinfo_flow_route_12_duration_20250327_2100.2" vType="car" speedFactor="1.01" vaporized=""/>
    <tripinfo id="flow_route_12_duration_20250327_2100.11" depart="57.00" departLane="133000078#0_0" departPos="157.13" departSpeed="0.00" departDelay="2.00" arrival="135.00" arrivalLane="1342054204_3" arrivalPos="47.60" arrivalSpeed="13.83" duration="78.00" routeLength="188.27" waitingTime="46.00" waitingCount="2" stopTime="0.00" timeLoss="65.64" rerouteNo="0" devices="tripinfo_flow_route_12_duration_20250327_2100.11" vType="car" speedFactor="0.92" vaporized=""/>
    <tripinfo id="flow_route_12_duration_20250327_2100.3" depart="15.00" departLane="133000078#0_0" departPos="17.76" departSpeed="0.00" departDelay="0.00" arrival="137.00" arrivalLane="1342054204_3" arrivalPos="15.61" arrivalSpeed="13.65" duration="122.00" routeLength="295.65" waitingTime="73.00" waitingCount="1" stopTime="0.00" timeLoss="102.45" rerouteNo="0" devices="tripinfo_flow_route_12_duration_20250327_2100.3" vType="car" speedFactor="0.93" vaporized=""/>
    <tripinfo id="flow_route_12_duration_20250327_2100.5" depart="25.00" departLane="133000078#0_0" departPos="20.96" departSpeed="0.00" departDelay="0.00" arrival="143.00" arrivalLane="1342054204_3" arrivalPos="25.85" arrivalSpeed="15.11" duration="118.00" routeLength="302.69" waitingTime="66.00" waitingCount="1" stopTime="0.00" timeLoss="99.00" rerouteNo="0" devices="tripinfo_flow_route_12_duration_20250327_2100.5" vType="car" speedFactor="1.04" vaporized=""/>
    <tripinfo id="flow_route_12_duration_20250327_2100.6" depart="30.00" departLane="133000078#0_0" departPos="121.64" departSpeed="0.00" departDelay="0.00" arrival="143.00" arrivalLane="1342054204_3" arrivalPos="78.89" arrivalSpeed="16.44" duration="113.00" routeLength="255.06" waitingTime="70.00" waitingCount="1" stopTime="0.00" timeLoss="96.80" rerouteNo="0" devices="tripinfo_flow_route_12_duration_20250327_2100.6" vType="car" speedFactor="1.00" vaporized=""/>
    <tripinfo id="flow_route_12_duration_20250327_2100.7" depart="36.00" departLane="133000078#0_0" departPos="135.99" departSpeed="0.00" departDelay="1.00" arrival="144.00" arrivalLane="1342054204_3" arrivalPos="77.39" arrivalSpeed="16.57" duration="108.00" routeLength="239.20" waitingTime="68.00" waitingCount="1" stopTime="0.00" timeLoss="93.35" rerouteNo="0" devices="tripinfo_flow_route_12_duration_20250327_2100.7" vType="car" speedFactor="1.02" vaporized=""/>
    <tripinfo id="flow_route_12_duration_20250327_2100.10" depart="50.00" departLane="133000078#0_0" departPos="121.51" departSpeed="0.00" departDelay="0.00" arrival="146.00" arrivalLane="1342054204_3" arrivalPos="58.10" arrivalSpeed="15.87" duration="96.00" routeLength="234.40" waitingTime="56.00" waitingCount="1" stopTime="0.00" timeLoss="81.45" rerouteNo="0" devices="tripinfo_flow_route_12_duration_20250327_2100.10" vType="car" speedFactor="0.98" vaporized=""/>
    <tripinfo id="flow_route_12_duration_20250327_2100.8" depart="41.00" departLane="133000078#0_0" departPos="31.66" departSpeed="0.00" departDelay="1.00" arrival="150.00" arrivalLane="1342054204_3" arrivalPos="86.95" arrivalSpeed="16.53" duration="109.00" routeLength="353.08" waitingTime="57.00" waitingCount="1" stopTime="0.00" timeLoss="86.84" rerouteNo="0" devices="tripinfo_flow_route_12_duration_20250327_2100.8" vType="car" speedFactor="1.02" vaporized=""/>
    <tripinfo id="flow_route_12_duration_20250327_2100.9" depart="45.00" departLane="133000078#0_0" departPos="49.23" departSpeed="0.00" departDelay="0.00" arrival="152.00" arrivalLane="1342054204_3" arrivalPos="27.99" arrivalSpeed="13.49" duration="107.00" routeLength="276.56" waitingTime="55.00" waitingCount="1" stopTime="0.00" timeLoss="89.92" rerouteNo="0" devices="tripinfo_flow_route_12_duration_20250327_2100.9" vType="car" speedFactor="1.09" vaporized=""/>
    <tripinfo id="flow_route_22_duration_20250327_2100.4" depart="20.00" departLane="137415945#0_0" departPos="0.30" departSpeed="0.00" departDelay="12.50" arrival="159.00" arrivalLane="1342054204_1" arrivalPos="11.29" arrivalSpeed="10.39" duration="139.00" routeLength="204.31" waitingTime="103.00" waitingCount="1" stopTime="0.00" timeLoss="125.73" rerouteNo="0" devices="tripinfo_flow_route_22_duration_20250327_2100.4" vType="car" speedFactor="0.94" vaporized=""/>
    <tripinfo id="flow_route_24_duration_20250327_2100.1" depart="25.00" departLane="137415945#0_0" departPos="4.36" departSpeed="0.00" departDelay="16.43" arrival="159.00" arrivalLane="137406408#0_0" arrivalPos="20.60" arrivalSpeed="9.73" duration="134.00" routeLength="185.23" waitingTime="100.00" waitingCount="1" stopTime="0.00" timeLoss="122.54" rerouteNo="0" devices="tripinfo_flow_route_24_duration_20250327_2100.1" vType="car" speedFactor="1.02" vaporized=""/>
    <tripinfo id="flow_route_22_duration_20250327_2100.7" depart="41.00" departLane="137415945#0_0" departPos="4.24" departSpeed="0.00" departDelay="27.88" arrival="162.00" arrivalLane="1342054204_1" arrivalPos="2.43" arrivalSpeed="10.83" duration="121.00" routeLength="191.52" waitingTime="85.00" waitingCount="1" stopTime="0.00" timeLoss="108.11" rerouteNo="0" devices="tripinfo_flow_route_22_duration_20250327_2100.7" vType="car" speedFactor="0.92" vaporized=""/>
    <tripinfo id="flow_route_22_duration_20250327_2100.3" depart="20.00" departLane="137415945#0_0" departPos="12.44" departSpeed="0.00" departDelay="14.38" arrival="165.00" arrivalLane="1342054204_0" arrivalPos="83.44" arrivalSpeed="14.49" duration="145.00" routeLength="264.34" waitingTime="106.00" waitingCount="1" stopTime="0.00" timeLoss="126.28" rerouteNo="0" devices="tripinfo_flow_route_22_duration_20250327_2100.3" vType="car" speedFactor="0.88" vaporized=""/>
    <tripinfo id="flow_route_22_duration_20250327_2100.6" depart="38.00" departLane="137415945#0_0" departPos="11.57" departSpeed="0.00" departDelay="26.75" arrival="165.00" arrivalLane="1342054204_0" arrivalPos="42.97" arrivalSpeed="13.51" duration="127.00" routeLength="224.72" waitingTime="91.00" waitingCount="1" stopTime="0.00" timeLoss="110.88" rerouteNo="0" devices="tripinfo_flow_route_22_duration_20250327_2100.6" vType="car" speedFactor="0.87" vaporized=""/>
    <tripinfo id="flow_route_22_duration_20250327_2100.9" depart="50.00" departLane="137415945#0_0" departPos="1.52" departSpeed="0.00" departDelay="33.13" arrival="165.00" arrivalLane="1342054204_1" arrivalPos="15.76" arrivalSpeed="11.97" duration="115.00" routeLength="207.57" waitingTime="79.00" waitingCount="1" stopTime="0.00" timeLoss="102.11" rerouteNo="0" devices="tripinfo_flow_route_22_duration_20250327_2100.9" vType="car" speedFactor="1.01" vaporized=""/>