<?xml version="1.0" encoding="UTF-8"?>

<!-- generated on 2025-05-06 21:08:46 by Eclipse SUMO sumo Version 1.20.0
<configuration xmlns:xsi="http://www.w3.org/2001/XMLSchema-instance" xsi:noNamespaceSchemaLocation="http://sumo.dlr.de/xsd/sumoConfiguration.xsd">

    <input>
        <net-file value="osm.net.xml"/>
        <route-files value="xml/route_static_11644940310_6.rou.xml"/>
    </input>

    <output>
        <tripinfo-output value="xml/tripinfo_static_11644940310_6.xml"/>
    </output>

    <traci_server>
        <remote-port value="41763"/>
    </traci_server>

</configuration>
-->

<tripinfos xmlns:xsi="http://www.w3.org/2001/XMLSchema-instance" xsi:noNamespaceSchemaLocation="http://sumo.dlr.de/xsd/tripinfo_file.xsd">
    <tripinfo id="flow_route_27_duration_20250327_2220.0" depart="0.00" departLane="1254771874#0_0" departPos="190.47" departSpeed="0.00" departDelay="0.00" arrival="15.00" arrivalLane="138002006#0_1" arrivalPos="4.04" arrivalSpeed="9.09" duration="15.00" routeLength="85.46" waitingTime="0.00" waitingCount="0" stopTime="0.00" timeLoss="8.79" rerouteNo="0" devices="tripinfo_flow_route_27_duration_20250327_2220.0" vType="car" speedFactor="1.01" vaporized=""/>
    <tripinfo id="flow_route_25_duration_20250327_2220.0" depart="0.00" departLane="1254771874#0_0" departPos="63.27" departSpeed="0.00" departDelay="0.00" arrival="33.00" arrivalLane="1341093415#0_1" arrivalPos="158.81" arrivalSpeed="16.46" duration="33.00" routeLength="373.33" waitingTime="0.00" waitingCount="0" stopTime="0.00" timeLoss="10.11" rerouteNo="0" devices="tripinfo_flow_route_25_duration_20250327_2220.0" vType="car" speedFactor="1.06" vaporized=""/>
    <tripinfo id="flow_route_50_duration_20250327_2220.0" depart="0.00" departLane="-138002006#3_0" departPos="41.39" departSpeed="0.00" departDelay="0.00" arrival="35.00" arrivalLane="-422986370#2_0" arrivalPos="13.06" arrivalSpeed="6.99" duration="35.00" routeLength="82.72" waitingTime="13.00" waitingCount="1" stopTime="0.00" timeLoss="28.94" rerouteNo="0" devices="tripinfo_flow_route_50_duration_20250327_2220.0" vType="car" speedFactor="0.83" vaporized=""/>
    <tripinfo id="flow_route_26_duration_20250327_2220.0" depart="0.00" departLane="1254771874#0_0" departPos="139.38" departSpeed="0.00" departDelay="0.00" arrival="39.00" arrivalLane="-422986370#2_0" arrivalPos="213.43" arrivalSpeed="15.35" duration="39.00" routeLength="338.64" waitingTime="0.00" waitingCount="0" stopTime="0.00" timeLoss="15.96" rerouteNo="0" devices="tripinfo_flow_route_26_duration_20250327_2220.0" vType="car" speedFactor="0.94" vaporized=""/>
    <tripinfo id="flow_route_41_duration_20250327_2220.0" depart="0.00" departLane="1369578054_0" departPos="201.66" departSpeed="0.00" departDelay="0.00" arrival="39.00" arrivalLane="138002006#0_0" arrivalPos="52.37" arrivalSpeed="10.92" duration="39.00" routeLength="172.64" waitingTime="8.00" waitingCount="1" stopTime="0.00" timeLoss="28.44" rerouteNo="0" devices="tripinfo_flow_route_41_duration_20250327_2220.0" vType="car" speedFactor="1.03" vaporized=""/>
    <tripinfo id="flow_route_40_duration_20250327_2220.0" depart="0.00" departLane="1369578054_0" departPos="1.81" departSpeed="0.00" departDelay="0.00" arrival="43.00" arrivalLane="1341093415#0_0" arrivalPos="87.60" arrivalSpeed="12.97" duration="43.00" routeLength="396.71" waitingTime="0.00" waitingCount="0" stopTime="0.00" timeLoss="17.92" rerouteNo="0" devices="tripinfo_flow_route_40_duration_20250327_2220.0" vType="car" speedFactor="1.08" vaporized=""/>
    <tripinfo id="flow_route_51_duration_20250327_2220.0" depart="2.00" departLane="-138002006#3_0" departPos="23.48" departSpeed="0.00" departDelay="2.00" arrival="54.00" arrivalLane="1341093415#0_3" arrivalPos="132.48" arrivalSpeed="15.72" duration="52.00" routeLength="212.67" waitingTime="15.00" waitingCount="2" stopTime="0.00" timeLoss="37.38" rerouteNo="0" devices="tripinfo_flow_route_51_duration_20250327_2220.0" vType="car" speedFactor="1.05" vaporized=""/>
    <tripinfo id="flow_route_27_duration_20250327_2220.1" depart="16.00" departLane="1254771874#0_0" departPos="82.30" departSpeed="0.00" departDelay="1.00" arrival="70.00" arrivalLane="138002006#0_1" arrivalPos="5.35" arrivalSpeed="5.60" duration="54.00" routeLength="194.94" waitingTime="23.00" waitingCount="1" stopTime="0.00" timeLoss="41.09" rerouteNo="0" devices="tripinfo_flow_route_27_duration_20250327_2220.1" vType="car" speedFactor="0.89" vaporized=""/>
    <tripinfo id="flow_route_27_duration_20250327_2220.2" depart="30.00" departLane="1254771874#0_0" departPos="131.12" departSpeed="0.00" departDelay="0.00" arrival="79.00" arrivalLane="138002006#0_1" arrivalPos="60.68" arrivalSpeed="11.76" duration="49.00" routeLength="201.45" waitingTime="13.00" waitingCount="1" stopTime="0.00" timeLoss="34.98" rerouteNo="0" devices="tripinfo_flow_route_27_duration_20250327_2220.2" vType="car" speedFactor="0.94" vaporized=""/>
    <tripinfo id="flow_route_27_duration_20250327_2220.3" depart="45.00" departLane="1254771874#0_0" departPos="240.04" departSpeed="0.00" departDelay="0.00" arrival="82.00" arrivalLane="138002006#0_1" arrivalPos="56.23" arrivalSpeed="11.13" duration="37.00" routeLength="88.09" waitingTime="17.00" waitingCount="1" stopTime="0.00" timeLoss="30.83" rerouteNo="0" devices="tripinfo_flow_route_27_duration_20250327_2220.3" vType="car" speedFactor="1.09" vaporized=""/>
    <tripinfo id="flow_route_40_duration_20250327_2220.1" depart="30.00" departLane="1369578054_0" departPos="92.01" departSpeed="0.00" departDelay="0.00" arrival="96.00" arrivalLane="1341093415#0_0" arrivalPos="8.23" arrivalSpeed="5.53" duration="66.00" routeLength="227.15" waitingTime="32.00" waitingCount="1" stopTime="0.00" timeLoss="49.01" rerouteNo="0" devices="tripinfo_flow_route_40_duration_20250327_2220.1" vType="car" speedFactor="0.86" vaporized=""/>
</tripinfos>
