<?xml version="1.0" encoding="UTF-8"?>

<!-- generated on 2025-05-06 21:08:24 by Eclipse SUMO sumo Version 1.20.0
<configuration xmlns:xsi="http://www.w3.org/2001/XMLSchema-instance" xsi:noNamespaceSchemaLocation="http://sumo.dlr.de/xsd/sumoConfiguration.xsd">

    <input>
        <net-file value="osm.net.xml"/>
        <route-files value="xml/route_static_GS_cluster_4854142864_4854142865_4.rou.xml"/>
    </input>

    <output>
        <tripinfo-output value="xml/tripinfo_static_GS_cluster_4854142864_4854142865_4.xml"/>
    </output>

    <traci_server>
        <remote-port value="52819"/>
    </traci_server>

</configuration>
-->

<tripinfos xmlns:xsi="http://www.w3.org/2001/XMLSchema-instance" xsi:noNamespaceSchemaLocation="http://sumo.dlr.de/xsd/tripinfo_file.xsd">
    <tripinfo id="flow_route_38_duration_20250327_1910.1" depart="5.00" departLane="133126030#0_0" departPos="173.99" departSpeed="0.00" departDelay="0.72" arrival="14.00" arrivalLane="134193294#0_0" arrivalPos="7.92" arrivalSpeed="6.77" duration="9.00" routeLength="28.81" waitingTime="0.00" waitingCount="0" stopTime="0.00" timeLoss="6.20" rerouteNo="0" devices="tripinfo_flow_route_38_duration_20250327_1910.1" vType="car" speedFactor="1.09" vaporized=""/>
    <tripinfo id="flow_route_39_duration_20250327_1910.0" depart="0.00" departLane="133126030#0_0" departPos="101.03" departSpeed="0.00" departDelay="0.00" arrival="29.00" arrivalLane="1328664748#0_0" arrivalPos="158.52" arrivalSpeed="15.14" duration="29.00" routeLength="263.70" waitingTime="0.00" waitingCount="0" stopTime="0.00" timeLoss="11.50" rerouteNo="0" devices="tripinfo_flow_route_39_duration_20250327_1910.0" vType="car" speedFactor="0.94" vaporized=""/>
    <tripinfo id="flow_route_38_duration_20250327_1910.0" depart="0.00" departLane="133126030#0_0" departPos="45.86" departSpeed="0.00" departDelay="0.00" arrival="35.00" arrivalLane="134193294#0_0" arrivalPos="152.84" arrivalSpeed="16.14" duration="35.00" routeLength="301.86" waitingTime="0.00" waitingCount="0" stopTime="0.00" timeLoss="15.80" rerouteNo="0" devices="tripinfo_flow_route_38_duration_20250327_1910.0" vType="car" speedFactor="1.06" vaporized=""/>
    <tripinfo id="flow_route_38_duration_20250327_1910.3" depart="14.00" departLane="133126030#0_0" departPos="107.48" departSpeed="0.00" departDelay="1.15" arrival="41.00" arrivalLane="134193294#0_0" arrivalPos="122.75" arrivalSpeed="15.30" duration="27.00" routeLength="210.15" waitingTime="0.00" waitingCount="0" stopTime="0.00" timeLoss="13.41" rerouteNo="0" devices="tripinfo_flow_route_38_duration_20250327_1910.3" vType="car" speedFactor="0.97" vaporized=""/>
    <tripinfo id="flow_route_38_duration_20250327_1910.2" depart="9.00" departLane="133126030#0_0" departPos="23.23" departSpeed="0.00" departDelay="0.43" arrival="45.00" arrivalLane="134193294#0_0" arrivalPos="56.83" arrivalSpeed="11.08" duration="36.00" routeLength="228.48" waitingTime="0.00" waitingCount="0" stopTime="0.00" timeLoss="19.44" rerouteNo="0" devices="tripinfo_flow_route_38_duration_20250327_1910.2" vType="car" speedFactor="0.88" vaporized=""/>
    <tripinfo id="flow_route_39_duration_20250327_1910.1" depart="15.00" departLane="133126030#0_0" departPos="51.67" departSpeed="0.00" departDelay="0.00" arrival="45.00" arrivalLane="1328664748#0_0" arrivalPos="142.76" arrivalSpeed="15.13" duration="30.00" routeLength="297.30" waitingTime="0.00" waitingCount="0" stopTime="0.00" timeLoss="9.74" rerouteNo="0" devices="tripinfo_flow_route_39_duration_20250327_1910.1" vType="car" speedFactor="0.92" vaporized=""/>
    <tripinfo id="flow_route_43_duration_20250327_1910.1" depart="6.00" departLane="1328664744#0_0" departPos="87.98" departSpeed="0.00" departDelay="1.00" arrival="59.00" arrivalLane="134193294#0_3" arrivalPos="87.99" arrivalSpeed="13.43" duration="53.00" routeLength="240.08" waitingTime="16.00" waitingCount="1" stopTime="0.00" timeLoss="37.18" rerouteNo="0" devices="tripinfo_flow_route_43_duration_20250327_1910.1" vType="car" speedFactor="1.03" vaporized=""/>
    <tripinfo id="flow_route_43_duration_20250327_1910.0" depart="0.00" departLane="1328664744#0_0" departPos="1.34" departSpeed="0.00" departDelay="0.00" arrival="60.00" arrivalLane="134193294#0_3" arrivalPos="84.30" arrivalSpeed="12.54" duration="60.00" routeLength="323.03" waitingTime="15.00" waitingCount="1" stopTime="0.00" timeLoss="39.56" rerouteNo="0" devices="tripinfo_flow_route_43_duration_20250327_1910.0" vType="car" speedFactor="1.08" vaporized=""/>
    <tripinfo id="flow_route_43_duration_20250327_1910.2" depart="11.00" departLane="1328664744#0_0" departPos="180.08" departSpeed="0.00" departDelay="1.00" arrival="62.00" arrivalLane="134193294#0_3" arrivalPos="165.46" arrivalSpeed="15.15" duration="51.00" routeLength="225.45" waitingTime="18.00" waitingCount="1" stopTime="0.00" timeLoss="34.93" rerouteNo="0" devices="tripinfo_flow_route_43_duration_20250327_1910.2" vType="car" speedFactor="0.94" vaporized=""/>
    <tripinfo id="flow_route_43_duration_20250327_1910.3" depart="15.00" departLane="1328664744#0_0" departPos="121.30" departSpeed="0.00" departDelay="0.00" arrival="62.00" arrivalLane="134193294#0_3" arrivalPos="26.05" arrivalSpeed="8.91" duration="47.00" routeLength="144.81" waitingTime="8.00" waitingCount="2" stopTime="0.00" timeLoss="36.37" rerouteNo="0" devices="tripinfo_flow_route_43_duration_20250327_1910.3" vType="car" speedFactor="0.95" vaporized=""/>
    <tripinfo id="flow_route_43_duration_20250327_1910.4" depart="20.00" departLane="1328664744#0_0" departPos="93.89" departSpeed="0.00" departDelay="0.00" arrival="68.00" arrivalLane="134193294#0_3" arrivalPos="49.75" arrivalSpeed="11.05" duration="48.00" routeLength="195.93" waitingTime="1.00" waitingCount="1" stopTime="0.00" timeLoss="34.90" rerouteNo="0" devices="tripinfo_flow_route_43_duration_20250327_1910.4" vType="car" speedFactor="0.97" vaporized=""/>
    <tripinfo id="flow_route_43_duration_20250327_1910.5" depart="25.00" departLane="1328664744#0_0" departPos="127.26" departSpeed="0.00" departDelay="0.00" arrival="74.00" arrivalLane="134193294#0_3" arrivalPos="158.66" arrivalSpeed="16.13" duration="49.00" routeLength="271.46" waitingTime="2.00" waitingCount="1" stopTime="0.00" timeLoss="31.35" rerouteNo="0" devices="tripinfo_flow_route_43_duration_20250327_1910.5" vType="car" speedFactor="1.09" vaporized=""/>
    <tripinfo id="flow_route_43_duration_20250327_1910.6" depart="30.00" departLane="1328664744#0_0" departPos="76.44" departSpeed="0.00" departDelay="0.00" arrival="75.00" arrivalLane="134193294#0_3" arrivalPos="115.85" arrivalSpeed="15.07" duration="45.00" routeLength="279.48" waitingTime="0.00" waitingCount="0" stopTime="0.00" timeLoss="26.38" rerouteNo="0" devices="tripinfo_flow_route_43_duration_20250327_1910.6" vType="car" speedFactor="1.02" vaporized=""/>
    <tripinfo id="flow_route_43_duration_20250327_1910.7" depart="35.00" departLane="1328664744#0_0" departPos="75.18" departSpeed="0.00" departDelay="0.00" arrival="80.00" arrivalLane="134193294#0_3" arrivalPos="154.96" arrivalSpeed="15.66" duration="45.00" routeLength="319.86" waitingTime="0.00" waitingCount="0" stopTime="0.00" timeLoss="24.03" rerouteNo="0" devices="tripinfo_flow_route_43_duration_20250327_1910.7" vType="car" speedFactor="0.97" vaporized=""/>
    <tripinfo id="flow_route_43_duration_20250327_1910.9" depart="46.00" departLane="1328664744#0_0" departPos="89.48" departSpeed="0.00" departDelay="1.00" arrival="85.00" arrivalLane="134193294#0_3" arrivalPos="145.94" arrivalSpeed="15.45" duration="39.00" routeLength="296.53" waitingTime="0.00" waitingCount="0" stopTime="0.00" timeLoss="18.88" rerouteNo="0" devices="tripinfo_flow_route_43_duration_20250327_1910.9" vType="car" speedFactor="0.96" vaporized=""/>
    <tripinfo id="flow_route_43_duration_20250327_1910.8" depart="40.00" departLane="1328664744#0_0" departPos="34.02" departSpeed="0.00" departDelay="0.00" arrival="86.00" arrivalLane="134193294#0_3" arrivalPos="134.49" arrivalSpeed="15.85" duration="46.00" routeLength="340.54" waitingTime="0.00" waitingCount="0" stopTime="0.00" timeLoss="23.92" rerouteNo="0" devices="tripinfo_flow_route_43_duration_20250327_1910.8" vType="car" speedFactor="1.04" vaporized=""/>
    <tripinfo id="flow_route_43_duration_20250327_1910.11" depart="55.00" departLane="1328664744#0_0" departPos="99.16" departSpeed="0.00" departDelay="0.00" arrival="86.00" arrivalLane="134193294#0_3" arrivalPos="59.48" arrivalSpeed="11.65" duration="31.00" routeLength="200.39" waitingTime="0.00" waitingCount="0" stopTime="0.00" timeLoss="15.03" rerouteNo="0" devices="tripinfo_flow_route_43_duration_20250327_1910.11" vType="car" speedFactor="0.83" vaporized=""/>
    <tripinfo id="flow_route_45_duration_20250327_1910.5" depart="15.00" departLane="791826085_0" departPos="302.68" departSpeed="0.00" departDelay="0.00" arrival="91.00" arrivalLane="485211947#0_0" arrivalPos="5.16" arrivalSpeed="5.84" duration="76.00" routeLength="38.23" waitingTime="60.00" waitingCount="1" stopTime="0.00" timeLoss="73.11" rerouteNo="0" devices="tripinfo_flow_route_45_duration_20250327_1910.5" vType="car" speedFactor="1.13" vaporized=""/>
    <tripinfo id="flow_route_43_duration_20250327_1910.10" depart="50.00" departLane="1328664744#0_0" departPos="42.28" departSpeed="0.00" departDelay="0.00" arrival="93.00" arrivalLane="134193294#0_3" arrivalPos="126.77" arrivalSpeed="15.85" duration="43.00" routeLength="324.56" waitingTime="0.00" waitingCount="0" stopTime="0.00" timeLoss="20.93" rerouteNo="0" devices="tripinfo_flow_route_43_duration_20250327_1910.10" vType="car" speedFactor="0.97" vaporized=""/>
    <tripinfo id="flow_route_45_duration_20250327_1910.0" depart="0.00" departLane="791826085_0" departPos="152.03" departSpeed="0.00" departDelay="0.00" arrival="95.00" arrivalLane="485211947#0_0" arrivalPos="8.08" arrivalSpeed="6.63" duration="95.00" routeLength="191.81" waitingTime="59.00" waitingCount="1" stopTime="0.00" timeLoss="80.30" rerouteNo="0" devices="tripinfo_flow_route_45_duration_20250327_1910.0" vType="car" speedFactor="0.83" vaporized=""/>
    <tripinfo id="flow_route_44_duration_20250327_1910.3" depart="10.00" departLane="791826085_0" departPos="186.42" departSpeed="0.00" departDelay="0.53" arrival="98.00" arrivalLane="134193294#0_1" arrivalPos="45.30" arrivalSpeed="11.46" duration="88.00" routeLength="213.25" waitingTime="52.00" waitingCount="1" stopTime="0.00" timeLoss="74.89" rerouteNo="0" devices="tripinfo_flow_route_44_duration_20250327_1910.3" vType="car" speedFactor="1.16" vaporized=""/>
    <tripinfo id="flow_route_44_duration_20250327_1910.9" depart="30.00" departLane="791826085_0" departPos="275.74" departSpeed="0.00" departDelay="1.59" arrival="100.00" arrivalLane="134193294#0_1" arrivalPos="24.21" arrivalSpeed="10.20" duration="70.00" routeLength="102.85" waitingTime="45.00" waitingCount="1" stopTime="0.00" timeLoss="62.92" rerouteNo="0" devices="tripinfo_flow_route_44_duration_20250327_1910.9" vType="car" speedFactor="0.88" vaporized=""/>
    <tripinfo id="flow_route_44_duration_20250327_1910.0" depart="0.00" departLane="791826085_0" departPos="219.49" departSpeed="0.00" departDelay="0.00" arrival="101.00" arrivalLane="134193294#0_0" arrivalPos="101.20" arrivalSpeed="13.80" duration="101.00" routeLength="236.08" waitingTime="64.00" waitingCount="1" stopTime="0.00" timeLoss="86.32" rerouteNo="0" devices="tripinfo_flow_route_44_duration_20250327_1910.0" vType="car" speedFactor="1.03" vaporized=""/>
    <tripinfo id="flow_route_46_duration_20250327_1910.2" depart="8.00" departLane="791826085_0" departPos="223.42" departSpeed="0.00" departDelay="1.69" arrival="102.00" arrivalLane="1328664748#0_1" arrivalPos="67.14" arrivalSpeed="12.42" duration="94.00" routeLength="192.51" waitingTime="54.00" waitingCount="1" stopTime="0.00" timeLoss="80.05" rerouteNo="0" devices="tripinfo_flow_route_46_duration_20250327_1910.2" vType="car" speedFactor="0.93" vaporized=""/>
    <tripinfo id="flow_route_45_duration_20250327_1910.2" depart="8.00" departLane="791826085_0" departPos="311.97" departSpeed="0.00" departDelay="2.00" arrival="103.00" arrivalLane="485211947#0_0" arrivalPos="164.47" arrivalSpeed="15.84" duration="95.00" routeLength="188.26" waitingTime="67.00" waitingCount="1" stopTime="0.00" timeLoss="82.98" rerouteNo="0" devices="tripinfo_flow_route_45_duration_20250327_1910.2" vType="car" speedFactor="1.05" vaporized=""/>
    <tripinfo id="flow_route_44_duration_20250327_1910.5" depart="17.00" departLane="791826085_0" departPos="102.36" departSpeed="0.00" departDelay="1.22" arrival="103.00" arrivalLane="134193294#0_1" arrivalPos="11.49" arrivalSpeed="10.74" duration="86.00" routeLength="263.50" waitingTime="36.00" waitingCount="1" stopTime="0.00" timeLoss="68.71" rerouteNo="0" devices="tripinfo_flow_route_44_duration_20250327_1910.5" vType="car" speedFactor="0.93" vaporized=""/>
    <tripinfo id="flow_route_46_duration_20250327_1910.1" depart="5.00" departLane="791826085_0" departPos="206.60" departSpeed="0.00" departDelay="1.84" arrival="104.00" arrivalLane="1328664748#0_1" arrivalPos="71.63" arrivalSpeed="13.19" duration="99.00" routeLength="213.83" waitingTime="54.00" waitingCount="2" stopTime="0.00" timeLoss="82.79" rerouteNo="0" devices="tripinfo_flow_route_46_duration_20250327_1910.1" vType="car" speedFactor="0.86" vaporized=""/>
    <tripinfo id="flow_route_46_duration_20250327_1910.3" depart="10.00" departLane="791826085_0" departPos="78.72" departSpeed="0.00" departDelay="0.53" arrival="104.00" arrivalLane="1328664748#0_1" arrivalPos="49.64" arrivalSpeed="11.95" duration="94.00" routeLength="319.71" waitingTime="50.00" waitingCount="1" stopTime="0.00" timeLoss="73.58" rerouteNo="0" devices="tripinfo_flow_route_46_duration_20250327_1910.3" vType="car" speedFactor="1.02" vaporized=""/>
    <tripinfo id="flow_route_46_duration_20250327_1910.4" depart="14.00" departLane="791826085_0" departPos="311.42" departSpeed="0.00" departDelay="1.37" arrival="104.00" arrivalLane="1328664748#0_1" arrivalPos="153.88" arrivalSpeed="13.75" duration="90.00" routeLength="191.24" waitingTime="58.00" waitingCount="2" stopTime="0.00" timeLoss="74.32" rerouteNo="0" devices="tripinfo_flow_route_46_duration_20250327_1910.4" vType="car" speedFactor="0.83" vaporized=""/>
    <tripinfo id="flow_route_45_duration_20250327_1910.4" depart="14.00" departLane="791826085_0" departPos="160.64" departSpeed="0.00" departDelay="2.00" arrival="105.00" arrivalLane="485211947#0_0" arrivalPos="16.49" arrivalSpeed="7.88" duration="91.00" routeLength="191.61" waitingTime="47.00" waitingCount="1" stopTime="0.00" timeLoss="78.86" rerouteNo="0" devices="tripinfo_flow_route_45_duration_20250327_1910.4" vType="car" speedFactor="1.01" vaporized=""/>
    <tripinfo id="flow_route_46_duration_20250327_1910.5" depart="17.00" departLane="791826085_0" departPos="110.56" departSpeed="0.00" departDelay="1.22" arrival="105.00" arrivalLane="1328664748#0_1" arrivalPos="39.82" arrivalSpeed="11.79" duration="88.00" routeLength="278.05" waitingTime="47.00" waitingCount="1" stopTime="0.00" timeLoss="70.61" rerouteNo="0" devices="tripinfo_flow_route_46_duration_20250327_1910.5" vType="car" speedFactor="1.18" vaporized=""/>
    <tripinfo id="flow_route_44_duration_20250327_1910.6" depart="23.00" departLane="791826085_0" departPos="7.78" departSpeed="0.00" departDelay="4.06" arrival="105.00" arrivalLane="134193294#0_1" arrivalPos="8.04" arrivalSpeed="11.33" duration="82.00" routeLength="354.63" waitingTime="36.00" waitingCount="1" stopTime="0.00" timeLoss="60.24" rerouteNo="0" devices="tripinfo_flow_route_44_duration_20250327_1910.6" vType="car" speedFactor="1.17" vaporized=""/>
    <tripinfo id="flow_route_46_duration_20250327_1910.6" depart="25.00" departLane="791826085_0" departPos="160.68" departSpeed="0.00" departDelay="6.06" arrival="105.00" arrivalLane="1328664748#0_1" arrivalPos="17.80" arrivalSpeed="10.72" duration="80.00" routeLength="205.91" waitingTime="43.00" waitingCount="1" stopTime="0.00" timeLoss="66.56" rerouteNo="0" devices="tripinfo_flow_route_46_duration_20250327_1910.6" vType="car" speedFactor="0.99" vaporized=""/>
    <tripinfo id="flow_route_44_duration_20250327_1910.7" depart="25.00" departLane="791826085_0" departPos="231.80" departSpeed="0.00" departDelay="2.90" arrival="106.00" arrivalLane="134193294#0_1" arrivalPos="62.64" arrivalSpeed="13.58" duration="81.00" routeLength="185.22" waitingTime="45.00" waitingCount="1" stopTime="0.00" timeLoss="67.94" rerouteNo="0" devices="tripinfo_flow_route_44_duration_20250327_1910.7" vType="car" speedFactor="0.90" vaporized=""/>
    <tripinfo id="flow_route_46_duration_20250327_1910.0" depart="1.00" departLane="791826085_0" departPos="184.68" departSpeed="0.00" departDelay="1.00" arrival="107.00" arrivalLane="1328664748#0_1" arrivalPos="165.37" arrivalSpeed="16.26" duration="106.00" routeLength="329.48" waitingTime="54.00" waitingCount="1" stopTime="0.00" timeLoss="84.45" rerouteNo="0" devices="tripinfo_flow_route_46_duration_20250327_1910.0" vType="car" speedFactor="1.05" vaporized=""/>
    <tripinfo id="flow_route_44_duration_20250327_1910.1" depart="5.00" departLane="791826085_0" departPos="100.14" departSpeed="0.00" departDelay="1.84" arrival="107.00" arrivalLane="134193294#0_1" arrivalPos="150.20" arrivalSpeed="15.41" duration="102.00" routeLength="404.42" waitingTime="51.00" waitingCount="1" stopTime="0.00" timeLoss="76.05" rerouteNo="0" devices="tripinfo_flow_route_44_duration_20250327_1910.1" vType="car" speedFactor="0.94" vaporized=""/>
    <tripinfo id="flow_route_44_duration_20250327_1910.8" depart="27.00" departLane="791826085_0" departPos="254.71" departSpeed="0.00" departDelay="1.74" arrival="107.00" arrivalLane="134193294#0_0" arrivalPos="50.83" arrivalSpeed="13.13" duration="80.00" routeLength="150.49" waitingTime="49.00" waitingCount="1" stopTime="0.00" timeLoss="70.66" rerouteNo="0" devices="tripinfo_flow_route_44_duration_20250327_1910.8" vType="car" speedFactor="1.04" vaporized=""/>
    <tripinfo id="flow_route_45_duration_20250327_1910.3" depart="9.00" departLane="791826085_0" departPos="134.15" departSpeed="0.00" departDelay="0.00" arrival="109.00" arrivalLane="485211947#0_0" arrivalPos="23.97" arrivalSpeed="8.03" duration="100.00" routeLength="225.58" waitingTime="47.00" waitingCount="1" stopTime="0.00" timeLoss="84.28" rerouteNo="0" devices="tripinfo_flow_route_45_duration_20250327_1910.3" vType="car" speedFactor="0.94" vaporized=""/>
    <tripinfo id="flow_route_45_duration_20250327_1910.6" depart="22.00" departLane="791826085_0" departPos="269.23" departSpeed="0.00" departDelay="4.00" arrival="109.00" arrivalLane="485211947#0_0" arrivalPos="105.09" arrivalSpeed="14.00" duration="87.00" routeLength="171.62" waitingTime="51.00" waitingCount="1" stopTime="0.00" timeLoss="75.33" rerouteNo="0" devices="tripinfo_flow_route_45_duration_20250327_1910.6" vType="car" speedFactor="1.01" vaporized=""/>
    <tripinfo id="flow_route_45_duration_20250327_1910.8" depart="25.00" departLane="791826085_0" departPos="284.98" departSpeed="0.00" departDelay="1.00" arrival="110.00" arrivalLane="485211947#0_0" arrivalPos="162.23" arrivalSpeed="15.66" duration="85.00" routeLength="213.01" waitingTime="53.00" waitingCount="1" stopTime="0.00" timeLoss="70.51" rerouteNo="0" devices="tripinfo_flow_route_45_duration_20250327_1910.8" vType="car" speedFactor="0.96" vaporized=""/>
    <tripinfo id="flow_route_44_duration_20250327_1910.2" depart="8.00" departLane="791826085_0" departPos="9.73" departSpeed="0.00" departDelay="1.69" arrival="112.00" arrivalLane="134193294#0_2" arrivalPos="5.56" arrivalSpeed="11.91" duration="104.00" routeLength="350.20" waitingTime="41.00" waitingCount="2" stopTime="0.00" timeLoss="82.66" rerouteNo="0" devices="tripinfo_flow_route_44_duration_20250327_1910.2" vType="car" speedFactor="0.99" vaporized=""/>
    <tripinfo id="flow_route_46_duration_20250327_1910.10" depart="36.00" departLane="791826085_0" departPos="214.80" departSpeed="0.00" departDelay="4.43" arrival="112.00" arrivalLane="1328664748#0_1" arrivalPos="61.69" arrivalSpeed="14.19" duration="76.00" routeLength="195.68" waitingTime="42.00" waitingCount="1" stopTime="0.00" timeLoss="63.41" rerouteNo="0" devices="tripinfo_flow_route_46_duration_20250327_1910.10" vType="car" speedFactor="1.00" vaporized=""/>
    <tripinfo id="flow_route_46_duration_20250327_1910.11" depart="42.00" departLane="791826085_0" departPos="261.47" departSpeed="0.00" departDelay="7.27" arrival="112.00" arrivalLane="1328664748#0_1" arrivalPos="76.94" arrivalSpeed="14.68" duration="70.00" routeLength="164.26" waitingTime="40.00" waitingCount="1" stopTime="0.00" timeLoss="58.98" rerouteNo="0" devices="tripinfo_flow_route_46_duration_20250327_1910.11" vType="car" speedFactor="1.12" vaporized=""/>
    <tripinfo id="flow_route_44_duration_20250327_1910.4" depart="14.00" departLane="791826085_0" departPos="54.92" departSpeed="0.00" departDelay="1.37" arrival="114.00" arrivalLane="134193294#0_1" arrivalPos="102.28" arrivalSpeed="14.76" duration="100.00" routeLength="401.73" waitingTime="33.00" waitingCount="1" stopTime="0.00" timeLoss="72.40" rerouteNo="0" devices="tripinfo_flow_route_44_duration_20250327_1910.4" vType="car" speedFactor="0.89" vaporized=""/>
    <tripinfo id="flow_route_44_duration_20250327_1910.10" depart="32.00" departLane="791826085_0" departPos="33.55" departSpeed="0.00" departDelay="0.43" arrival="115.00" arrivalLane="134193294#0_1" arrivalPos="101.05" arrivalSpeed="15.66" duration="83.00" routeLength="421.87" waitingTime="31.00" waitingCount="1" stopTime="0.00" timeLoss="57.56" rerouteNo="0" devices="tripinfo_flow_route_44_duration_20250327_1910.10" vType="car" speedFactor="1.00" vaporized=""/>
    <tripinfo id="flow_route_44_duration_20250327_1910.12" depart="42.00" departLane="791826085_0" departPos="189.01" departSpeed="0.00" departDelay="4.12" arrival="115.00" arrivalLane="134193294#0_1" arrivalPos="70.65" arrivalSpeed="14.50" duration="73.00" routeLength="236.01" waitingTime="30.00" waitingCount="2" stopTime="0.00" timeLoss="58.26" rerouteNo="0" devices="tripinfo_flow_route_44_duration_20250327_1910.12" vType="car" speedFactor="0.99" vaporized=""/>
    <tripinfo id="flow_route_44_duration_20250327_1910.11" depart="42.00" departLane="791826085_0" departPos="119.53" departSpeed="0.00" departDelay="7.27" arrival="116.00" arrivalLane="134193294#0_1" arrivalPos="28.73" arrivalSpeed="13.75" duration="74.00" routeLength="263.57" waitingTime="27.00" waitingCount="2" stopTime="0.00" timeLoss="57.88" rerouteNo="0" devices="tripinfo_flow_route_44_duration_20250327_1910.11" vType="car" speedFactor="1.08" vaporized=""/>
    <tripinfo id="flow_route_44_duration_20250327_1910.13" depart="43.00" departLane="791826085_0" departPos="73.70" departSpeed="0.00" departDelay="1.96" arrival="116.00" arrivalLane="134193294#0_1" arrivalPos="55.48" arrivalSpeed="15.19" duration="73.00" routeLength="336.15" waitingTime="26.00" waitingCount="1" stopTime="0.00" timeLoss="52.64" rerouteNo="0" devices="tripinfo_flow_route_44_duration_20250327_1910.13" vType="car" speedFactor="1.02" vaporized=""/>
    <tripinfo id="flow_route_45_duration_20250327_1910.1" depart="3.00" departLane="791826085_0" departPos="19.65" departSpeed="0.00" departDelay="0.00" arrival="119.00" arrivalLane="485211947#0_0" arrivalPos="49.01" arrivalSpeed="10.04" duration="116.00" routeLength="365.12" waitingTime="40.00" waitingCount="1" stopTime="0.00" timeLoss="89.81" rerouteNo="0" devices="tripinfo_flow_route_45_duration_20250327_1910.1" vType="car" speedFactor="0.89" vaporized=""/>
    <tripinfo id="flow_route_45_duration_20250327_1910.7" depart="25.00" departLane="791826085_0" departPos="138.64" departSpeed="0.00" departDelay="4.00" arrival="120.00" arrivalLane="485211947#0_0" arrivalPos="113.97" arrivalSpeed="14.95" duration="95.00" routeLength="311.10" waitingTime="42.00" waitingCount="1" stopTime="0.00" timeLoss="75.60" rerouteNo="0" devices="tripinfo_flow_route_45_duration_20250327_1910.7" vType="car" speedFactor="1.18" vaporized=""/>
    <tripinfo id="flow_route_46_duration_20250327_1910.8" depart="27.00" departLane="791826085_0" departPos="91.71" departSpeed="0.00" departDelay="1.74" arrival="120.00" arrivalLane="1328664748#0_1" arrivalPos="91.46" arrivalSpeed="15.94" duration="93.00" routeLength="348.54" waitingTime="38.00" waitingCount="1" stopTime="0.00" timeLoss="70.90" rerouteNo="0" devices="tripinfo_flow_route_46_duration_20250327_1910.8" vType="car" speedFactor="1.09" vaporized=""/>
    <tripinfo id="flow_route_46_duration_20250327_1910.12" depart="42.00" departLane="791826085_0" departPos="42.23" departSpeed="0.00" departDelay="4.12" arrival="122.00" arrivalLane="1328664748#0_1" arrivalPos="25.44" arrivalSpeed="10.66" duration="80.00" routeLength="332.00" waitingTime="26.00" waitingCount="1" stopTime="0.00" timeLoss="57.52" rerouteNo="0" devices="tripinfo_flow_route_46_duration_20250327_1910.12" vType="car" speedFactor="0.94" vaporized=""/>
    <tripinfo id="flow_route_44_duration_20250327_1910.14" depart="48.00" departLane="791826085_0" departPos="2.39" departSpeed="0.00" departDelay="3.80" arrival="122.00" arrivalLane="134193294#0_1" arrivalPos="79.91" arrivalSpeed="15.95" duration="74.00" routeLength="431.89" waitingTime="15.00" waitingCount="1" stopTime="0.00" timeLoss="47.04" rerouteNo="0" devices="tripinfo_flow_route_44_duration_20250327_1910.14" vType="car" speedFactor="0.98" vaporized=""/>
    <tripinfo id="flow_route_45_duration_20250327_1910.10" depart="32.00" departLane="791826085_0" departPos="186.98" departSpeed="0.00" departDelay="2.00" arrival="123.00" arrivalLane="485211947#0_0" arrivalPos="181.25" arrivalSpeed="16.15" duration="91.00" routeLength="330.03" waitingTime="42.00" waitingCount="1" stopTime="0.00" timeLoss="69.64" rerouteNo="0" devices="tripinfo_flow_route_45_duration_20250327_1910.10" vType="car" speedFactor="1.10" vaporized=""/>
    <tripinfo id="flow_route_46_duration_20250327_1910.7" depart="25.00" departLane="791826085_0" departPos="148.64" departSpeed="0.00" departDelay="2.90" arrival="124.00" arrivalLane="1328664748#0_1" arrivalPos="217.33" arrivalSpeed="16.21" duration="99.00" routeLength="417.48" waitingTime="40.00" waitingCount="1" stopTime="0.00" timeLoss="72.66" rerouteNo="0" devices="tripinfo_flow_route_46_duration_20250327_1910.7" vType="car" speedFactor="1.03" vaporized=""/>
    <tripinfo id="flow_route_46_duration_20250327_1910.16" depart="65.00" departLane="791826085_0" departPos="155.32" departSpeed="0.00" departDelay="14.49" arrival="124.00" arrivalLane="1328664748#0_1" arrivalPos="24.40" arrivalSpeed="11.59" duration="59.00" routeLength="217.87" waitingTime="19.00" waitingCount="1" stopTime="0.00" timeLoss="44.81" rerouteNo="0" devices="tripinfo_flow_route_46_duration_20250327_1910.16" vType="car" speedFactor="1.00" vaporized=""/>
    <tripinfo id="flow_route_46_duration_20250327_1910.13" depart="48.00" departLane="791826085_0" departPos="148.62" departSpeed="0.00" departDelay="6.96" arrival="126.00" arrivalLane="1328664748#0_1" arrivalPos="98.92" arrivalSpeed="13.89" duration="78.00" routeLength="299.09" waitingTime="26.00" waitingCount="1" stopTime="0.00" timeLoss="58.26" rerouteNo="0" devices="tripinfo_flow_route_46_duration_20250327_1910.13" vType="car" speedFactor="0.97" vaporized=""/>
    <tripinfo id="flow_route_45_duration_20250327_1910.14" depart="46.00" departLane="791826085_0" departPos="185.43" departSpeed="0.00" departDelay="4.00" arrival="127.00" arrivalLane="485211947#0_0" arrivalPos="133.99" arrivalSpeed="15.46" duration="81.00" routeLength="284.32" waitingTime="34.00" waitingCount="1" stopTime="0.00" timeLoss="62.75" rerouteNo="0" devices="tripinfo_flow_route_45_duration_20250327_1910.14" vType="car" speedFactor="1.02" vaporized=""/>
    <tripinfo id="flow_route_44_duration_20250327_1910.15" depart="57.00" departLane="791826085_0" departPos="69.04" departSpeed="0.00" departDelay="9.65" arrival="128.00" arrivalLane="134193294#0_1" arrivalPos="127.12" arrivalSpeed="16.38" duration="71.00" routeLength="412.45" waitingTime="13.00" waitingCount="1" stopTime="0.00" timeLoss="45.99" rerouteNo="0" devices="tripinfo_flow_route_44_duration_20250327_1910.15" vType="car" speedFactor="1.03" vaporized=""/>
    <tripinfo id="flow_route_45_duration_20250327_1910.9" depart="27.00" departLane="791826085_0" departPos="40.54" departSpeed="0.00" departDelay="0.00" arrival="129.00" arrivalLane="485211947#0_0" arrivalPos="86.41" arrivalSpeed="12.82" duration="102.00" routeLength="381.63" waitingTime="33.00" waitingCount="1" stopTime="0.00" timeLoss="75.20" rerouteNo="0" devices="tripinfo_flow_route_45_duration_20250327_1910.9" vType="car" speedFactor="0.90" vaporized=""/>
    <tripinfo id="flow_route_44_duration_20250327_1910.16" depart="60.00" departLane="791826085_0" departPos="111.84" departSpeed="0.00" departDelay="9.49" arrival="129.00" arrivalLane="134193294#0_1" arrivalPos="168.50" arrivalSpeed="16.25" duration="69.00" routeLength="411.04" waitingTime="15.00" waitingCount="1" stopTime="0.00" timeLoss="43.91" rerouteNo="0" devices="tripinfo_flow_route_44_duration_20250327_1910.16" vType="car" speedFactor="1.15" vaporized=""/>
    <tripinfo id="flow_route_45_duration_20250327_1910.11" depart="40.00" departLane="791826085_0" departPos="150.96" departSpeed="0.00" departDelay="7.00" arrival="130.00" arrivalLane="485211947#0_0" arrivalPos="118.79" arrivalSpeed="14.10" duration="90.00" routeLength="303.59" waitingTime="33.00" waitingCount="1" stopTime="0.00" timeLoss="67.73" rerouteNo="0" devices="tripinfo_flow_route_45_duration_20250327_1910.11" vType="car" speedFactor="0.90" vaporized=""/>