<?xml version="1.0" encoding="UTF-8"?>

<!-- generated on 2025-05-06 16:33:58 by Eclipse SUMO sumo Version 1.20.0
<configuration xmlns:xsi="http://www.w3.org/2001/XMLSchema-instance" xsi:noNamespaceSchemaLocation="http://sumo.dlr.de/xsd/sumoConfiguration.xsd">

    <input>
        <net-file value="osm.net.xml"/>
        <route-files value="xml/routes_ddpg_11644940310.rou.xml"/>
    </input>

    <output>
        <tripinfo-output value="xml/tripinfo_42361.xml"/>
    </output>

    <traci_server>
        <remote-port value="43297"/>
    </traci_server>

</configuration>
-->

<tripinfos xmlns:xsi="http://www.w3.org/2001/XMLSchema-instance" xsi:noNamespaceSchemaLocation="http://sumo.dlr.de/xsd/tripinfo_file.xsd">
    <tripinfo id="flow_route_27_duration_20250327_2110.0" depart="0.00" departLane="1254771874#0_0" departPos="190.47" departSpeed="0.00" departDelay="0.00" arrival="15.00" arrivalLane="138002006#0_1" arrivalPos="4.04" arrivalSpeed="9.09" duration="15.00" routeLength="85.46" waitingTime="0.00" waitingCount="0" stopTime="0.00" timeLoss="8.79" rerouteNo="0" devices="tripinfo_flow_route_27_duration_20250327_2110.0" vType="car" speedFactor="1.01" vaporized=""/>
    <tripinfo id="flow_route_41_duration_20250327_2110.1" depart="6.00" departLane="1369578054_0" departPos="262.36" departSpeed="0.00" departDelay="0.00" arrival="31.00" arrivalLane="138002006#0_0" arrivalPos="5.35" arrivalSpeed="6.72" duration="25.00" routeLength="64.92" waitingTime="5.00" waitingCount="1" stopTime="0.00" timeLoss="20.28" rerouteNo="0" devices="tripinfo_flow_route_41_duration_20250327_2110.1" vType="car" speedFactor="0.89" vaporized=""/>
    <tripinfo id="flow_route_50_duration_20250327_2110.0" depart="0.00" departLane="-138002006#3_0" departPos="41.39" departSpeed="0.00" departDelay="0.00" arrival="32.00" arrivalLane="-422986370#2_0" arrivalPos="13.06" arrivalSpeed="7.16" duration="32.00" routeLength="82.72" waitingTime="10.00" waitingCount="1" stopTime="0.00" timeLoss="25.85" rerouteNo="0" devices="tripinfo_flow_route_50_duration_20250327_2110.0" vType="car" speedFactor="0.83" vaporized=""/>
    <tripinfo id="flow_route_41_duration_20250327_2110.2" depart="13.00" departLane="1369578054_0" departPos="247.00" departSpeed="0.00" departDelay="1.00" arrival="35.00" arrivalLane="138002006#0_0" arrivalPos="27.26" arrivalSpeed="9.30" duration="22.00" routeLength="102.19" waitingTime="0.00" waitingCount="0" stopTime="0.00" timeLoss="15.84" rerouteNo="0" devices="tripinfo_flow_route_41_duration_20250327_2110.2" vType="car" speedFactor="1.09" vaporized=""/>
    <tripinfo id="flow_route_41_duration_20250327_2110.0" depart="0.00" departLane="1369578054_0" departPos="201.66" departSpeed="0.00" departDelay="0.00" arrival="36.00" arrivalLane="138002006#0_1" arrivalPos="52.37" arrivalSpeed="10.69" duration="36.00" routeLength="172.64" waitingTime="5.00" waitingCount="1" stopTime="0.00" timeLoss="25.37" rerouteNo="0" devices="tripinfo_flow_route_41_duration_20250327_2110.0" vType="car" speedFactor="1.03" vaporized=""/>
    <tripinfo id="flow_route_26_duration_20250327_2110.0" depart="0.00" departLane="1254771874#0_0" departPos="139.38" departSpeed="0.00" departDelay="0.00" arrival="38.00" arrivalLane="-422986370#2_0" arrivalPos="213.43" arrivalSpeed="15.47" duration="38.00" routeLength="338.64" waitingTime="0.00" waitingCount="0" stopTime="0.00" timeLoss="16.01" rerouteNo="0" devices="tripinfo_flow_route_26_duration_20250327_2110.0" vType="car" speedFactor="0.94" vaporized=""/>
    <tripinfo id="flow_route_40_duration_20250327_2110.1" depart="12.00" departLane="1369578054_0" departPos="189.81" departSpeed="0.00" departDelay="0.00" arrival="42.00" arrivalLane="1341093415#0_0" arrivalPos="91.43" arrivalSpeed="12.68" duration="30.00" routeLength="212.54" waitingTime="0.00" waitingCount="0" stopTime="0.00" timeLoss="14.93" rerouteNo="0" devices="tripinfo_flow_route_40_duration_20250327_2110.1" vType="car" speedFactor="0.86" vaporized=""/>
    <tripinfo id="flow_route_40_duration_20250327_2110.0" depart="0.00" departLane="1369578054_0" departPos="1.81" departSpeed="0.00" departDelay="0.00" arrival="44.00" arrivalLane="1341093415#0_0" arrivalPos="87.60" arrivalSpeed="13.02" duration="44.00" routeLength="396.71" waitingTime="0.00" waitingCount="0" stopTime="0.00" timeLoss="18.88" rerouteNo="0" devices="tripinfo_flow_route_40_duration_20250327_2110.0" vType="car" speedFactor="1.08" vaporized=""/>
    <tripinfo id="flow_route_41_duration_20250327_2110.4" depart="25.00" departLane="1369578054_0" departPos="205.27" departSpeed="0.00" departDelay="1.00" arrival="44.00" arrivalLane="138002006#0_0" arrivalPos="14.12" arrivalSpeed="14.20" duration="19.00" routeLength="130.78" waitingTime="0.00" waitingCount="0" stopTime="0.00" timeLoss="9.90" rerouteNo="0" devices="tripinfo_flow_route_41_duration_20250327_2110.4" vType="car" speedFactor="0.93" vaporized=""/>
    <tripinfo id="flow_route_41_duration_20250327_2110.3" depart="18.00" departLane="1369578054_0" departPos="70.93" departSpeed="0.00" departDelay="0.00" arrival="47.00" arrivalLane="138002006#0_1" arrivalPos="48.32" arrivalSpeed="16.45" duration="29.00" routeLength="299.32" waitingTime="0.00" waitingCount="0" stopTime="0.00" timeLoss="10.68" rerouteNo="0" devices="tripinfo_flow_route_41_duration_20250327_2110.3" vType="car" speedFactor="1.05" vaporized=""/>
    <tripinfo id="flow_route_51_duration_20250327_2110.0" depart="2.00" departLane="-138002006#3_0" departPos="23.48" departSpeed="0.00" departDelay="2.00" arrival="52.00" arrivalLane="1341093415#0_3" arrivalPos="132.48" arrivalSpeed="15.31" duration="50.00" routeLength="212.67" waitingTime="14.00" waitingCount="2" stopTime="0.00" timeLoss="35.41" rerouteNo="0" devices="tripinfo_flow_route_51_duration_20250327_2110.0" vType="car" speedFactor="1.05" vaporized=""/>
    <tripinfo id="flow_route_51_duration_20250327_2110.1" depart="30.00" departLane="-138002006#3_0" departPos="7.90" departSpeed="0.00" departDelay="0.00" arrival="52.00" arrivalLane="1341093415#0_3" arrivalPos="47.07" arrivalSpeed="11.30" duration="22.00" routeLength="142.84" waitingTime="0.00" waitingCount="0" stopTime="0.00" timeLoss="12.46" rerouteNo="0" devices="tripinfo_flow_route_51_duration_20250327_2110.1" vType="car" speedFactor="1.01" vaporized=""/>
    <tripinfo id="flow_route_50_duration_20250327_2110.1" depart="30.00" departLane="-138002006#3_0" departPos="72.06" departSpeed="0.00" departDelay="0.00" arrival="60.00" arrivalLane="-422986370#2_0" arrivalPos="288.93" arrivalSpeed="16.40" duration="30.00" routeLength="327.91" waitingTime="0.00" waitingCount="0" stopTime="0.00" timeLoss="10.24" rerouteNo="0" devices="tripinfo_flow_route_50_duration_20250327_2110.1" vType="car" speedFactor="1.02" vaporized=""/>
    <tripinfo id="flow_route_27_duration_20250327_2110.1" depart="9.00" departLane="1254771874#0_0" departPos="11.81" departSpeed="0.00" departDelay="1.50" arrival="74.00" arrivalLane="138002006#0_1" arrivalPos="28.58" arrivalSpeed="8.49" duration="65.00" routeLength="288.66" waitingTime="22.00" waitingCount="1" stopTime="0.00" timeLoss="46.52" rerouteNo="0" devices="tripinfo_flow_route_27_duration_20250327_2110.1" vType="car" speedFactor="0.94" vaporized=""/>
    <tripinfo id="flow_route_26_duration_20250327_2110.1" depart="30.00" departLane="1254771874#0_0" departPos="42.93" departSpeed="0.00" departDelay="0.00" arrival="75.00" arrivalLane="-422986370#2_0" arrivalPos="38.75" arrivalSpeed="9.20" duration="45.00" routeLength="260.42" waitingTime="5.00" waitingCount="1" stopTime="0.00" timeLoss="28.03" rerouteNo="0" devices="tripinfo_flow_route_26_duration_20250327_2110.1" vType="car" speedFactor="0.94" vaporized=""/>
    <tripinfo id="flow_route_27_duration_20250327_2110.4" depart="30.00" departLane="1254771874#0_0" departPos="146.11" departSpeed="0.00" departDelay="0.00" arrival="75.00" arrivalLane="138002006#0_1" arrivalPos="11.13" arrivalSpeed="7.25" duration="45.00" routeLength="136.91" waitingTime="16.00" waitingCount="1" stopTime="0.00" timeLoss="35.59" rerouteNo="0" devices="tripinfo_flow_route_27_duration_20250327_2110.4" vType="car" speedFactor="0.94" vaporized=""/>
    <tripinfo id="flow_route_27_duration_20250327_2110.3" depart="23.00" departLane="1254771874#0_0" departPos="77.14" departSpeed="0.00" departDelay="0.50" arrival="76.00" arrivalLane="138002006#0_1" arrivalPos="2.88" arrivalSpeed="7.52" duration="53.00" routeLength="197.63" waitingTime="15.00" waitingCount="1" stopTime="0.00" timeLoss="40.14" rerouteNo="0" devices="tripinfo_flow_route_27_duration_20250327_2110.3" vType="car" speedFactor="1.12" vaporized=""/>
    <tripinfo id="flow_route_25_duration_20250327_2110.1" depart="30.00" departLane="1254771874#0_0" departPos="57.04" departSpeed="0.00" departDelay="0.00" arrival="76.00" arrivalLane="1341093415#0_1" arrivalPos="59.05" arrivalSpeed="11.03" duration="46.00" routeLength="279.80" waitingTime="6.00" waitingCount="1" stopTime="0.00" timeLoss="28.65" rerouteNo="0" devices="tripinfo_flow_route_25_duration_20250327_2110.1" vType="car" speedFactor="0.88" vaporized=""/>
    <tripinfo id="flow_route_27_duration_20250327_2110.2" depart="15.00" departLane="1254771874#0_0" departPos="101.37" departSpeed="0.00" departDelay="0.00" arrival="77.00" arrivalLane="138002006#0_1" arrivalPos="78.79" arrivalSpeed="11.91" duration="62.00" routeLength="249.31" waitingTime="23.00" waitingCount="1" stopTime="0.00" timeLoss="46.24" rerouteNo="0" devices="tripinfo_flow_route_27_duration_20250327_2110.2" vType="car" speedFactor="1.03" vaporized=""/>
    <tripinfo id="flow_route_27_duration_20250327_2110.6" depart="46.00" departLane="1254771874#0_0" departPos="38.81" departSpeed="0.00" departDelay="1.00" arrival="82.00" arrivalLane="138002006#0_1" arrivalPos="16.28" arrivalSpeed="9.34" duration="36.00" routeLength="249.36" waitingTime="0.00" waitingCount="0" stopTime="0.00" timeLoss="19.55" rerouteNo="0" devices="tripinfo_flow_route_27_duration_20250327_2110.6" vType="car" speedFactor="0.92" vaporized=""/>
    <tripinfo id="flow_route_27_duration_20250327_2110.7" depart="53.00" departLane="1254771874#0_0" departPos="45.75" departSpeed="0.00" departDelay="0.50" arrival="82.00" arrivalLane="138002006#0_1" arrivalPos="5.95" arrivalSpeed="8.26" duration="29.00" routeLength="232.08" waitingTime="0.00" waitingCount="0" stopTime="0.00" timeLoss="14.10" rerouteNo="0" devices="tripinfo_flow_route_27_duration_20250327_2110.7" vType="car" speedFactor="0.93" vaporized=""/>
    <tripinfo id="flow_route_25_duration_20250327_2110.0" depart="0.00" departLane="1254771874#0_0" departPos="63.27" departSpeed="0.00" departDelay="0.00" arrival="83.00" arrivalLane="1341093415#0_0" arrivalPos="158.81" arrivalSpeed="16.47" duration="83.00" routeLength="373.33" waitingTime="37.00" waitingCount="1" stopTime="0.00" timeLoss="60.25" rerouteNo="0" devices="tripinfo_flow_route_25_duration_20250327_2110.0" vType="car" speedFactor="1.06" vaporized=""/>
    <tripinfo id="flow_route_27_duration_20250327_2110.5" depart="38.00" departLane="1254771874#0_0" departPos="125.91" departSpeed="0.00" departDelay="0.50" arrival="86.00" arrivalLane="138002006#0_1" arrivalPos="85.21" arrivalSpeed="13.35" duration="48.00" routeLength="231.19" waitingTime="8.00" waitingCount="1" stopTime="0.00" timeLoss="31.04" rerouteNo="0" devices="tripinfo_flow_route_27_duration_20250327_2110.5" vType="car" speedFactor="0.83" vaporized=""/>
    <tripinfo id="flow_route_41_duration_20250327_2110.7" depart="42.00" departLane="1369578054_0" departPos="286.13" departSpeed="0.00" departDelay="0.00" arrival="94.00" arrivalLane="138002006#0_0" arrivalPos="14.95" arrivalSpeed="7.81" duration="52.00" routeLength="50.75" waitingTime="37.00" waitingCount="1" stopTime="0.00" timeLoss="48.03" rerouteNo="0" devices="tripinfo_flow_route_41_duration_20250327_2110.7" vType="car" speedFactor="0.87" vaporized=""/>
    <tripinfo id="flow_route_41_duration_20250327_2110.8" depart="48.00" departLane="1369578054_0" departPos="278.10" departSpeed="0.00" departDelay="0.00" arrival="95.00" arrivalLane="138002006#0_1" arrivalPos="24.75" arrivalSpeed="9.00" duration="47.00" routeLength="68.58" waitingTime="29.00" waitingCount="1" stopTime="0.00" timeLoss="42.41" rerouteNo="0" devices="tripinfo_flow_route_41_duration_20250327_2110.8" vType="car" speedFactor="1.13" vaporized=""/>
    <tripinfo id="flow_route_41_duration_20250327_2110.5" depart="30.00" departLane="1369578054_0" departPos="72.33" departSpeed="0.00" departDelay="0.00" arrival="98.00" arrivalLane="138002006#0_1" arrivalPos="36.52" arrivalSpeed="9.99" duration="68.00" routeLength="286.12" waitingTime="27.00" waitingCount="1" stopTime="0.00" timeLoss="50.58" rerouteNo="0" devices="tripinfo_flow_route_41_duration_20250327_2110.5" vType="car" speedFactor="1.16" vaporized=""/>
    <tripinfo id="flow_route_40_duration_20250327_2110.4" depart="48.00" departLane="1369578054_0" departPos="163.83" departSpeed="0.00" departDelay="0.00" arrival="101.00" arrivalLane="1341093415#0_0" arrivalPos="4.96" arrivalSpeed="7.93" duration="53.00" routeLength="152.05" waitingTime="22.00" waitingCount="1" stopTime="0.00" timeLoss="41.94" rerouteNo="0" devices="tripinfo_flow_route_40_duration_20250327_2110.4" vType="car" speedFactor="0.95" vaporized=""/>
    <tripinfo id="flow_route_41_duration_20250327_2110.6" depart="39.00" departLane="1369578054_0" departPos="173.81" departSpeed="0.00" departDelay="3.00" arrival="104.00" arrivalLane="138002006#0_0" arrivalPos="63.52" arrivalSpeed="12.21" duration="65.00" routeLength="211.64" waitingTime="29.00" waitingCount="1" stopTime="0.00" timeLoss="50.01" rerouteNo="0" devices="tripinfo_flow_route_41_duration_20250327_2110.6" vType="car" speedFactor="0.89" vaporized=""/>
    <tripinfo id="flow_route_40_duration_20250327_2110.3" depart="36.00" departLane="1369578054_0" departPos="178.65" departSpeed="0.00" departDelay="0.00" arrival="105.00" arrivalLane="1341093415#0_0" arrivalPos="119.09" arrivalSpeed="14.18" duration="69.00" routeLength="251.35" waitingTime="29.00" waitingCount="1" stopTime="0.00" timeLoss="52.23" rerouteNo="0" devices="tripinfo_flow_route_40_duration_20250327_2110.3" vType="car" speedFactor="0.97" vaporized=""/>
    <tripinfo id="flow_route_41_duration_20250327_2110.9" depart="54.00" departLane="1369578054_0" departPos="94.05" departSpeed="0.00" departDelay="0.00" arrival="105.00" arrivalLane="138002006#0_1" arrivalPos="88.08" arrivalSpeed="13.90" duration="51.00" routeLength="315.97" waitingTime="9.00" waitingCount="1" stopTime="0.00" timeLoss="31.56" rerouteNo="0" devices="tripinfo_flow_route_41_duration_20250327_2110.9" vType="car" speedFactor="1.18" vaporized=""/>
    <tripinfo id="flow_route_40_duration_20250327_2110.2" depart="25.00" departLane="1369578054_0" departPos="8.94" departSpeed="0.00" departDelay="1.00" arrival="109.00" arrivalLane="1341093415#0_0" arrivalPos="136.26" arrivalSpeed="15.52" duration="84.00" routeLength="438.25" waitingTime="28.00" waitingCount="1" stopTime="0.00" timeLoss="56.80" rerouteNo="0" devices="tripinfo_flow_route_40_duration_20250327_2110.2" vType="car" speedFactor="0.99" vaporized=""/>
</tripinfos>
