<?xml version="1.0" encoding="UTF-8"?>

<!-- generated on 2025-05-06 21:08:56 by Eclipse SUMO sumo Version 1.20.0
<configuration xmlns:xsi="http://www.w3.org/2001/XMLSchema-instance" xsi:noNamespaceSchemaLocation="http://sumo.dlr.de/xsd/sumoConfiguration.xsd">

    <input>
        <net-file value="osm.net.xml"/>
        <route-files value="xml/route_static_cluster_11648561428_407729599_7.rou.xml"/>
    </input>

    <output>
        <tripinfo-output value="xml/tripinfo_static_cluster_11648561428_407729599_7.xml"/>
    </output>

    <traci_server>
        <remote-port value="43203"/>
    </traci_server>

</configuration>
-->

<tripinfos xmlns:xsi="http://www.w3.org/2001/XMLSchema-instance" xsi:noNamespaceSchemaLocation="http://sumo.dlr.de/xsd/tripinfo_file.xsd">
    <tripinfo id="flow_route_106_duration_20250327_2120.0" depart="0.00" departLane="1254519229#0_0" departPos="19.69" departSpeed="0.00" departDelay="0.00" arrival="17.00" arrivalLane="430416184_1" arrivalPos="13.15" arrivalSpeed="9.33" duration="17.00" routeLength="94.14" waitingTime="0.00" waitingCount="0" stopTime="0.00" timeLoss="10.50" rerouteNo="0" devices="tripinfo_flow_route_106_duration_20250327_2120.0" vType="car" speedFactor="1.01" vaporized=""/>
    <tripinfo id="flow_route_107_duration_20250327_2120.0" depart="0.00" departLane="1254519229#0_0" departPos="43.39" departSpeed="0.00" departDelay="0.00" arrival="20.00" arrivalLane="1342963997_0" arrivalPos="88.24" arrivalSpeed="14.75" duration="20.00" routeLength="145.44" waitingTime="0.00" waitingCount="0" stopTime="0.00" timeLoss="10.92" rerouteNo="0" devices="tripinfo_flow_route_107_duration_20250327_2120.0" vType="car" speedFactor="1.08" vaporized=""/>
    <tripinfo id="flow_route_101_duration_20250327_2120.0" depart="0.00" departLane="186409193_0" departPos="43.42" departSpeed="0.00" departDelay="0.00" arrival="34.00" arrivalLane="430416184_0" arrivalPos="206.05" arrivalSpeed="16.21" duration="34.00" routeLength="297.12" waitingTime="0.00" waitingCount="0" stopTime="0.00" timeLoss="14.79" rerouteNo="0" devices="tripinfo_flow_route_101_duration_20250327_2120.0" vType="car" speedFactor="0.94" vaporized=""/>
    <tripinfo id="flow_route_107_duration_20250327_2120.1" depart="12.00" departLane="1254519229#0_0" departPos="35.97" departSpeed="0.00" departDelay="0.00" arrival="34.00" arrivalLane="1342963997_0" arrivalPos="120.84" arrivalSpeed="16.53" duration="22.00" routeLength="185.45" waitingTime="0.00" waitingCount="0" stopTime="0.00" timeLoss="10.18" rerouteNo="0" devices="tripinfo_flow_route_107_duration_20250327_2120.1" vType="car" speedFactor="1.05" vaporized=""/>
    <tripinfo id="flow_route_100_duration_20250327_2120.0" depart="0.00" departLane="186409193_0" departPos="2.55" departSpeed="0.00" departDelay="0.00" arrival="36.00" arrivalLane="1254519229#0_1" arrivalPos="70.90" arrivalSpeed="10.78" duration="36.00" routeLength="299.97" waitingTime="0.00" waitingCount="0" stopTime="0.00" timeLoss="17.19" rerouteNo="0" devices="tripinfo_flow_route_100_duration_20250327_2120.0" vType="car" speedFactor="1.06" vaporized=""/>
    <tripinfo id="flow_route_106_duration_20250327_2120.1" depart="21.00" departLane="1254519229#0_0" departPos="25.62" departSpeed="0.00" departDelay="1.00" arrival="37.00" arrivalLane="430416184_1" arrivalPos="17.43" arrivalSpeed="10.66" duration="16.00" routeLength="92.49" waitingTime="0.00" waitingCount="0" stopTime="0.00" timeLoss="9.39" rerouteNo="0" devices="tripinfo_flow_route_106_duration_20250327_2120.1" vType="car" speedFactor="0.94" vaporized=""/>
    <tripinfo id="flow_route_101_duration_20250327_2120.1" depart="12.00" departLane="186409193_0" departPos="27.23" departSpeed="0.00" departDelay="0.00" arrival="59.00" arrivalLane="430416184_0" arrivalPos="1.75" arrivalSpeed="4.34" duration="47.00" routeLength="109.01" waitingTime="23.00" waitingCount="1" stopTime="0.00" timeLoss="38.18" rerouteNo="0" devices="tripinfo_flow_route_101_duration_20250327_2120.1" vType="car" speedFactor="0.83" vaporized=""/>
    <tripinfo id="flow_route_149_duration_20250327_2120.0" depart="0.00" departLane="186410975#0_0" departPos="192.32" departSpeed="0.00" departDelay="0.00" arrival="61.00" arrivalLane="430416184_1" arrivalPos="170.61" arrivalSpeed="16.55" duration="61.00" routeLength="523.96" waitingTime="4.00" waitingCount="1" stopTime="0.00" timeLoss="25.48" rerouteNo="0" devices="tripinfo_flow_route_149_duration_20250327_2120.0" vType="car" speedFactor="1.03" vaporized=""/>
    <tripinfo id="flow_route_107_duration_20250327_2120.2" depart="24.00" departLane="1254519229#0_0" departPos="24.43" departSpeed="0.00" departDelay="0.00" arrival="62.00" arrivalLane="1342963997_0" arrivalPos="8.30" arrivalSpeed="6.35" duration="38.00" routeLength="84.44" waitingTime="15.00" waitingCount="1" stopTime="0.00" timeLoss="32.85" rerouteNo="0" devices="tripinfo_flow_route_107_duration_20250327_2120.2" vType="car" speedFactor="1.09" vaporized=""/>
    <tripinfo id="flow_route_107_duration_20250327_2120.3" depart="36.00" departLane="1254519229#0_0" departPos="24.01" departSpeed="0.00" departDelay="0.00" arrival="66.00" arrivalLane="1342963997_0" arrivalPos="42.51" arrivalSpeed="10.24" duration="30.00" routeLength="119.07" waitingTime="3.00" waitingCount="1" stopTime="0.00" timeLoss="22.43" rerouteNo="0" devices="tripinfo_flow_route_107_duration_20250327_2120.3" vType="car" speedFactor="1.12" vaporized=""/>
    <tripinfo id="flow_route_107_duration_20250327_2120.4" depart="48.00" departLane="1254519229#0_0" departPos="9.98" departSpeed="0.00" departDelay="0.00" arrival="69.00" arrivalLane="1342963997_0" arrivalPos="59.49" arrivalSpeed="12.80" duration="21.00" routeLength="150.09" waitingTime="0.00" waitingCount="0" stopTime="0.00" timeLoss="11.61" rerouteNo="0" devices="tripinfo_flow_route_107_duration_20250327_2120.4" vType="car" speedFactor="0.94" vaporized=""/>
    <tripinfo id="flow_route_101_duration_20250327_2120.2" depart="24.00" departLane="186409193_0" departPos="29.97" departSpeed="0.00" departDelay="0.00" arrival="79.00" arrivalLane="430416184_0" arrivalPos="197.69" arrivalSpeed="16.18" duration="55.00" routeLength="302.22" waitingTime="13.00" waitingCount="1" stopTime="0.00" timeLoss="33.96" rerouteNo="0" devices="tripinfo_flow_route_101_duration_20250327_2120.2" vType="car" speedFactor="0.86" vaporized=""/>
    <tripinfo id="flow_route_101_duration_20250327_2120.3" depart="36.00" departLane="186409193_0" departPos="1.89" departSpeed="0.00" departDelay="0.00" arrival="79.00" arrivalLane="430416184_0" arrivalPos="157.41" arrivalSpeed="16.12" duration="43.00" routeLength="290.02" waitingTime="0.00" waitingCount="0" stopTime="0.00" timeLoss="23.69" rerouteNo="0" devices="tripinfo_flow_route_101_duration_20250327_2120.3" vType="car" speedFactor="1.05" vaporized=""/>
    <tripinfo id="flow_route_101_duration_20250327_2120.4" depart="49.00" departLane="186409193_0" departPos="24.03" departSpeed="0.00" departDelay="1.00" arrival="85.00" arrivalLane="430416184_0" arrivalPos="198.12" arrivalSpeed="16.25" duration="36.00" routeLength="308.58" waitingTime="0.00" waitingCount="0" stopTime="0.00" timeLoss="15.56" rerouteNo="0" devices="tripinfo_flow_route_101_duration_20250327_2120.4" vType="car" speedFactor="0.88" vaporized=""/>
    <tripinfo id="flow_route_100_duration_20250327_2120.1" depart="15.00" departLane="186409193_0" departPos="15.45" departSpeed="0.00" departDelay="0.00" arrival="89.00" arrivalLane="1254519229#0_1" arrivalPos="45.06" arrivalSpeed="8.79" duration="74.00" routeLength="261.23" waitingTime="27.00" waitingCount="2" stopTime="0.00" timeLoss="55.65" rerouteNo="0" devices="tripinfo_flow_route_100_duration_20250327_2120.1" vType="car" speedFactor="0.89" vaporized=""/>
    <tripinfo id="flow_route_106_duration_20250327_2120.2" depart="40.00" departLane="1254519229#0_0" departPos="12.66" departSpeed="0.00" departDelay="0.00" arrival="92.00" arrivalLane="430416184_1" arrivalPos="221.09" arrivalSpeed="16.43" duration="52.00" routeLength="309.11" waitingTime="5.00" waitingCount="1" stopTime="0.00" timeLoss="31.94" rerouteNo="0" devices="tripinfo_flow_route_106_duration_20250327_2120.2" vType="car" speedFactor="0.99" vaporized=""/>
    <tripinfo id="flow_route_100_duration_20250327_2120.2" depart="33.00" departLane="186409193_0" departPos="23.17" departSpeed="0.00" departDelay="3.00" arrival="93.00" arrivalLane="1254519229#0_1" arrivalPos="50.41" arrivalSpeed="10.08" duration="60.00" routeLength="258.86" waitingTime="11.00" waitingCount="2" stopTime="0.00" timeLoss="43.01" rerouteNo="0" devices="tripinfo_flow_route_100_duration_20250327_2120.2" vType="car" speedFactor="1.03" vaporized=""/>
    <tripinfo id="flow_route_100_duration_20250327_2120.3" depart="45.00" departLane="186409193_0" departPos="1.74" departSpeed="0.00" departDelay="0.00" arrival="99.00" arrivalLane="1254519229#0_1" arrivalPos="76.12" arrivalSpeed="11.47" duration="54.00" routeLength="305.99" waitingTime="5.00" waitingCount="1" stopTime="0.00" timeLoss="33.55" rerouteNo="0" devices="tripinfo_flow_route_100_duration_20250327_2120.3" vType="car" speedFactor="0.93" vaporized=""/>
</tripinfos>
