<?xml version="1.0" encoding="UTF-8"?>

<!-- generated on 2025-05-06 21:08:53 by Eclipse SUMO sumo Version 1.20.0
<configuration xmlns:xsi="http://www.w3.org/2001/XMLSchema-instance" xsi:noNamespaceSchemaLocation="http://sumo.dlr.de/xsd/sumoConfiguration.xsd">

    <input>
        <net-file value="osm.net.xml"/>
        <route-files value="xml/route_rl_cluster_11648561428_407729599_7.rou.xml"/>
    </input>

    <output>
        <tripinfo-output value="xml/tripinfo_rl_cluster_11648561428_407729599_7.xml"/>
    </output>

    <traci_server>
        <remote-port value="54661"/>
    </traci_server>

</configuration>
-->

<tripinfos xmlns:xsi="http://www.w3.org/2001/XMLSchema-instance" xsi:noNamespaceSchemaLocation="http://sumo.dlr.de/xsd/tripinfo_file.xsd">
    <tripinfo id="flow_route_106_duration_20250327_2100.0" depart="0.00" departLane="1254519229#0_0" departPos="19.69" departSpeed="0.00" departDelay="0.00" arrival="17.00" arrivalLane="430416184_1" arrivalPos="13.15" arrivalSpeed="9.33" duration="17.00" routeLength="94.14" waitingTime="0.00" waitingCount="0" stopTime="0.00" timeLoss="10.50" rerouteNo="0" devices="tripinfo_flow_route_106_duration_20250327_2100.0" vType="car" speedFactor="1.01" vaporized=""/>
    <tripinfo id="flow_route_107_duration_20250327_2100.0" depart="0.00" departLane="1254519229#0_0" departPos="43.39" departSpeed="0.00" departDelay="0.00" arrival="20.00" arrivalLane="1342963997_0" arrivalPos="88.24" arrivalSpeed="14.75" duration="20.00" routeLength="145.44" waitingTime="0.00" waitingCount="0" stopTime="0.00" timeLoss="10.92" rerouteNo="0" devices="tripinfo_flow_route_107_duration_20250327_2100.0" vType="car" speedFactor="1.08" vaporized=""/>
    <tripinfo id="flow_route_101_duration_20250327_2100.1" depart="6.00" departLane="186409193_0" departPos="39.32" departSpeed="0.00" departDelay="0.00" arrival="24.00" arrivalLane="430416184_0" arrivalPos="1.75" arrivalSpeed="4.90" duration="18.00" routeLength="96.93" waitingTime="0.00" waitingCount="0" stopTime="0.00" timeLoss="9.81" rerouteNo="0" devices="tripinfo_flow_route_101_duration_20250327_2100.1" vType="car" speedFactor="0.83" vaporized=""/>
    <tripinfo id="flow_route_107_duration_20250327_2100.1" depart="12.00" departLane="1254519229#0_0" departPos="69.67" departSpeed="0.00" departDelay="0.00" arrival="31.00" arrivalLane="1342963997_0" arrivalPos="101.68" arrivalSpeed="14.08" duration="19.00" routeLength="132.59" waitingTime="0.00" waitingCount="0" stopTime="0.00" timeLoss="10.45" rerouteNo="0" devices="tripinfo_flow_route_107_duration_20250327_2100.1" vType="car" speedFactor="0.94" vaporized=""/>
    <tripinfo id="flow_route_101_duration_20250327_2100.0" depart="0.00" departLane="186409193_0" departPos="43.42" departSpeed="0.00" departDelay="0.00" arrival="34.00" arrivalLane="430416184_0" arrivalPos="206.05" arrivalSpeed="16.53" duration="34.00" routeLength="297.12" waitingTime="0.00" waitingCount="0" stopTime="0.00" timeLoss="14.78" rerouteNo="0" devices="tripinfo_flow_route_101_duration_20250327_2100.0" vType="car" speedFactor="0.94" vaporized=""/>
    <tripinfo id="flow_route_100_duration_20250327_2100.0" depart="0.00" departLane="186409193_0" departPos="2.55" departSpeed="0.00" departDelay="0.00" arrival="37.00" arrivalLane="1254519229#0_1" arrivalPos="70.90" arrivalSpeed="5.58" duration="37.00" routeLength="299.97" waitingTime="0.00" waitingCount="0" stopTime="0.00" timeLoss="17.28" rerouteNo="0" devices="tripinfo_flow_route_100_duration_20250327_2100.0" vType="car" speedFactor="1.06" vaporized=""/>
    <tripinfo id="flow_route_106_duration_20250327_2100.1" depart="12.00" departLane="1254519229#0_0" departPos="4.79" departSpeed="0.00" departDelay="0.00" arrival="40.00" arrivalLane="430416184_1" arrivalPos="130.75" arrivalSpeed="15.54" duration="28.00" routeLength="226.63" waitingTime="0.00" waitingCount="0" stopTime="0.00" timeLoss="13.21" rerouteNo="0" devices="tripinfo_flow_route_106_duration_20250327_2100.1" vType="car" speedFactor="0.89" vaporized=""/>
    <tripinfo id="flow_route_101_duration_20250327_2100.2" depart="12.00" departLane="186409193_0" departPos="15.45" departSpeed="0.00" departDelay="0.00" arrival="44.00" arrivalLane="430416184_0" arrivalPos="134.81" arrivalSpeed="14.89" duration="32.00" routeLength="253.86" waitingTime="0.00" waitingCount="0" stopTime="0.00" timeLoss="14.93" rerouteNo="0" devices="tripinfo_flow_route_101_duration_20250327_2100.2" vType="car" speedFactor="1.05" vaporized=""/>
    <tripinfo id="flow_route_107_duration_20250327_2100.2" depart="24.00" departLane="1254519229#0_0" departPos="43.31" departSpeed="0.00" departDelay="0.00" arrival="47.00" arrivalLane="1342963997_0" arrivalPos="148.01" arrivalSpeed="16.44" duration="23.00" routeLength="205.28" waitingTime="0.00" waitingCount="0" stopTime="0.00" timeLoss="10.59" rerouteNo="0" devices="tripinfo_flow_route_107_duration_20250327_2100.2" vType="car" speedFactor="1.12" vaporized=""/>
    <tripinfo id="flow_route_106_duration_20250327_2100.3" depart="36.00" departLane="1254519229#0_0" departPos="10.29" departSpeed="0.00" departDelay="0.00" arrival="54.00" arrivalLane="430416184_1" arrivalPos="8.62" arrivalSpeed="8.99" duration="18.00" routeLength="99.01" waitingTime="0.00" waitingCount="0" stopTime="0.00" timeLoss="10.86" rerouteNo="0" devices="tripinfo_flow_route_106_duration_20250327_2100.3" vType="car" speedFactor="0.94" vaporized=""/>
    <tripinfo id="flow_route_107_duration_20250327_2100.3" depart="37.00" departLane="1254519229#0_0" departPos="76.75" departSpeed="0.00" departDelay="1.00" arrival="57.00" arrivalLane="1342963997_0" arrivalPos="123.01" arrivalSpeed="14.73" duration="20.00" routeLength="146.84" waitingTime="0.00" waitingCount="0" stopTime="0.00" timeLoss="10.53" rerouteNo="0" devices="tripinfo_flow_route_107_duration_20250327_2100.3" vType="car" speedFactor="0.94" vaporized=""/>
    <tripinfo id="flow_route_106_duration_20250327_2100.2" depart="24.00" departLane="1254519229#0_0" departPos="31.56" departSpeed="0.00" departDelay="0.00" arrival="58.00" arrivalLane="430416184_1" arrivalPos="271.56" arrivalSpeed="16.23" duration="34.00" routeLength="340.69" waitingTime="0.00" waitingCount="0" stopTime="0.00" timeLoss="12.67" rerouteNo="0" devices="tripinfo_flow_route_106_duration_20250327_2100.2" vType="car" speedFactor="1.05" vaporized=""/>
    <tripinfo id="flow_route_106_duration_20250327_2100.4" depart="48.00" departLane="1254519229#0_0" departPos="47.44" departSpeed="0.00" departDelay="0.00" arrival="63.00" arrivalLane="430416184_1" arrivalPos="25.74" arrivalSpeed="10.28" duration="15.00" routeLength="78.98" waitingTime="1.00" waitingCount="1" stopTime="0.00" timeLoss="9.37" rerouteNo="0" devices="tripinfo_flow_route_106_duration_20250327_2100.4" vType="car" speedFactor="0.97" vaporized=""/>
    <tripinfo id="flow_route_107_duration_20250327_2100.4" depart="48.00" departLane="1254519229#0_0" departPos="55.03" departSpeed="0.00" departDelay="0.00" arrival="69.00" arrivalLane="1342963997_0" arrivalPos="119.97" arrivalSpeed="15.88" duration="21.00" routeLength="165.52" waitingTime="0.00" waitingCount="0" stopTime="0.00" timeLoss="10.57" rerouteNo="0" devices="tripinfo_flow_route_107_duration_20250327_2100.4" vType="car" speedFactor="0.89" vaporized=""/>
    <tripinfo id="flow_route_149_duration_20250327_2100.2" depart="40.00" departLane="186410975#0_0" departPos="43.35" departSpeed="0.00" departDelay="0.00" arrival="94.00" arrivalLane="430416184_1" arrivalPos="64.53" arrivalSpeed="12.15" duration="54.00" routeLength="566.85" waitingTime="0.00" waitingCount="0" stopTime="0.00" timeLoss="14.27" rerouteNo="0" devices="tripinfo_flow_route_149_duration_20250327_2100.2" vType="car" speedFactor="1.16" vaporized=""/>
    <tripinfo id="flow_route_149_duration_20250327_2100.0" depart="0.00" departLane="186410975#0_0" departPos="192.32" departSpeed="0.00" departDelay="0.00" arrival="96.00" arrivalLane="430416184_1" arrivalPos="170.61" arrivalSpeed="16.30" duration="96.00" routeLength="523.96" waitingTime="40.00" waitingCount="1" stopTime="0.00" timeLoss="60.49" rerouteNo="0" devices="tripinfo_flow_route_149_duration_20250327_2100.0" vType="car" speedFactor="1.03" vaporized=""/>
    <tripinfo id="flow_route_149_duration_20250327_2100.1" depart="20.00" departLane="186410975#0_0" departPos="79.26" departSpeed="0.00" departDelay="0.00" arrival="98.00" arrivalLane="430416184_1" arrivalPos="148.34" arrivalSpeed="16.44" duration="78.00" routeLength="614.76" waitingTime="12.00" waitingCount="1" stopTime="0.00" timeLoss="34.80" rerouteNo="0" devices="tripinfo_flow_route_149_duration_20250327_2100.1" vType="car" speedFactor="1.09" vaporized=""/>
    <tripinfo id="flow_route_101_duration_20250327_2100.5" depart="31.00" departLane="186409193_0" departPos="9.29" departSpeed="0.00" departDelay="1.00" arrival="122.00" arrivalLane="430416184_0" arrivalPos="9.37" arrivalSpeed="6.20" duration="91.00" routeLength="134.58" waitingTime="62.00" waitingCount="1" stopTime="0.00" timeLoss="81.15" rerouteNo="0" devices="tripinfo_flow_route_101_duration_20250327_2100.5" vType="car" speedFactor="0.93" vaporized=""/>
    <tripinfo id="flow_route_101_duration_20250327_2100.3" depart="19.00" departLane="186409193_0" departPos="2.70" departSpeed="0.00" departDelay="1.00" arrival="129.00" arrivalLane="430416184_0" arrivalPos="93.11" arrivalSpeed="11.93" duration="110.00" routeLength="224.91" waitingTime="69.00" waitingCount="1" stopTime="0.00" timeLoss="94.05" rerouteNo="0" devices="tripinfo_flow_route_101_duration_20250327_2100.3" vType="car" speedFactor="0.86" vaporized=""/>
    <tripinfo id="flow_route_101_duration_20250327_2100.4" depart="24.00" departLane="186409193_0" departPos="51.86" departSpeed="0.00" departDelay="0.00" arrival="134.00" arrivalLane="430416184_0" arrivalPos="183.20" arrivalSpeed="16.39" duration="110.00" routeLength="265.84" waitingTime="71.00" waitingCount="1" stopTime="0.00" timeLoss="92.38" rerouteNo="0" devices="tripinfo_flow_route_101_duration_20250327_2100.4" vType="car" speedFactor="1.03" vaporized=""/>
    <tripinfo id="flow_route_100_duration_20250327_2100.1" depart="30.00" departLane="186409193_0" departPos="17.63" departSpeed="0.00" departDelay="0.00" arrival="141.00" arrivalLane="1254519229#0_1" arrivalPos="18.84" arrivalSpeed="6.71" duration="111.00" routeLength="232.83" waitingTime="66.00" waitingCount="2" stopTime="0.00" timeLoss="95.83" rerouteNo="0" devices="tripinfo_flow_route_100_duration_20250327_2100.1" vType="car" speedFactor="0.99" vaporized=""/>
    <tripinfo id="flow_route_101_duration_20250327_2100.7" depart="42.00" departLane="186409193_0" departPos="14.10" departSpeed="0.00" departDelay="0.00" arrival="143.00" arrivalLane="430416184_0" arrivalPos="165.30" arrivalSpeed="16.33" duration="101.00" routeLength="285.70" waitingTime="54.00" waitingCount="1" stopTime="0.00" timeLoss="82.46" rerouteNo="0" devices="tripinfo_flow_route_101_duration_20250327_2100.7" vType="car" speedFactor="1.02" vaporized=""/>
    <tripinfo id="flow_route_101_duration_20250327_2100.6" depart="38.00" departLane="186409193_0" departPos="15.43" departSpeed="0.00" departDelay="2.00" arrival="145.00" arrivalLane="430416184_0" arrivalPos="276.64" arrivalSpeed="16.56" duration="107.00" routeLength="395.71" waitingTime="58.00" waitingCount="1" stopTime="0.00" timeLoss="80.86" rerouteNo="0" devices="tripinfo_flow_route_101_duration_20250327_2100.6" vType="car" speedFactor="0.88" vaporized=""/>
    <tripinfo id="flow_route_101_duration_20250327_2100.8" depart="48.00" departLane="186409193_0" departPos="41.80" departSpeed="0.00" departDelay="0.00" arrival="145.00" arrivalLane="430416184_0" arrivalPos="234.74" arrivalSpeed="16.40" duration="97.00" routeLength="327.43" waitingTime="53.00" waitingCount="1" stopTime="0.00" timeLoss="75.76" rerouteNo="0" devices="tripinfo_flow_route_101_duration_20250327_2100.8" vType="car" speedFactor="1.01" vaporized=""/>
    <tripinfo id="flow_route_101_duration_20250327_2100.9" depart="55.00" departLane="186409193_0" departPos="17.98" departSpeed="0.00" departDelay="1.00" arrival="153.00" arrivalLane="430416184_0" arrivalPos="270.41" arrivalSpeed="16.43" duration="98.00" routeLength="386.93" waitingTime="47.00" waitingCount="1" stopTime="0.00" timeLoss="72.00" rerouteNo="0" devices="tripinfo_flow_route_101_duration_20250327_2100.9" vType="car" speedFactor="0.83" vaporized=""/>
</tripinfos>
