<?xml version="1.0" encoding="UTF-8"?>

<!-- generated on 2025-05-06 21:08:02 by Eclipse SUMO sumo Version 1.20.0
<configuration xmlns:xsi="http://www.w3.org/2001/XMLSchema-instance" xsi:noNamespaceSchemaLocation="http://sumo.dlr.de/xsd/sumoConfiguration.xsd">

    <input>
        <net-file value="osm.net.xml"/>
        <route-files value="xml/route_rl_cluster_11644940323_11644940324_3828703845_2.rou.xml"/>
    </input>

    <output>
        <tripinfo-output value="xml/tripinfo_rl_cluster_11644940323_11644940324_3828703845_2.xml"/>
    </output>

    <traci_server>
        <remote-port value="56457"/>
    </traci_server>

</configuration>
-->

<tripinfos xmlns:xsi="http://www.w3.org/2001/XMLSchema-instance" xsi:noNamespaceSchemaLocation="http://sumo.dlr.de/xsd/tripinfo_file.xsd">
    <tripinfo id="flow_route_3_duration_20250327_1950.0" depart="0.00" departLane="1318793173#0_0" departPos="80.53" departSpeed="0.00" departDelay="0.00" arrival="19.00" arrivalLane="291974733#0_1" arrivalPos="66.76" arrivalSpeed="13.99" duration="19.00" routeLength="123.20" waitingTime="0.00" waitingCount="0" stopTime="0.00" timeLoss="10.27" rerouteNo="0" devices="tripinfo_flow_route_3_duration_20250327_1950.0" vType="car" speedFactor="0.94" vaporized=""/>
    <tripinfo id="flow_route_2_duration_20250327_1950.0" depart="0.00" departLane="1318793173#0_0" departPos="58.93" departSpeed="0.00" departDelay="0.00" arrival="21.00" arrivalLane="189835257_0" arrivalPos="46.92" arrivalSpeed="16.15" duration="21.00" routeLength="167.93" waitingTime="0.00" waitingCount="0" stopTime="0.00" timeLoss="9.40" rerouteNo="0" devices="tripinfo_flow_route_2_duration_20250327_1950.0" vType="car" speedFactor="1.06" vaporized=""/>
    <tripinfo id="flow_route_16_duration_20250327_1950.0" depart="0.00" departLane="137406408#0_0" departPos="52.27" departSpeed="0.00" departDelay="0.00" arrival="21.00" arrivalLane="133126040#0_0" arrivalPos="80.39" arrivalSpeed="14.92" duration="21.00" routeLength="149.31" waitingTime="0.00" waitingCount="0" stopTime="0.00" timeLoss="11.11" rerouteNo="0" devices="tripinfo_flow_route_16_duration_20250327_1950.0" vType="car" speedFactor="1.05" vaporized=""/>
    <tripinfo id="flow_route_17_duration_20250327_1950.0" depart="0.00" departLane="137406408#0_0" departPos="24.41" departSpeed="0.00" departDelay="0.00" arrival="22.00" arrivalLane="1254771874#0_0" arrivalPos="63.27" arrivalSpeed="16.22" duration="22.00" routeLength="182.06" waitingTime="0.00" waitingCount="0" stopTime="0.00" timeLoss="9.94" rerouteNo="0" devices="tripinfo_flow_route_17_duration_20250327_1950.0" vType="car" speedFactor="0.89" vaporized=""/>
    <tripinfo id="flow_route_9_duration_20250327_1950.0" depart="0.00" departLane="1318793173#0_0" departPos="0.65" departSpeed="0.00" departDelay="0.00" arrival="25.00" arrivalLane="1254771874#0_1" arrivalPos="11.63" arrivalSpeed="10.69" duration="25.00" routeLength="169.44" waitingTime="0.00" waitingCount="0" stopTime="0.00" timeLoss="13.67" rerouteNo="0" devices="tripinfo_flow_route_9_duration_20250327_1950.0" vType="car" speedFactor="1.01" vaporized=""/>
    <tripinfo id="flow_route_2_duration_20250327_1950.3" depart="9.00" departLane="1318793173#0_0" departPos="68.46" departSpeed="0.00" departDelay="0.00" arrival="29.00" arrivalLane="189835257_0" arrivalPos="27.01" arrivalSpeed="14.23" duration="20.00" routeLength="138.49" waitingTime="0.00" waitingCount="0" stopTime="0.00" timeLoss="10.59" rerouteNo="0" devices="tripinfo_flow_route_2_duration_20250327_1950.3" vType="car" speedFactor="1.09" vaporized=""/>
    <tripinfo id="flow_route_9_duration_20250327_1950.1" depart="10.00" departLane="1318793173#0_0" departPos="95.93" departSpeed="0.00" departDelay="1.43" arrival="29.00" arrivalLane="1254771874#0_1" arrivalPos="78.49" arrivalSpeed="14.78" duration="19.00" routeLength="141.04" waitingTime="0.00" waitingCount="0" stopTime="0.00" timeLoss="9.05" rerouteNo="0" devices="tripinfo_flow_route_9_duration_20250327_1950.1" vType="car" speedFactor="1.03" vaporized=""/>
    <tripinfo id="flow_route_2_duration_20250327_1950.1" depart="3.00" departLane="1318793173#0_0" departPos="34.79" departSpeed="0.00" departDelay="0.00" arrival="32.00" arrivalLane="189835257_0" arrivalPos="46.11" arrivalSpeed="15.42" duration="29.00" routeLength="191.25" waitingTime="0.00" waitingCount="0" stopTime="0.00" timeLoss="15.55" rerouteNo="0" devices="tripinfo_flow_route_2_duration_20250327_1950.1" vType="car" speedFactor="0.94" vaporized=""/>
    <tripinfo id="flow_route_2_duration_20250327_1950.2" depart="6.00" departLane="1318793173#0_0" departPos="4.99" departSpeed="0.00" departDelay="0.00" arrival="34.00" arrivalLane="189835257_0" arrivalPos="36.00" arrivalSpeed="14.00" duration="28.00" routeLength="210.95" waitingTime="0.00" waitingCount="0" stopTime="0.00" timeLoss="11.86" rerouteNo="0" devices="tripinfo_flow_route_2_duration_20250327_1950.2" vType="car" speedFactor="0.86" vaporized=""/>
    <tripinfo id="flow_route_3_duration_20250327_1950.1" depart="20.00" departLane="1318793173#0_0" departPos="61.77" departSpeed="0.00" departDelay="5.00" arrival="36.00" arrivalLane="291974733#0_1" arrivalPos="14.91" arrivalSpeed="12.04" duration="16.00" routeLength="90.09" waitingTime="0.00" waitingCount="0" stopTime="0.00" timeLoss="9.15" rerouteNo="0" devices="tripinfo_flow_route_3_duration_20250327_1950.1" vType="car" speedFactor="0.88" vaporized=""/>
    <tripinfo id="flow_route_2_duration_20250327_1950.7" depart="24.00" departLane="1318793173#0_0" departPos="103.20" departSpeed="0.00" departDelay="3.00" arrival="39.00" arrivalLane="189835257_0" arrivalPos="4.69" arrivalSpeed="11.52" duration="15.00" routeLength="81.43" waitingTime="0.00" waitingCount="0" stopTime="0.00" timeLoss="8.93" rerouteNo="0" devices="tripinfo_flow_route_2_duration_20250327_1950.7" vType="car" speedFactor="1.01" vaporized=""/>
    <tripinfo id="flow_route_2_duration_20250327_1950.6" depart="21.00" departLane="1318793173#0_0" departPos="72.20" departSpeed="0.00" departDelay="3.00" arrival="42.00" arrivalLane="189835257_0" arrivalPos="21.66" arrivalSpeed="13.25" duration="21.00" routeLength="129.40" waitingTime="0.00" waitingCount="0" stopTime="0.00" timeLoss="11.45" rerouteNo="0" devices="tripinfo_flow_route_2_duration_20250327_1950.6" vType="car" speedFactor="0.94" vaporized=""/>
    <tripinfo id="flow_route_2_duration_20250327_1950.5" depart="16.00" departLane="1318793173#0_0" departPos="35.80" departSpeed="0.00" departDelay="1.00" arrival="45.00" arrivalLane="189835257_0" arrivalPos="40.26" arrivalSpeed="13.85" duration="29.00" routeLength="184.39" waitingTime="0.00" waitingCount="0" stopTime="0.00" timeLoss="16.17" rerouteNo="0" devices="tripinfo_flow_route_2_duration_20250327_1950.5" vType="car" speedFactor="0.93" vaporized=""/>
    <tripinfo id="flow_route_17_duration_20250327_1950.1" depart="15.00" departLane="137406408#0_0" departPos="63.23" departSpeed="0.00" departDelay="0.00" arrival="45.00" arrivalLane="1254771874#0_0" arrivalPos="244.52" arrivalSpeed="16.55" duration="30.00" routeLength="324.50" waitingTime="0.00" waitingCount="0" stopTime="0.00" timeLoss="9.79" rerouteNo="0" devices="tripinfo_flow_route_17_duration_20250327_1950.1" vType="car" speedFactor="0.94" vaporized=""/>
    <tripinfo id="flow_route_2_duration_20250327_1950.4" depart="12.00" departLane="1318793173#0_0" departPos="3.50" departSpeed="0.00" departDelay="0.00" arrival="46.00" arrivalLane="189835257_0" arrivalPos="28.66" arrivalSpeed="13.80" duration="34.00" routeLength="205.10" waitingTime="0.00" waitingCount="0" stopTime="0.00" timeLoss="20.73" rerouteNo="0" devices="tripinfo_flow_route_2_duration_20250327_1950.4" vType="car" speedFactor="1.12" vaporized=""/>
    <tripinfo id="flow_route_2_duration_20250327_1950.10" depart="31.00" departLane="1318793173#0_0" departPos="73.34" departSpeed="0.00" departDelay="1.00" arrival="50.00" arrivalLane="189835257_0" arrivalPos="17.85" arrivalSpeed="13.77" duration="19.00" routeLength="124.45" waitingTime="0.00" waitingCount="0" stopTime="0.00" timeLoss="9.51" rerouteNo="0" devices="tripinfo_flow_route_2_duration_20250327_1950.10" vType="car" speedFactor="0.92" vaporized=""/>
    <tripinfo id="flow_route_3_duration_20250327_1950.2" depart="34.00" departLane="1318793173#0_0" departPos="63.22" departSpeed="0.00" departDelay="4.00" arrival="50.00" arrivalLane="291974733#0_2" arrivalPos="8.06" arrivalSpeed="11.03" duration="16.00" routeLength="81.80" waitingTime="0.00" waitingCount="0" stopTime="0.00" timeLoss="10.40" rerouteNo="0" devices="tripinfo_flow_route_3_duration_20250327_1950.2" vType="car" speedFactor="0.95" vaporized=""/>
    <tripinfo id="flow_route_9_duration_20250327_1950.3" depart="27.00" departLane="1318793173#0_0" departPos="19.34" departSpeed="0.00" departDelay="1.29" arrival="56.00" arrivalLane="1254771874#0_1" arrivalPos="71.28" arrivalSpeed="14.15" duration="29.00" routeLength="210.41" waitingTime="0.00" waitingCount="0" stopTime="0.00" timeLoss="13.04" rerouteNo="0" devices="tripinfo_flow_route_9_duration_20250327_1950.3" vType="car" speedFactor="0.83" vaporized=""/>
    <tripinfo id="flow_route_2_duration_20250327_1950.8" depart="27.00" departLane="1318793173#0_0" departPos="7.24" departSpeed="0.00" departDelay="3.00" arrival="58.00" arrivalLane="189835257_0" arrivalPos="25.94" arrivalSpeed="14.19" duration="31.00" routeLength="198.64" waitingTime="0.00" waitingCount="0" stopTime="0.00" timeLoss="17.40" rerouteNo="0" devices="tripinfo_flow_route_2_duration_20250327_1950.8" vType="car" speedFactor="0.97" vaporized=""/>
    <tripinfo id="flow_route_2_duration_20250327_1950.9" depart="28.00" departLane="1318793173#0_0" departPos="33.92" departSpeed="0.00" departDelay="1.00" arrival="58.00" arrivalLane="189835257_0" arrivalPos="48.87" arrivalSpeed="14.23" duration="30.00" routeLength="194.90" waitingTime="0.00" waitingCount="0" stopTime="0.00" timeLoss="15.06" rerouteNo="0" devices="tripinfo_flow_route_2_duration_20250327_1950.9" vType="car" speedFactor="0.87" vaporized=""/>
    <tripinfo id="flow_route_9_duration_20250327_1950.2" depart="24.00" departLane="1318793173#0_0" departPos="18.20" departSpeed="0.00" departDelay="6.86" arrival="62.00" arrivalLane="1254771874#0_1" arrivalPos="246.56" arrivalSpeed="16.26" duration="38.00" routeLength="386.83" waitingTime="0.00" waitingCount="0" stopTime="0.00" timeLoss="13.48" rerouteNo="0" devices="tripinfo_flow_route_9_duration_20250327_1950.2" vType="car" speedFactor="1.16" vaporized=""/>
    <tripinfo id="flow_route_9_duration_20250327_1950.4" depart="39.00" departLane="1318793173#0_0" departPos="76.81" departSpeed="0.00" departDelay="4.72" arrival="64.00" arrivalLane="1254771874#0_1" arrivalPos="93.35" arrivalSpeed="16.06" duration="25.00" routeLength="175.01" waitingTime="0.00" waitingCount="0" stopTime="0.00" timeLoss="13.39" rerouteNo="0" devices="tripinfo_flow_route_9_duration_20250327_1950.4" vType="car" speedFactor="1.17" vaporized=""/>
    <tripinfo id="flow_route_2_duration_20250327_1950.14" depart="50.00" departLane="1318793173#0_0" departPos="97.74" departSpeed="0.00" departDelay="8.00" arrival="67.00" arrivalLane="189835257_0" arrivalPos="18.06" arrivalSpeed="11.77" duration="17.00" routeLength="100.25" waitingTime="0.00" waitingCount="0" stopTime="0.00" timeLoss="10.40" rerouteNo="0" devices="tripinfo_flow_route_2_duration_20250327_1950.14" vType="car" speedFactor="1.10" vaporized=""/>
    <tripinfo id="flow_route_2_duration_20250327_1950.12" depart="43.00" departLane="1318793173#0_0" departPos="50.40" departSpeed="0.00" departDelay="7.00" arrival="68.00" arrivalLane="189835257_0" arrivalPos="1.26" arrivalSpeed="11.06" duration="25.00" routeLength="130.80" waitingTime="0.00" waitingCount="0" stopTime="0.00" timeLoss="16.11" rerouteNo="0" devices="tripinfo_flow_route_2_duration_20250327_1950.12" vType="car" speedFactor="0.99" vaporized=""/>
    <tripinfo id="flow_route_2_duration_20250327_1950.11" depart="36.00" departLane="1318793173#0_0" departPos="11.32" departSpeed="0.00" departDelay="3.00" arrival="71.00" arrivalLane="189835257_0" arrivalPos="27.01" arrivalSpeed="13.01" duration="35.00" routeLength="195.63" waitingTime="0.00" waitingCount="0" stopTime="0.00" timeLoss="22.46" rerouteNo="0" devices="tripinfo_flow_route_2_duration_20250327_1950.11" vType="car" speedFactor="1.01" vaporized=""/>
    <tripinfo id="flow_route_3_duration_20250327_1950.3" depart="51.00" departLane="1318793173#0_0" departPos="41.01" departSpeed="0.00" departDelay="6.00" arrival="72.00" arrivalLane="291974733#0_1" arrivalPos="66.73" arrivalSpeed="14.77" duration="21.00" routeLength="162.69" waitingTime="0.00" waitingCount="0" stopTime="0.00" timeLoss="10.71" rerouteNo="0" devices="tripinfo_flow_route_3_duration_20250327_1950.3" vType="car" speedFactor="0.96" vaporized=""/>
    <tripinfo id="flow_route_9_duration_20250327_1950.5" depart="50.00" departLane="1318793173#0_0" departPos="37.24" departSpeed="0.00" departDelay="7.15" arrival="73.00" arrivalLane="1254771874#0_1" arrivalPos="25.95" arrivalSpeed="11.53" duration="23.00" routeLength="147.19" waitingTime="0.00" waitingCount="0" stopTime="0.00" timeLoss="12.39" rerouteNo="0" devices="tripinfo_flow_route_9_duration_20250327_1950.5" vType="car" speedFactor="0.90" vaporized=""/>
    <tripinfo id="flow_route_2_duration_20250327_1950.19" depart="60.00" departLane="1318793173#0_0" departPos="86.24" departSpeed="0.00" departDelay="3.00" arrival="79.00" arrivalLane="189835257_0" arrivalPos="46.72" arrivalSpeed="13.98" duration="19.00" routeLength="140.43" waitingTime="0.00" waitingCount="0" stopTime="0.00" timeLoss="7.68" rerouteNo="0" devices="tripinfo_flow_route_2_duration_20250327_1950.19" vType="car" speedFactor="0.85" vaporized=""/>
    <tripinfo id="flow_route_2_duration_20250327_1950.15" depart="51.00" departLane="1318793173#0_0" departPos="29.97" departSpeed="0.00" departDelay="6.00" arrival="80.00" arrivalLane="189835257_0" arrivalPos="14.81" arrivalSpeed="12.53" duration="29.00" routeLength="164.78" waitingTime="0.00" waitingCount="0" stopTime="0.00" timeLoss="18.37" rerouteNo="0" devices="tripinfo_flow_route_2_duration_20250327_1950.15" vType="car" speedFactor="1.03" vaporized=""/>
    <tripinfo id="flow_route_2_duration_20250327_1950.17" depart="56.00" departLane="1318793173#0_0" departPos="59.36" departSpeed="0.00" departDelay="5.00" arrival="80.00" arrivalLane="189835257_0" arrivalPos="31.02" arrivalSpeed="14.61" duration="24.00" routeLength="151.61" waitingTime="0.00" waitingCount="0" stopTime="0.00" timeLoss="13.62" rerouteNo="0" devices="tripinfo_flow_route_2_duration_20250327_1950.17" vType="car" speedFactor="1.00" vaporized=""/>
    <tripinfo id="flow_route_2_duration_20250327_1950.13" depart="50.00" departLane="1318793173#0_0" departPos="16.60" departSpeed="0.00" departDelay="11.00" arrival="83.00" arrivalLane="189835257_0" arrivalPos="22.39" arrivalSpeed="13.76" duration="33.00" routeLength="185.73" waitingTime="0.00" waitingCount="0" stopTime="0.00" timeLoss="20.06" rerouteNo="0" devices="tripinfo_flow_route_2_duration_20250327_1950.13" vType="car" speedFactor="0.97" vaporized=""/>
    <tripinfo id="flow_route_2_duration_20250327_1950.16" depart="53.00" departLane="1318793173#0_0" departPos="11.12" departSpeed="0.00" departDelay="5.00" arrival="84.00" arrivalLane="189835257_0" arrivalPos="25.28" arrivalSpeed="14.48" duration="31.00" routeLength="194.10" waitingTime="0.00" waitingCount="0" stopTime="0.00" timeLoss="18.57" rerouteNo="0" devices="tripinfo_flow_route_2_duration_20250327_1950.16" vType="car" speedFactor="1.04" vaporized=""/>
    <tripinfo id="flow_route_13_duration_20250327_1950.0" depart="0.00" departLane="1252820503#0_0" departPos="99.64" departSpeed="0.00" departDelay="0.00" arrival="85.00" arrivalLane="291974733#0_0" arrivalPos="46.05" arrivalSpeed="10.01" duration="85.00" routeLength="103.57" waitingTime="60.00" waitingCount="1" stopTime="0.00" timeLoss="77.41" rerouteNo="0" devices="tripinfo_flow_route_13_duration_20250327_1950.0" vType="car" speedFactor="1.08" vaporized=""/>
    <tripinfo id="flow_route_15_duration_20250327_1950.0" depart="1.00" departLane="1252820503#0_0" departPos="8.92" departSpeed="0.00" departDelay="1.00" arrival="85.00" arrivalLane="133126040#0_1" arrivalPos="4.72" arrivalSpeed="7.87" duration="84.00" routeLength="174.98" waitingTime="52.00" waitingCount="1" stopTime="0.00" timeLoss="72.57" rerouteNo="0" devices="tripinfo_flow_route_15_duration_20250327_1950.0" vType="car" speedFactor="0.83" vaporized=""/>
    <tripinfo id="flow_route_13_duration_20250327_1950.1" depart="12.00" departLane="1252820503#0_0" departPos="44.68" departSpeed="0.00" departDelay="0.00" arrival="87.00" arrivalLane="291974733#0_0" arrivalPos="22.18" arrivalSpeed="7.90" duration="75.00" routeLength="134.66" waitingTime="45.00" waitingCount="1" stopTime="0.00" timeLoss="66.26" rerouteNo="0" devices="tripinfo_flow_route_13_duration_20250327_1950.1" vType="car" speedFactor="0.99" vaporized=""/>
    <tripinfo id="flow_route_2_duration_20250327_1950.18" depart="59.00" departLane="1318793173#0_0" departPos="18.10" departSpeed="0.00" departDelay="5.00" arrival="88.00" arrivalLane="189835257_0" arrivalPos="33.76" arrivalSpeed="14.31" duration="29.00" routeLength="195.60" waitingTime="0.00" waitingCount="0" stopTime="0.00" timeLoss="13.90" rerouteNo="0" devices="tripinfo_flow_route_2_duration_20250327_1950.18" vType="car" speedFactor="0.88" vaporized=""/>
    <tripinfo id="flow_route_15_duration_20250327_1950.1" depart="30.00" departLane="1252820503#0_0" departPos="52.09" departSpeed="0.00" departDelay="0.00" arrival="92.00" arrivalLane="133126040#0_1" arrivalPos="22.41" arrivalSpeed="10.93" duration="62.00" routeLength="149.50" waitingTime="31.00" waitingCount="1" stopTime="0.00" timeLoss="51.90" rerouteNo="0" devices="tripinfo_flow_route_15_duration_20250327_1950.1" vType="car" speedFactor="0.93" vaporized=""/>
    <tripinfo id="flow_route_13_duration_20250327_1950.3" depart="36.00" departLane="1252820503#0_0" departPos="92.57" departSpeed="0.00" departDelay="0.00" arrival="93.00" arrivalLane="291974733#0_0" arrivalPos="28.37" arrivalSpeed="8.55" duration="57.00" routeLength="92.96" waitingTime="31.00" waitingCount="1" stopTime="0.00" timeLoss="50.69" rerouteNo="0" devices="tripinfo_flow_route_13_duration_20250327_1950.3" vType="car" speedFactor="1.02" vaporized=""/>
    <tripinfo id="flow_route_13_duration_20250327_1950.4" depart="48.00" departLane="1252820503#0_0" departPos="99.98" departSpeed="0.00" departDelay="0.00" arrival="95.00" arrivalLane="291974733#0_0" arrivalPos="3.99" arrivalSpeed="5.58" duration="47.00" routeLength="61.17" waitingTime="28.00" waitingCount="1" stopTime="0.00" timeLoss="42.14" rerouteNo="0" devices="tripinfo_flow_route_13_duration_20250327_1950.4" vType="car" speedFactor="1.04" vaporized=""/>
    <tripinfo id="flow_route_14_duration_20250327_1950.2" depart="23.00" departLane="1252820503#0_0" departPos="45.57" departSpeed="0.00" departDelay="3.00" arrival="96.00" arrivalLane="1254771874#0_0" arrivalPos="42.93" arrivalSpeed="13.39" duration="73.00" routeLength="207.24" waitingTime="37.00" waitingCount="1" stopTime="0.00" timeLoss="60.37" rerouteNo="0" devices="tripinfo_flow_route_14_duration_20250327_1950.2" vType="car" speedFactor="1.02" vaporized=""/>
    <tripinfo id="flow_route_14_duration_20250327_1950.0" depart="0.00" departLane="1252820503#0_0" departPos="69.02" departSpeed="0.00" departDelay="0.00" arrival="98.00" arrivalLane="1254771874#0_0" arrivalPos="150.80" arrivalSpeed="16.56" duration="98.00" routeLength="291.67" waitingTime="57.00" waitingCount="1" stopTime="0.00" timeLoss="79.69" rerouteNo="0" devices="tripinfo_flow_route_14_duration_20250327_1950.0" vType="car" speedFactor="1.03" vaporized=""/>
    <tripinfo id="flow_route_13_duration_20250327_1950.2" depart="25.00" departLane="1252820503#0_0" departPos="4.12" departSpeed="0.00" departDelay="1.00" arrival="99.00" arrivalLane="291974733#0_0" arrivalPos="54.35" arrivalSpeed="10.19" duration="74.00" routeLength="207.39" waitingTime="30.00" waitingCount="1" stopTime="0.00" timeLoss="59.66" rerouteNo="0" devices="tripinfo_flow_route_13_duration_20250327_1950.2" vType="car" speedFactor="0.89" vaporized=""/>
    <tripinfo id="flow_route_14_duration_20250327_1950.3" depart="30.00" departLane="1252820503#0_0" departPos="106.87" departSpeed="0.00" departDelay="0.00" arrival="101.00" arrivalLane="1254771874#0_1" arrivalPos="144.97" arrivalSpeed="16.19" duration="71.00" routeLength="247.98" waitingTime="36.00" waitingCount="1" stopTime="0.00" timeLoss="55.34" rerouteNo="0" devices="tripinfo_flow_route_14_duration_20250327_1950.3" vType="car" speedFactor="1.13" vaporized=""/>
    <tripinfo id="flow_route_14_duration_20250327_1950.1" depart="10.00" departLane="1252820503#0_0" departPos="58.71" departSpeed="0.00" departDelay="0.00" arrival="103.00" arrivalLane="1254771874#0_0" arrivalPos="210.71" arrivalSpeed="16.50" duration="93.00" routeLength="361.88" waitingTime="48.00" waitingCount="1" stopTime="0.00" timeLoss="70.67" rerouteNo="0" devices="tripinfo_flow_route_14_duration_20250327_1950.1" vType="car" speedFactor="1.05" vaporized=""/>
    <tripinfo id="flow_route_14_duration_20250327_1950.4" depart="41.00" departLane="1252820503#0_0" departPos="60.86" departSpeed="0.00" departDelay="1.00" arrival="109.00" arrivalLane="1254771874#0_1" arrivalPos="223.37" arrivalSpeed="16.29" duration="68.00" routeLength="372.39" waitingTime="21.00" waitingCount="1" stopTime="0.00" timeLoss="45.22" rerouteNo="0" devices="tripinfo_flow_route_14_duration_20250327_1950.4" vType="car" speedFactor="1.18" vaporized=""/>
    <tripinfo id="flow_route_14_duration_20250327_1950.5" depart="50.00" departLane="1252820503#0_0" departPos="63.79" departSpeed="0.00" departDelay="0.00" arrival="110.00" arrivalLane="1254771874#0_1" arrivalPos="216.12" arrivalSpeed="16.59" duration="60.00" routeLength="362.21" waitingTime="15.00" waitingCount="1" stopTime="0.00" timeLoss="38.07" rerouteNo="0" devices="tripinfo_flow_route_14_duration_20250327_1950.5" vType="car" speedFactor="1.09" vaporized=""/>
    <tripinfo id="flow_route_16_duration_20250327_1950.1" depart="30.00" departLane="137406408#0_0" departPos="26.77" departSpeed="0.00" departDelay="0.00" arrival="121.00" arrivalLane="133126040#0_0" arrivalPos="19.54" arrivalSpeed="8.77" duration="91.00" routeLength="113.96" waitingTime="66.00" waitingCount="1" stopTime="0.00" timeLoss="84.00" rerouteNo="0" devices="tripinfo_flow_route_16_duration_20250327_1950.1" vType="car" speedFactor="1.18" vaporized=""/>
    <tripinfo id="flow_route_17_duration_20250327_1950.2" depart="31.00" departLane="137406408#0_0" departPos="56.78" departSpeed="0.00" departDelay="1.00" arrival="123.00" arrivalLane="1254771874#0_0" arrivalPos="11.97" arrivalSpeed="9.89" duration="92.00" routeLength="98.41" waitingTime="69.00" waitingCount="1" stopTime="0.00" timeLoss="85.67" rerouteNo="0" devices="tripinfo_flow_route_17_duration_20250327_1950.2" vType="car" speedFactor="1.15" vaporized=""/>
    <tripinfo id="flow_route_17_duration_20250327_1950.3" depart="45.00" departLane="137406408#0_0" departPos="13.03" departSpeed="0.00" departDelay="0.00" arrival="127.00" arrivalLane="1254771874#0_0" arrivalPos="31.77" arrivalSpeed="11.35" duration="82.00" routeLength="161.95" waitingTime="51.00" waitingCount="1" stopTime="0.00" timeLoss="71.72" rerouteNo="0" devices="tripinfo_flow_route_17_duration_20250327_1950.3" vType="car" speedFactor="1.09" vaporized=""/>
    <tripinfo id="flow_route_9_duration_20250327_1950.6" depart="56.00" departLane="1318793173#0_0" departPos="1.58" departSpeed="0.00" departDelay="4.57" arrival="142.00" arrivalLane="1254771874#0_0" arrivalPos="151.50" arrivalSpeed="16.19" duration="86.00" routeLength="308.39" waitingTime="39.00" waitingCount="2" stopTime="0.00" timeLoss="64.93" rerouteNo="0" devices="tripinfo_flow_route_9_duration_20250327_1950.6" vType="car" speedFactor="0.90" vaporized=""/>
</tripinfos>
