<?xml version="1.0" encoding="UTF-8"?>

<!-- generated on 2025-05-06 21:08:02 by Eclipse SUMO sumo Version 1.20.0
<configuration xmlns:xsi="http://www.w3.org/2001/XMLSchema-instance" xsi:noNamespaceSchemaLocation="http://sumo.dlr.de/xsd/sumoConfiguration.xsd">

    <input>
        <net-file value="osm.net.xml"/>
        <route-files value="xml/route_rl_cluster_11648745684_256036885_3839031483_2.rou.xml"/>
    </input>

    <output>
        <tripinfo-output value="xml/tripinfo_rl_cluster_11648745684_256036885_3839031483_2.xml"/>
    </output>

    <traci_server>
        <remote-port value="49833"/>
    </traci_server>

</configuration>
-->

<tripinfos xmlns:xsi="http://www.w3.org/2001/XMLSchema-instance" xsi:noNamespaceSchemaLocation="http://sumo.dlr.de/xsd/tripinfo_file.xsd">
    <tripinfo id="flow_route_72_duration_20250327_2300.0" depart="0.00" departLane="1369578052#0_0" departPos="161.40" departSpeed="0.00" departDelay="0.00" arrival="15.00" arrivalLane="133342692#0_0" arrivalPos="42.43" arrivalSpeed="11.65" duration="15.00" routeLength="81.12" waitingTime="0.00" waitingCount="0" stopTime="0.00" timeLoss="8.08" rerouteNo="0" devices="tripinfo_flow_route_72_duration_20250327_2300.0" vType="car" speedFactor="0.89" vaporized=""/>
    <tripinfo id="flow_route_68_duration_20250327_2300.0" depart="0.00" departLane="1253209803#0_0" departPos="143.52" departSpeed="0.00" departDelay="0.00" arrival="29.00" arrivalLane="-138002002#2_1" arrivalPos="90.53" arrivalSpeed="16.38" duration="29.00" routeLength="298.33" waitingTime="0.00" waitingCount="0" stopTime="0.00" timeLoss="10.81" rerouteNo="0" devices="tripinfo_flow_route_68_duration_20250327_2300.0" vType="car" speedFactor="1.08" vaporized=""/>
    <tripinfo id="flow_route_70_duration_20250327_2300.0" depart="0.00" departLane="1253209803#0_0" departPos="83.97" departSpeed="0.00" departDelay="0.00" arrival="32.00" arrivalLane="133342692#0_2" arrivalPos="7.48" arrivalSpeed="9.70" duration="32.00" routeLength="271.18" waitingTime="0.00" waitingCount="0" stopTime="0.00" timeLoss="13.57" rerouteNo="0" devices="tripinfo_flow_route_70_duration_20250327_2300.0" vType="car" speedFactor="0.83" vaporized=""/>
    <tripinfo id="flow_route_69_duration_20250327_2300.0" depart="0.00" departLane="1253209803#0_0" departPos="179.76" departSpeed="0.00" departDelay="0.00" arrival="34.00" arrivalLane="380585337#0_0" arrivalPos="14.31" arrivalSpeed="16.34" duration="34.00" routeLength="299.43" waitingTime="0.00" waitingCount="0" stopTime="0.00" timeLoss="14.57" rerouteNo="0" devices="tripinfo_flow_route_69_duration_20250327_2300.0" vType="car" speedFactor="1.03" vaporized=""/>
    <tripinfo id="flow_route_71_duration_20250327_2300.0" depart="0.00" departLane="1369578052#0_0" departPos="11.11" departSpeed="0.00" departDelay="0.00" arrival="38.00" arrivalLane="138002016#0_0" arrivalPos="236.62" arrivalSpeed="16.39" duration="38.00" routeLength="443.19" waitingTime="0.00" waitingCount="0" stopTime="0.00" timeLoss="10.71" rerouteNo="0" devices="tripinfo_flow_route_71_duration_20250327_2300.0" vType="car" speedFactor="1.05" vaporized=""/>
    <tripinfo id="flow_route_70_duration_20250327_2300.1" depart="20.00" departLane="1253209803#0_0" departPos="227.15" departSpeed="0.00" departDelay="0.00" arrival="48.00" arrivalLane="133342692#0_2" arrivalPos="98.00" arrivalSpeed="14.54" duration="28.00" routeLength="218.52" waitingTime="0.00" waitingCount="0" stopTime="0.00" timeLoss="11.98" rerouteNo="0" devices="tripinfo_flow_route_70_duration_20250327_2300.1" vType="car" speedFactor="0.88" vaporized=""/>
    <tripinfo id="flow_route_70_duration_20250327_2300.2" depart="40.00" departLane="1253209803#0_0" departPos="67.42" departSpeed="0.00" departDelay="0.00" arrival="73.00" arrivalLane="133342692#0_2" arrivalPos="8.03" arrivalSpeed="9.45" duration="33.00" routeLength="288.29" waitingTime="0.00" waitingCount="0" stopTime="0.00" timeLoss="14.76" rerouteNo="0" devices="tripinfo_flow_route_70_duration_20250327_2300.2" vType="car" speedFactor="1.13" vaporized=""/>
    <tripinfo id="flow_route_65_duration_20250327_2300.0" depart="8.00" departLane="133131666#1_0" departPos="0.72" departSpeed="0.00" departDelay="8.00" arrival="81.00" arrivalLane="138002016#0_2" arrivalPos="14.48" arrivalSpeed="7.68" duration="73.00" routeLength="198.22" waitingTime="42.00" waitingCount="1" stopTime="0.00" timeLoss="60.41" rerouteNo="0" devices="tripinfo_flow_route_65_duration_20250327_2300.0" vType="car" speedFactor="1.01" vaporized=""/>
    <tripinfo id="flow_route_64_duration_20250327_2300.1" depart="20.00" departLane="133131666#1_0" departPos="14.83" departSpeed="0.00" departDelay="0.00" arrival="87.00" arrivalLane="-138002002#2_0" arrivalPos="30.94" arrivalSpeed="9.06" duration="67.00" routeLength="181.66" waitingTime="33.00" waitingCount="1" stopTime="0.00" timeLoss="53.72" rerouteNo="0" devices="tripinfo_flow_route_64_duration_20250327_2300.1" vType="car" speedFactor="0.93" vaporized=""/>
    <tripinfo id="flow_route_65_duration_20250327_2300.2" depart="16.00" departLane="133131666#1_0" departPos="21.41" departSpeed="0.00" departDelay="1.00" arrival="89.00" arrivalLane="138002016#0_2" arrivalPos="39.92" arrivalSpeed="10.89" duration="73.00" routeLength="202.96" waitingTime="34.00" waitingCount="1" stopTime="0.00" timeLoss="60.03" rerouteNo="0" devices="tripinfo_flow_route_65_duration_20250327_2300.2" vType="car" speedFactor="1.12" vaporized=""/>
    <tripinfo id="flow_route_64_duration_20250327_2300.2" depart="41.00" departLane="133131666#1_0" departPos="8.65" departSpeed="0.00" departDelay="1.00" arrival="89.00" arrivalLane="-138002002#2_0" arrivalPos="33.28" arrivalSpeed="8.72" duration="48.00" routeLength="190.18" waitingTime="12.00" waitingCount="1" stopTime="0.00" timeLoss="34.67" rerouteNo="0" devices="tripinfo_flow_route_64_duration_20250327_2300.2" vType="car" speedFactor="0.95" vaporized=""/>
    <tripinfo id="flow_route_65_duration_20250327_2300.1" depart="12.00" departLane="133131666#1_0" departPos="2.87" departSpeed="0.00" departDelay="4.50" arrival="90.00" arrivalLane="138002016#0_2" arrivalPos="75.36" arrivalSpeed="12.63" duration="78.00" routeLength="256.95" waitingTime="38.00" waitingCount="1" stopTime="0.00" timeLoss="61.76" rerouteNo="0" devices="tripinfo_flow_route_65_duration_20250327_2300.1" vType="car" speedFactor="1.03" vaporized=""/>
    <tripinfo id="flow_route_63_duration_20250327_2300.1" depart="30.00" departLane="133131666#1_0" departPos="6.19" departSpeed="0.00" departDelay="0.00" arrival="90.00" arrivalLane="133342692#0_1" arrivalPos="110.01" arrivalSpeed="14.08" duration="60.00" routeLength="287.54" waitingTime="12.00" waitingCount="1" stopTime="0.00" timeLoss="42.26" rerouteNo="0" devices="tripinfo_flow_route_63_duration_20250327_2300.1" vType="car" speedFactor="0.97" vaporized=""/>
    <tripinfo id="flow_route_63_duration_20250327_2300.0" depart="0.00" departLane="133131666#1_0" departPos="14.94" departSpeed="0.00" departDelay="0.00" arrival="93.00" arrivalLane="133342692#0_0" arrivalPos="152.76" arrivalSpeed="16.21" duration="93.00" routeLength="321.54" waitingTime="51.00" waitingCount="1" stopTime="0.00" timeLoss="72.67" rerouteNo="0" devices="tripinfo_flow_route_63_duration_20250327_2300.0" vType="car" speedFactor="1.06" vaporized=""/>
    <tripinfo id="flow_route_64_duration_20250327_2300.0" depart="2.00" departLane="133131666#1_0" departPos="6.82" departSpeed="0.00" departDelay="2.00" arrival="93.00" arrivalLane="-138002002#2_0" arrivalPos="131.25" arrivalSpeed="15.13" duration="91.00" routeLength="289.98" waitingTime="49.00" waitingCount="1" stopTime="0.00" timeLoss="70.68" rerouteNo="0" devices="tripinfo_flow_route_64_duration_20250327_2300.0" vType="car" speedFactor="0.94" vaporized=""/>
    <tripinfo id="flow_route_65_duration_20250327_2300.4" depart="33.00" departLane="133131666#1_0" departPos="22.03" departSpeed="0.00" departDelay="3.00" arrival="93.00" arrivalLane="138002016#0_2" arrivalPos="48.34" arrivalSpeed="11.67" duration="60.00" routeLength="210.77" waitingTime="25.00" waitingCount="1" stopTime="0.00" timeLoss="44.94" rerouteNo="0" devices="tripinfo_flow_route_65_duration_20250327_2300.4" vType="car" speedFactor="0.89" vaporized=""/>
    <tripinfo id="flow_route_65_duration_20250327_2300.3" depart="23.00" departLane="133131666#1_0" departPos="3.74" departSpeed="0.00" departDelay="0.50" arrival="99.00" arrivalLane="138002016#0_2" arrivalPos="156.81" arrivalSpeed="16.19" duration="76.00" routeLength="337.53" waitingTime="29.00" waitingCount="1" stopTime="0.00" timeLoss="54.75" rerouteNo="0" devices="tripinfo_flow_route_65_duration_20250327_2300.3" vType="car" speedFactor="1.02" vaporized=""/>
    <tripinfo id="flow_route_65_duration_20250327_2300.5" depart="38.00" departLane="133131666#1_0" departPos="4.60" departSpeed="0.00" departDelay="0.50" arrival="105.00" arrivalLane="138002016#0_2" arrivalPos="180.55" arrivalSpeed="15.26" duration="67.00" routeLength="360.41" waitingTime="19.00" waitingCount="1" stopTime="0.00" timeLoss="41.85" rerouteNo="0" devices="tripinfo_flow_route_65_duration_20250327_2300.5" vType="car" speedFactor="0.92" vaporized=""/>
    <tripinfo id="flow_route_65_duration_20250327_2300.6" depart="47.00" departLane="133131666#1_0" departPos="0.53" departSpeed="0.00" departDelay="2.00" arrival="106.00" arrivalLane="138002016#0_2" arrivalPos="132.81" arrivalSpeed="16.02" duration="59.00" routeLength="316.74" waitingTime="12.00" waitingCount="1" stopTime="0.00" timeLoss="39.07" rerouteNo="0" devices="tripinfo_flow_route_65_duration_20250327_2300.6" vType="car" speedFactor="1.17" vaporized=""/>
    <tripinfo id="flow_route_75_duration_20250327_2300.0" depart="0.00" departLane="380593307#0_0" departPos="8.02" departSpeed="0.00" departDelay="0.00" arrival="117.00" arrivalLane="-138002002#2_1" arrivalPos="1.11" arrivalSpeed="6.65" duration="117.00" routeLength="196.85" waitingTime="85.00" waitingCount="1" stopTime="0.00" timeLoss="104.37" rerouteNo="0" devices="tripinfo_flow_route_75_duration_20250327_2300.0" vType="car" speedFactor="1.09" vaporized=""/>
    <tripinfo id="flow_route_65_duration_20250327_2300.7" depart="53.00" departLane="133131666#1_0" departPos="13.88" departSpeed="0.00" departDelay="0.50" arrival="117.00" arrivalLane="138002016#0_2" arrivalPos="278.73" arrivalSpeed="16.37" duration="64.00" routeLength="449.31" waitingTime="8.00" waitingCount="1" stopTime="0.00" timeLoss="35.56" rerouteNo="0" devices="tripinfo_flow_route_65_duration_20250327_2300.7" vType="car" speedFactor="1.02" vaporized=""/>
    <tripinfo id="flow_route_75_duration_20250327_2300.1" depart="23.00" departLane="380593307#0_0" departPos="100.71" departSpeed="0.00" departDelay="3.00" arrival="122.00" arrivalLane="-138002002#2_1" arrivalPos="16.40" arrivalSpeed="9.15" duration="99.00" routeLength="119.45" waitingTime="72.00" waitingCount="1" stopTime="0.00" timeLoss="91.01" rerouteNo="0" devices="tripinfo_flow_route_75_duration_20250327_2300.1" vType="car" speedFactor="1.16" vaporized=""/>
    <tripinfo id="flow_route_74_duration_20250327_2300.2" depart="18.00" departLane="380593307#0_0" departPos="38.74" departSpeed="0.00" departDelay="0.86" arrival="128.00" arrivalLane="138002016#0_0" arrivalPos="84.07" arrivalSpeed="12.29" duration="110.00" routeLength="228.02" waitingTime="73.00" waitingCount="1" stopTime="0.00" timeLoss="94.81" rerouteNo="0" devices="tripinfo_flow_route_74_duration_20250327_2300.2" vType="car" speedFactor="0.99" vaporized=""/>
    <tripinfo id="flow_route_75_duration_20250327_2300.2" depart="41.00" departLane="380593307#0_0" departPos="89.03" departSpeed="0.00" departDelay="1.00" arrival="129.00" arrivalLane="-138002002#2_1" arrivalPos="64.81" arrivalSpeed="12.43" duration="88.00" routeLength="179.54" waitingTime="54.00" waitingCount="1" stopTime="0.00" timeLoss="76.35" rerouteNo="0" devices="tripinfo_flow_route_75_duration_20250327_2300.2" vType="car" speedFactor="1.15" vaporized=""/>
    <tripinfo id="flow_route_73_duration_20250327_2300.0" depart="0.00" departLane="380593307#0_0" departPos="55.90" departSpeed="0.00" departDelay="0.00" arrival="130.00" arrivalLane="380585337#0_0" arrivalPos="13.23" arrivalSpeed="15.30" duration="130.00" routeLength="294.01" waitingTime="89.00" waitingCount="1" stopTime="0.00" timeLoss="110.32" rerouteNo="0" devices="tripinfo_flow_route_73_duration_20250327_2300.0" vType="car" speedFactor="0.94" vaporized=""/>
    <tripinfo id="flow_route_73_duration_20250327_2300.1" depart="20.00" departLane="380593307#0_0" departPos="120.07" departSpeed="0.00" departDelay="0.00" arrival="132.00" arrivalLane="380585337#0_1" arrivalPos="19.69" arrivalSpeed="15.37" duration="112.00" routeLength="236.30" waitingTime="78.00" waitingCount="1" stopTime="0.00" timeLoss="96.67" rerouteNo="0" devices="tripinfo_flow_route_73_duration_20250327_2300.1" vType="car" speedFactor="0.94" vaporized=""/>
    <tripinfo id="flow_route_73_duration_20250327_2300.2" depart="40.00" departLane="380593307#0_0" departPos="73.48" departSpeed="0.00" departDelay="0.00" arrival="134.00" arrivalLane="380585337#0_1" arrivalPos="17.51" arrivalSpeed="16.45" duration="94.00" routeLength="280.72" waitingTime="54.00" waitingCount="1" stopTime="0.00" timeLoss="76.49" rerouteNo="0" devices="tripinfo_flow_route_73_duration_20250327_2300.2" vType="car" speedFactor="1.18" vaporized=""/>
    <tripinfo id="flow_route_74_duration_20250327_2300.0" depart="0.00" departLane="380593307#0_0" departPos="118.68" departSpeed="0.00" departDelay="0.00" arrival="135.00" arrivalLane="138002016#0_0" arrivalPos="237.21" arrivalSpeed="14.05" duration="135.00" routeLength="301.22" waitingTime="95.00" waitingCount="1" stopTime="0.00" timeLoss="112.25" rerouteNo="0" devices="tripinfo_flow_route_74_duration_20250327_2300.0" vType="car" speedFactor="0.86" vaporized=""/>
    <tripinfo id="flow_route_74_duration_20250327_2300.1" depart="10.00" departLane="380593307#0_0" departPos="118.94" departSpeed="0.00" departDelay="1.43" arrival="136.00" arrivalLane="138002016#0_1" arrivalPos="243.38" arrivalSpeed="16.44" duration="126.00" routeLength="307.13" waitingTime="88.00" waitingCount="1" stopTime="0.00" timeLoss="106.48" rerouteNo="0" devices="tripinfo_flow_route_74_duration_20250327_2300.1" vType="car" speedFactor="1.05" vaporized=""/>
    <tripinfo id="flow_route_74_duration_20250327_2300.4" depart="36.00" departLane="380593307#0_0" departPos="14.93" departSpeed="0.00" departDelay="1.72" arrival="138.00" arrivalLane="138002016#0_0" arrivalPos="99.92" arrivalSpeed="13.33" duration="102.00" routeLength="267.67" waitingTime="56.00" waitingCount="1" stopTime="0.00" timeLoss="81.76" rerouteNo="0" devices="tripinfo_flow_route_74_duration_20250327_2300.4" vType="car" speedFactor="0.87" vaporized=""/>
    <tripinfo id="flow_route_74_duration_20250327_2300.6" depart="52.00" departLane="380593307#0_0" departPos="18.18" departSpeed="0.00" departDelay="0.57" arrival="140.00" arrivalLane="138002016#0_0" arrivalPos="96.38" arrivalSpeed="13.50" duration="88.00" routeLength="260.89" waitingTime="45.00" waitingCount="1" stopTime="0.00" timeLoss="70.34" rerouteNo="0" devices="tripinfo_flow_route_74_duration_20250327_2300.6" vType="car" speedFactor="0.99" vaporized=""/>
    <tripinfo id="flow_route_74_duration_20250327_2300.3" depart="26.00" departLane="380593307#0_0" departPos="31.83" departSpeed="0.00" departDelay="0.29" arrival="145.00" arrivalLane="138002016#0_0" arrivalPos="303.99" arrivalSpeed="16.50" duration="119.00" routeLength="454.85" waitingTime="64.00" waitingCount="1" stopTime="0.00" timeLoss="90.12" rerouteNo="0" devices="tripinfo_flow_route_74_duration_20250327_2300.3" vType="car" speedFactor="1.01" vaporized=""/>
    <tripinfo id="flow_route_74_duration_20250327_2300.5" depart="43.00" departLane="380593307#0_0" departPos="101.56" departSpeed="0.00" departDelay="0.15" arrival="145.00" arrivalLane="138002016#0_0" arrivalPos="262.81" arrivalSpeed="16.33" duration="102.00" routeLength="343.93" waitingTime="57.00" waitingCount="1" stopTime="0.00" timeLoss="79.73" rerouteNo="0" devices="tripinfo_flow_route_74_duration_20250327_2300.5" vType="car" speedFactor="1.01" vaporized=""/>
    <tripinfo id="flow_route_71_duration_20250327_2300.1" depart="30.00" departLane="1369578052#0_0" departPos="171.08" departSpeed="0.00" departDelay="0.00" arrival="156.00" arrivalLane="138002016#0_0" arrivalPos="8.86" arrivalSpeed="7.72" duration="126.00" routeLength="55.46" waitingTime="108.00" waitingCount="1" stopTime="0.00" timeLoss="121.86" rerouteNo="0" devices="tripinfo_flow_route_71_duration_20250327_2300.1" vType="car" speedFactor="0.83" vaporized=""/>
    <tripinfo id="flow_route_72_duration_20250327_2300.2" depart="40.00" departLane="1369578052#0_0" departPos="125.10" departSpeed="0.00" departDelay="0.00" arrival="159.00" arrivalLane="133342692#0_0" arrivalPos="13.72" arrivalSpeed="8.33" duration="119.00" routeLength="88.70" waitingTime="93.00" waitingCount="1" stopTime="0.00" timeLoss="112.13" rerouteNo="0" devices="tripinfo_flow_route_72_duration_20250327_2300.2" vType="car" speedFactor="0.93" vaporized=""/>
    <tripinfo id="flow_route_72_duration_20250327_2300.1" depart="20.00" departLane="1369578052#0_0" departPos="109.90" departSpeed="0.00" departDelay="0.00" arrival="160.00" arrivalLane="133342692#0_0" arrivalPos="41.39" arrivalSpeed="10.23" duration="140.00" routeLength="131.56" waitingTime="107.00" waitingCount="1" stopTime="0.00" timeLoss="130.03" rerouteNo="0" devices="tripinfo_flow_route_72_duration_20250327_2300.1" vType="car" speedFactor="0.94" vaporized=""/>
</tripinfos>
