<?xml version="1.0" encoding="UTF-8"?>

<!-- generated on 2025-05-06 21:07:40 by Eclipse SUMO sumo Version 1.20.0
<configuration xmlns:xsi="http://www.w3.org/2001/XMLSchema-instance" xsi:noNamespaceSchemaLocation="http://sumo.dlr.de/xsd/sumoConfiguration.xsd">

    <input>
        <net-file value="osm.net.xml"/>
        <route-files value="xml/route_rl_cluster_11648561419_11648561420_2271142975_4854142869_0.rou.xml"/>
    </input>

    <output>
        <tripinfo-output value="xml/tripinfo_rl_cluster_11648561419_11648561420_2271142975_4854142869_0.xml"/>
    </output>

    <traci_server>
        <remote-port value="57605"/>
    </traci_server>

</configuration>
-->

<tripinfos xmlns:xsi="http://www.w3.org/2001/XMLSchema-instance" xsi:noNamespaceSchemaLocation="http://sumo.dlr.de/xsd/tripinfo_file.xsd">
    <tripinfo id="flow_route_119_duration_20250327_2220.0" depart="0.00" departLane="134194079#0_0" departPos="151.34" departSpeed="0.00" departDelay="0.00" arrival="23.00" arrivalLane="1253188486#8_0" arrivalPos="1.48" arrivalSpeed="9.19" duration="23.00" routeLength="161.10" waitingTime="0.00" waitingCount="0" stopTime="0.00" timeLoss="12.36" rerouteNo="0" devices="tripinfo_flow_route_119_duration_20250327_2220.0" vType="car" speedFactor="1.09" vaporized=""/>
    <tripinfo id="flow_route_97_duration_20250327_2220.0" depart="0.00" departLane="1328664748#0_0" departPos="149.74" departSpeed="0.00" departDelay="0.00" arrival="27.00" arrivalLane="135474719#0_0" arrivalPos="137.46" arrivalSpeed="15.89" duration="27.00" routeLength="222.45" waitingTime="0.00" waitingCount="0" stopTime="0.00" timeLoss="12.53" rerouteNo="0" devices="tripinfo_flow_route_97_duration_20250327_2220.0" vType="car" speedFactor="1.06" vaporized=""/>
    <tripinfo id="flow_route_98_duration_20250327_2220.0" depart="0.00" departLane="1328664748#0_0" departPos="103.72" departSpeed="0.00" departDelay="0.00" arrival="27.00" arrivalLane="177211987#1_0" arrivalPos="104.29" arrivalSpeed="15.20" duration="27.00" routeLength="249.04" waitingTime="0.00" waitingCount="0" stopTime="0.00" timeLoss="10.90" rerouteNo="0" devices="tripinfo_flow_route_98_duration_20250327_2220.0" vType="car" speedFactor="0.94" vaporized=""/>
    <tripinfo id="flow_route_99_duration_20250327_2220.0" depart="1.00" departLane="1328664748#0_0" departPos="68.32" departSpeed="0.00" departDelay="1.00" arrival="27.00" arrivalLane="1253188486#8_2" arrivalPos="11.16" arrivalSpeed="9.82" duration="26.00" routeLength="200.71" waitingTime="0.00" waitingCount="0" stopTime="0.00" timeLoss="13.32" rerouteNo="0" devices="tripinfo_flow_route_99_duration_20250327_2220.0" vType="car" speedFactor="1.01" vaporized=""/>
    <tripinfo id="flow_route_118_duration_20250327_2220.1" depart="5.00" departLane="134194079#0_0" departPos="277.04" departSpeed="0.00" departDelay="0.00" arrival="27.00" arrivalLane="1328664744#0_0" arrivalPos="140.54" arrivalSpeed="16.36" duration="22.00" routeLength="184.65" waitingTime="0.00" waitingCount="0" stopTime="0.00" timeLoss="9.91" rerouteNo="0" devices="tripinfo_flow_route_118_duration_20250327_2220.1" vType="car" speedFactor="1.03" vaporized=""/>
    <tripinfo id="flow_route_119_duration_20250327_2220.1" depart="8.00" departLane="134194079#0_0" departPos="261.87" departSpeed="0.00" departDelay="0.50" arrival="34.00" arrivalLane="1253188486#8_0" arrivalPos="202.24" arrivalSpeed="16.38" duration="26.00" routeLength="251.32" waitingTime="0.00" waitingCount="0" stopTime="0.00" timeLoss="9.79" rerouteNo="0" devices="tripinfo_flow_route_119_duration_20250327_2220.1" vType="car" speedFactor="1.05" vaporized=""/>
    <tripinfo id="flow_route_118_duration_20250327_2220.2" depart="10.00" departLane="134194079#0_0" departPos="160.58" departSpeed="0.00" departDelay="0.00" arrival="36.00" arrivalLane="1328664744#0_1" arrivalPos="87.98" arrivalSpeed="16.19" duration="26.00" routeLength="248.55" waitingTime="0.00" waitingCount="0" stopTime="0.00" timeLoss="10.63" rerouteNo="0" devices="tripinfo_flow_route_118_duration_20250327_2220.2" vType="car" speedFactor="1.12" vaporized=""/>
    <tripinfo id="flow_route_119_duration_20250327_2220.3" depart="23.00" departLane="134194079#0_0" departPos="284.56" departSpeed="0.00" departDelay="0.50" arrival="42.00" arrivalLane="1253188486#8_0" arrivalPos="100.92" arrivalSpeed="13.56" duration="19.00" routeLength="127.31" waitingTime="0.00" waitingCount="0" stopTime="0.00" timeLoss="10.61" rerouteNo="0" devices="tripinfo_flow_route_119_duration_20250327_2220.3" vType="car" speedFactor="1.16" vaporized=""/>
    <tripinfo id="flow_route_118_duration_20250327_2220.0" depart="0.00" departLane="134194079#0_0" departPos="13.63" departSpeed="0.00" departDelay="0.00" arrival="44.00" arrivalLane="1328664744#0_1" arrivalPos="165.30" arrivalSpeed="13.90" duration="44.00" routeLength="472.83" waitingTime="0.00" waitingCount="0" stopTime="0.00" timeLoss="10.31" rerouteNo="0" devices="tripinfo_flow_route_118_duration_20250327_2220.0" vType="car" speedFactor="0.86" vaporized=""/>
    <tripinfo id="flow_route_97_duration_20250327_2220.1" depart="30.00" departLane="1328664748#0_0" departPos="148.65" departSpeed="0.00" departDelay="0.00" arrival="49.00" arrivalLane="135474719#0_0" arrivalPos="25.91" arrivalSpeed="9.24" duration="19.00" routeLength="111.98" waitingTime="0.00" waitingCount="0" stopTime="0.00" timeLoss="10.97" rerouteNo="0" devices="tripinfo_flow_route_97_duration_20250327_2220.1" vType="car" speedFactor="1.01" vaporized=""/>
    <tripinfo id="flow_route_110_duration_20250327_2220.0" depart="0.00" departLane="1254519225#0.109_0" departPos="3.76" departSpeed="0.00" departDelay="0.00" arrival="82.00" arrivalLane="177211987#1_2" arrivalPos="6.38" arrivalSpeed="7.89" duration="82.00" routeLength="190.24" waitingTime="49.00" waitingCount="1" stopTime="0.00" timeLoss="66.90" rerouteNo="0" devices="tripinfo_flow_route_110_duration_20250327_2220.0" vType="car" speedFactor="0.83" vaporized=""/>
    <tripinfo id="flow_route_108_duration_20250327_2220.0" depart="0.00" departLane="1254519225#0.109_0" departPos="35.33" departSpeed="0.00" departDelay="0.00" arrival="88.00" arrivalLane="135474719#0_0" arrivalPos="75.82" arrivalSpeed="13.34" duration="88.00" routeLength="240.24" waitingTime="52.00" waitingCount="1" stopTime="0.00" timeLoss="73.32" rerouteNo="0" devices="tripinfo_flow_route_108_duration_20250327_2220.0" vType="car" speedFactor="1.08" vaporized=""/>
    <tripinfo id="flow_route_109_duration_20250327_2220.0" depart="0.00" departLane="1254519225#0.109_0" departPos="16.50" departSpeed="0.00" departDelay="0.00" arrival="92.00" arrivalLane="1328664744#0_0" arrivalPos="130.88" arrivalSpeed="15.08" duration="92.00" routeLength="288.61" waitingTime="51.00" waitingCount="1" stopTime="0.00" timeLoss="73.50" rerouteNo="0" devices="tripinfo_flow_route_109_duration_20250327_2220.0" vType="car" speedFactor="1.03" vaporized=""/>
    <tripinfo id="flow_route_108_duration_20250327_2220.1" depart="20.00" departLane="1254519225#0.109_0" departPos="8.07" departSpeed="0.00" departDelay="0.00" arrival="93.00" arrivalLane="135474719#0_2" arrivalPos="105.69" arrivalSpeed="15.18" duration="73.00" routeLength="297.37" waitingTime="31.00" waitingCount="1" stopTime="0.00" timeLoss="53.83" rerouteNo="0" devices="tripinfo_flow_route_108_duration_20250327_2220.1" vType="car" speedFactor="0.94" vaporized=""/>
    <tripinfo id="flow_route_108_duration_20250327_2220.2" depart="40.00" departLane="1254519225#0.109_0" departPos="40.03" departSpeed="0.00" departDelay="0.00" arrival="97.00" arrivalLane="135474719#0_0" arrivalPos="147.32" arrivalSpeed="16.37" duration="57.00" routeLength="307.04" waitingTime="15.00" waitingCount="1" stopTime="0.00" timeLoss="37.92" rerouteNo="0" devices="tripinfo_flow_route_108_duration_20250327_2220.2" vType="car" speedFactor="1.13" vaporized=""/>
    <tripinfo id="flow_route_114_duration_20250327_2220.0" depart="0.00" departLane="1253188486#4_0" departPos="49.31" departSpeed="0.00" departDelay="0.00" arrival="122.00" arrivalLane="177211987#1_0" arrivalPos="36.23" arrivalSpeed="9.77" duration="122.00" routeLength="153.37" waitingTime="92.00" waitingCount="1" stopTime="0.00" timeLoss="110.77" rerouteNo="0" devices="tripinfo_flow_route_114_duration_20250327_2220.0" vType="car" speedFactor="0.89" vaporized=""/>
    <tripinfo id="flow_route_113_duration_20250327_2220.1" depart="15.00" departLane="1253188486#4_0" departPos="117.09" departSpeed="0.00" departDelay="0.00" arrival="124.00" arrivalLane="1253188486#8_1" arrivalPos="58.08" arrivalSpeed="12.51" duration="109.00" routeLength="139.62" waitingTime="83.00" waitingCount="1" stopTime="0.00" timeLoss="100.40" rerouteNo="0" devices="tripinfo_flow_route_113_duration_20250327_2220.1" vType="car" speedFactor="0.99" vaporized=""/>
    <tripinfo id="flow_route_115_duration_20250327_2220.1" depart="30.00" departLane="1253188486#4_0" departPos="91.32" departSpeed="0.00" departDelay="0.00" arrival="125.00" arrivalLane="1328664744#0_2" arrivalPos="53.55" arrivalSpeed="11.73" duration="95.00" routeLength="147.63" waitingTime="67.00" waitingCount="1" stopTime="0.00" timeLoss="84.01" rerouteNo="0" devices="tripinfo_flow_route_115_duration_20250327_2220.1" vType="car" speedFactor="0.89" vaporized=""/>
    <tripinfo id="flow_route_115_duration_20250327_2220.0" depart="0.00" departLane="1253188486#4_0" departPos="104.70" departSpeed="0.00" departDelay="0.00" arrival="127.00" arrivalLane="1328664744#0_2" arrivalPos="120.97" arrivalSpeed="15.02" duration="127.00" routeLength="201.67" waitingTime="96.00" waitingCount="1" stopTime="0.00" timeLoss="113.37" rerouteNo="0" devices="tripinfo_flow_route_115_duration_20250327_2220.0" vType="car" speedFactor="0.94" vaporized=""/>
    <tripinfo id="flow_route_113_duration_20250327_2220.3" depart="45.00" departLane="1253188486#4_0" departPos="10.26" departSpeed="0.00" departDelay="0.00" arrival="129.00" arrivalLane="1253188486#8_0" arrivalPos="68.41" arrivalSpeed="13.33" duration="84.00" routeLength="256.78" waitingTime="44.00" waitingCount="1" stopTime="0.00" timeLoss="68.52" rerouteNo="0" devices="tripinfo_flow_route_113_duration_20250327_2220.3" vType="car" speedFactor="1.18" vaporized=""/>
    <tripinfo id="flow_route_113_duration_20250327_2220.2" depart="30.00" departLane="1253188486#4_0" departPos="109.60" departSpeed="0.00" departDelay="0.00" arrival="132.00" arrivalLane="1253188486#8_1" arrivalPos="140.24" arrivalSpeed="16.16" duration="102.00" routeLength="229.27" waitingTime="68.00" waitingCount="1" stopTime="0.00" timeLoss="87.58" rerouteNo="0" devices="tripinfo_flow_route_113_duration_20250327_2220.2" vType="car" speedFactor="0.97" vaporized=""/>
    <tripinfo id="flow_route_113_duration_20250327_2220.0" depart="0.00" departLane="1253188486#4_0" departPos="134.10" departSpeed="0.00" departDelay="0.00" arrival="133.00" arrivalLane="1253188486#8_0" arrivalPos="182.35" arrivalSpeed="16.25" duration="133.00" routeLength="246.88" waitingTime="100.00" waitingCount="1" stopTime="0.00" timeLoss="117.32" rerouteNo="0" devices="tripinfo_flow_route_113_duration_20250327_2220.0" vType="car" speedFactor="1.05" vaporized=""/>
    <tripinfo id="flow_route_118_duration_20250327_2220.3" depart="15.00" departLane="134194079#0_0" departPos="46.94" departSpeed="0.00" departDelay="0.00" arrival="155.00" arrivalLane="1328664744#0_1" arrivalPos="7.19" arrivalSpeed="7.09" duration="140.00" routeLength="281.40" waitingTime="102.00" waitingCount="1" stopTime="0.00" timeLoss="121.37" rerouteNo="0" devices="tripinfo_flow_route_118_duration_20250327_2220.3" vType="car" speedFactor="0.93" vaporized=""/>
    <tripinfo id="flow_route_119_duration_20250327_2220.4" depart="30.00" departLane="134194079#0_0" departPos="275.86" departSpeed="0.00" departDelay="0.00" arrival="156.00" arrivalLane="1253188486#8_0" arrivalPos="21.84" arrivalSpeed="7.73" duration="126.00" routeLength="56.93" waitingTime="107.00" waitingCount="1" stopTime="0.00" timeLoss="120.83" rerouteNo="0" devices="tripinfo_flow_route_119_duration_20250327_2220.4" vType="car" speedFactor="0.87" vaporized=""/>
    <tripinfo id="flow_route_118_duration_20250327_2220.8" depart="41.00" departLane="134194079#0_0" departPos="8.21" departSpeed="0.00" departDelay="1.00" arrival="160.00" arrivalLane="1328664744#0_2" arrivalPos="40.68" arrivalSpeed="10.91" duration="119.00" routeLength="353.62" waitingTime="73.00" waitingCount="1" stopTime="0.00" timeLoss="95.92" rerouteNo="0" devices="tripinfo_flow_route_118_duration_20250327_2220.8" vType="car" speedFactor="0.93" vaporized=""/>
    <tripinfo id="flow_route_118_duration_20250327_2220.4" depart="20.00" departLane="134194079#0_0" departPos="36.99" departSpeed="0.00" departDelay="0.00" arrival="161.00" arrivalLane="1328664744#0_2" arrivalPos="73.50" arrivalSpeed="12.30" duration="141.00" routeLength="357.66" waitingTime="96.00" waitingCount="1" stopTime="0.00" timeLoss="117.80" rerouteNo="0" devices="tripinfo_flow_route_118_duration_20250327_2220.4" vType="car" speedFactor="0.94" vaporized=""/>
    <tripinfo id="flow_route_118_duration_20250327_2220.5" depart="25.00" departLane="134194079#0_0" departPos="65.83" departSpeed="0.00" departDelay="0.00" arrival="162.00" arrivalLane="1328664744#0_1" arrivalPos="58.58" arrivalSpeed="11.69" duration="137.00" routeLength="313.91" waitingTime="95.00" waitingCount="1" stopTime="0.00" timeLoss="117.85" rerouteNo="0" devices="tripinfo_flow_route_118_duration_20250327_2220.5" vType="car" speedFactor="1.02" vaporized=""/>
    <tripinfo id="flow_route_119_duration_20250327_2220.7" depart="53.00" departLane="134194079#0_0" departPos="212.97" departSpeed="0.00" departDelay="0.50" arrival="164.00" arrivalLane="1253188486#8_0" arrivalPos="19.63" arrivalSpeed="8.85" duration="111.00" routeLength="117.61" waitingTime="83.00" waitingCount="1" stopTime="0.00" timeLoss="103.05" rerouteNo="0" devices="tripinfo_flow_route_119_duration_20250327_2220.7" vType="car" speedFactor="0.99" vaporized=""/>
    <tripinfo id="flow_route_118_duration_20250327_2220.10" depart="51.00" departLane="134194079#0_0" departPos="13.82" departSpeed="0.00" departDelay="1.00" arrival="165.00" arrivalLane="1328664744#0_1" arrivalPos="45.96" arrivalSpeed="11.98" duration="114.00" routeLength="353.29" waitingTime="66.00" waitingCount="1" stopTime="0.00" timeLoss="92.06" rerouteNo="0" devices="tripinfo_flow_route_118_duration_20250327_2220.10" vType="car" speedFactor="1.17" vaporized=""/>
    <tripinfo id="flow_route_118_duration_20250327_2220.11" depart="55.00" departLane="134194079#0_0" departPos="85.57" departSpeed="0.00" departDelay="0.00" arrival="166.00" arrivalLane="1328664744#0_2" arrivalPos="78.06" arrivalSpeed="13.45" duration="111.00" routeLength="313.64" waitingTime="66.00" waitingCount="1" stopTime="0.00" timeLoss="91.41" rerouteNo="0" devices="tripinfo_flow_route_118_duration_20250327_2220.11" vType="car" speedFactor="1.02" vaporized=""/>
    <tripinfo id="flow_route_119_duration_20250327_2220.2" depart="16.00" departLane="134194079#0_0" departPos="8.80" departSpeed="0.00" departDelay="1.00" arrival="167.00" arrivalLane="1253188486#8_0" arrivalPos="74.03" arrivalSpeed="13.66" duration="151.00" routeLength="376.19" waitingTime="90.00" waitingCount="1" stopTime="0.00" timeLoss="124.36" rerouteNo="0" devices="tripinfo_flow_route_119_duration_20250327_2220.2" vType="car" speedFactor="0.88" vaporized=""/>
    <tripinfo id="flow_route_118_duration_20250327_2220.9" depart="45.00" departLane="134194079#0_0" departPos="52.80" departSpeed="0.00" departDelay="0.00" arrival="168.00" arrivalLane="1328664744#0_1" arrivalPos="121.30" arrivalSpeed="15.33" duration="123.00" routeLength="389.65" waitingTime="75.00" waitingCount="1" stopTime="0.00" timeLoss="99.39" rerouteNo="0" devices="tripinfo_flow_route_118_duration_20250327_2220.9" vType="car" speedFactor="1.15" vaporized=""/>
    <tripinfo id="flow_route_118_duration_20250327_2220.6" depart="30.00" departLane="134194079#0_0" departPos="204.04" departSpeed="0.00" departDelay="0.00" arrival="171.00" arrivalLane="1328664744#0_0" arrivalPos="180.08" arrivalSpeed="13.69" duration="141.00" routeLength="297.19" waitingTime="101.00" waitingCount="1" stopTime="0.00" timeLoss="119.14" rerouteNo="0" devices="tripinfo_flow_route_118_duration_20250327_2220.6" vType="car" speedFactor="0.83" vaporized=""/>
    <tripinfo id="flow_route_118_duration_20250327_2220.7" depart="36.00" departLane="134194079#0_0" departPos="145.32" departSpeed="0.00" departDelay="1.00" arrival="175.00" arrivalLane="1328664744#0_0" arrivalPos="212.96" arrivalSpeed="14.99" duration="139.00" routeLength="388.79" waitingTime="91.00" waitingCount="1" stopTime="0.00" timeLoss="113.15" rerouteNo="0" devices="tripinfo_flow_route_118_duration_20250327_2220.7" vType="car" speedFactor="0.92" vaporized=""/>
    <tripinfo id="flow_route_119_duration_20250327_2220.5" depart="38.00" departLane="134194079#0_0" departPos="49.68" departSpeed="0.00" departDelay="0.50" arrival="178.00" arrivalLane="1253188486#8_0" arrivalPos="142.31" arrivalSpeed="16.00" duration="140.00" routeLength="403.58" waitingTime="82.00" waitingCount="1" stopTime="0.00" timeLoss="113.75" rerouteNo="0" devices="tripinfo_flow_route_119_duration_20250327_2220.5" vType="car" speedFactor="0.95" vaporized=""/>
    <tripinfo id="flow_route_119_duration_20250327_2220.6" depart="49.00" departLane="134194079#0_0" departPos="167.32" departSpeed="0.00" departDelay="4.00" arrival="181.00" arrivalLane="1253188486#8_0" arrivalPos="227.70" arrivalSpeed="16.58" duration="132.00" routeLength="371.33" waitingTime="83.00" waitingCount="1" stopTime="0.00" timeLoss="108.16" rerouteNo="0" devices="tripinfo_flow_route_119_duration_20250327_2220.6" vType="car" speedFactor="1.01" vaporized=""/>
</tripinfos>
