<?xml version="1.0" encoding="UTF-8"?>

<!-- generated on 2025-05-06 21:08:42 by Eclipse SUMO sumo Version 1.20.0
<configuration xmlns:xsi="http://www.w3.org/2001/XMLSchema-instance" xsi:noNamespaceSchemaLocation="http://sumo.dlr.de/xsd/sumoConfiguration.xsd">

    <input>
        <net-file value="osm.net.xml"/>
        <route-files value="xml/route_rl_cluster_3839031475_3839031476_4110471700_4234582615_6.rou.xml"/>
    </input>

    <output>
        <tripinfo-output value="xml/tripinfo_rl_cluster_3839031475_3839031476_4110471700_4234582615_6.xml"/>
    </output>

    <traci_server>
        <remote-port value="59321"/>
    </traci_server>

</configuration>
-->

<tripinfos xmlns:xsi="http://www.w3.org/2001/XMLSchema-instance" xsi:noNamespaceSchemaLocation="http://sumo.dlr.de/xsd/tripinfo_file.xsd">
    <tripinfo id="flow_route_85_duration_20250327_2210.0" depart="0.00" departLane="1091883842_0" departPos="162.60" departSpeed="0.00" departDelay="0.00" arrival="16.00" arrivalLane="133000063_0" arrivalPos="42.63" arrivalSpeed="9.42" duration="16.00" routeLength="74.77" waitingTime="0.00" waitingCount="0" stopTime="0.00" timeLoss="9.16" rerouteNo="0" devices="tripinfo_flow_route_85_duration_20250327_2210.0" vType="car" speedFactor="0.89" vaporized=""/>
    <tripinfo id="flow_route_79_duration_20250327_2210.0" depart="0.00" departLane="380344611#0_0" departPos="128.21" departSpeed="0.00" departDelay="0.00" arrival="28.00" arrivalLane="423956929_1" arrivalPos="91.18" arrivalSpeed="16.55" duration="28.00" routeLength="278.79" waitingTime="0.00" waitingCount="0" stopTime="0.00" timeLoss="10.80" rerouteNo="0" devices="tripinfo_flow_route_79_duration_20250327_2210.0" vType="car" speedFactor="1.08" vaporized=""/>
    <tripinfo id="flow_route_81_duration_20250327_2210.0" depart="0.00" departLane="380344611#0_0" departPos="75.01" departSpeed="0.00" departDelay="0.00" arrival="30.00" arrivalLane="133000063_2" arrivalPos="7.51" arrivalSpeed="8.93" duration="30.00" routeLength="248.37" waitingTime="0.00" waitingCount="0" stopTime="0.00" timeLoss="11.04" rerouteNo="0" devices="tripinfo_flow_route_81_duration_20250327_2210.0" vType="car" speedFactor="0.83" vaporized=""/>
    <tripinfo id="flow_route_80_duration_20250327_2210.0" depart="0.00" departLane="380344611#0_0" departPos="160.58" departSpeed="0.00" departDelay="0.00" arrival="31.00" arrivalLane="380593307#0_0" arrivalPos="102.42" arrivalSpeed="13.76" duration="31.00" routeLength="234.46" waitingTime="0.00" waitingCount="0" stopTime="0.00" timeLoss="16.18" rerouteNo="0" devices="tripinfo_flow_route_80_duration_20250327_2210.0" vType="car" speedFactor="1.03" vaporized=""/>
    <tripinfo id="flow_route_90_duration_20250327_2210.0" depart="0.00" departLane="380585338#0_0" departPos="118.71" departSpeed="0.00" departDelay="0.00" arrival="33.00" arrivalLane="136617981_0" arrivalPos="211.18" arrivalSpeed="13.85" duration="33.00" routeLength="279.54" waitingTime="0.00" waitingCount="0" stopTime="0.00" timeLoss="11.71" rerouteNo="0" devices="tripinfo_flow_route_90_duration_20250327_2210.0" vType="car" speedFactor="0.86" vaporized=""/>
    <tripinfo id="flow_route_84_duration_20250327_2210.0" depart="0.00" departLane="1091883842_0" departPos="11.19" departSpeed="0.00" departDelay="0.00" arrival="36.00" arrivalLane="136617981_0" arrivalPos="210.65" arrivalSpeed="16.41" duration="36.00" routeLength="417.75" waitingTime="0.00" waitingCount="0" stopTime="0.00" timeLoss="10.68" rerouteNo="0" devices="tripinfo_flow_route_84_duration_20250327_2210.0" vType="car" speedFactor="1.05" vaporized=""/>
    <tripinfo id="flow_route_84_duration_20250327_2210.1" depart="15.00" departLane="1091883842_0" departPos="57.02" departSpeed="0.00" departDelay="0.00" arrival="37.00" arrivalLane="136617981_0" arrivalPos="13.09" arrivalSpeed="16.14" duration="22.00" routeLength="174.36" waitingTime="0.00" waitingCount="0" stopTime="0.00" timeLoss="10.59" rerouteNo="0" devices="tripinfo_flow_route_84_duration_20250327_2210.1" vType="car" speedFactor="1.09" vaporized=""/>
    <tripinfo id="flow_route_79_duration_20250327_2210.1" depart="20.00" departLane="380344611#0_0" departPos="112.46" departSpeed="0.00" departDelay="0.00" arrival="55.00" arrivalLane="423956929_1" arrivalPos="174.22" arrivalSpeed="16.10" duration="35.00" routeLength="377.58" waitingTime="0.00" waitingCount="0" stopTime="0.00" timeLoss="11.54" rerouteNo="0" devices="tripinfo_flow_route_79_duration_20250327_2210.1" vType="car" speedFactor="1.05" vaporized=""/>
    <tripinfo id="flow_route_80_duration_20250327_2210.1" depart="20.00" departLane="380344611#0_0" departPos="154.35" departSpeed="0.00" departDelay="0.00" arrival="55.00" arrivalLane="380593307#0_0" arrivalPos="143.11" arrivalSpeed="16.27" duration="35.00" routeLength="281.38" waitingTime="0.00" waitingCount="0" stopTime="0.00" timeLoss="16.70" rerouteNo="0" devices="tripinfo_flow_route_80_duration_20250327_2210.1" vType="car" speedFactor="1.12" vaporized=""/>
    <tripinfo id="flow_route_81_duration_20250327_2210.1" depart="20.00" departLane="380344611#0_0" departPos="67.13" departSpeed="0.00" departDelay="0.00" arrival="62.00" arrivalLane="133000063_2" arrivalPos="152.88" arrivalSpeed="16.07" duration="42.00" routeLength="401.63" waitingTime="0.00" waitingCount="0" stopTime="0.00" timeLoss="16.34" rerouteNo="0" devices="tripinfo_flow_route_81_duration_20250327_2210.1" vType="car" speedFactor="0.99" vaporized=""/>
    <tripinfo id="flow_route_79_duration_20250327_2210.2" depart="40.00" departLane="380344611#0_0" departPos="74.88" departSpeed="0.00" departDelay="0.00" arrival="67.00" arrivalLane="423956929_0" arrivalPos="23.26" arrivalSpeed="16.32" duration="27.00" routeLength="264.20" waitingTime="0.00" waitingCount="0" stopTime="0.00" timeLoss="10.27" rerouteNo="0" devices="tripinfo_flow_route_79_duration_20250327_2210.2" vType="car" speedFactor="1.16" vaporized=""/>
    <tripinfo id="flow_route_80_duration_20250327_2210.2" depart="40.00" departLane="380344611#0_0" departPos="63.27" departSpeed="0.00" departDelay="0.00" arrival="76.00" arrivalLane="380593307#0_0" arrivalPos="71.41" arrivalSpeed="12.33" duration="36.00" routeLength="300.76" waitingTime="0.00" waitingCount="0" stopTime="0.00" timeLoss="16.79" rerouteNo="0" devices="tripinfo_flow_route_80_duration_20250327_2210.2" vType="car" speedFactor="1.02" vaporized=""/>
    <tripinfo id="flow_route_81_duration_20250327_2210.2" depart="40.00" departLane="380344611#0_0" departPos="47.63" departSpeed="0.00" departDelay="0.00" arrival="83.00" arrivalLane="133000063_2" arrivalPos="166.13" arrivalSpeed="16.53" duration="43.00" routeLength="434.38" waitingTime="0.00" waitingCount="0" stopTime="0.00" timeLoss="15.30" rerouteNo="0" devices="tripinfo_flow_route_81_duration_20250327_2210.2" vType="car" speedFactor="1.01" vaporized=""/>
    <tripinfo id="flow_route_89_duration_20250327_2210.3" depart="45.00" departLane="380585338#0_0" departPos="15.46" departSpeed="0.00" departDelay="0.00" arrival="87.00" arrivalLane="380593307#0_2" arrivalPos="41.91" arrivalSpeed="11.00" duration="42.00" routeLength="236.72" waitingTime="6.00" waitingCount="1" stopTime="0.00" timeLoss="25.48" rerouteNo="0" devices="tripinfo_flow_route_89_duration_20250327_2210.3" vType="car" speedFactor="0.89" vaporized=""/>
    <tripinfo id="flow_route_90_duration_20250327_2210.1" depart="30.00" departLane="380585338#0_0" departPos="57.53" departSpeed="0.00" departDelay="0.00" arrival="89.00" arrivalLane="136617981_0" arrivalPos="45.09" arrivalSpeed="10.67" duration="59.00" routeLength="174.63" waitingTime="26.00" waitingCount="1" stopTime="0.00" timeLoss="46.33" rerouteNo="0" devices="tripinfo_flow_route_90_duration_20250327_2210.1" vType="car" speedFactor="0.94" vaporized=""/>
    <tripinfo id="flow_route_89_duration_20250327_2210.1" depart="15.00" departLane="380585338#0_0" departPos="110.00" departSpeed="0.00" departDelay="0.00" arrival="90.00" arrivalLane="380593307#0_1" arrivalPos="89.06" arrivalSpeed="14.29" duration="75.00" routeLength="189.32" waitingTime="43.00" waitingCount="1" stopTime="0.00" timeLoss="62.94" rerouteNo="0" devices="tripinfo_flow_route_89_duration_20250327_2210.1" vType="car" speedFactor="1.03" vaporized=""/>
    <tripinfo id="flow_route_77_duration_20250327_2210.0" depart="0.00" departLane="133342692#0_0" departPos="115.39" departSpeed="0.00" departDelay="0.00" arrival="91.00" arrivalLane="423956929_0" arrivalPos="132.19" arrivalSpeed="15.33" duration="91.00" routeLength="199.33" waitingTime="60.00" waitingCount="1" stopTime="0.00" timeLoss="76.66" rerouteNo="0" devices="tripinfo_flow_route_77_duration_20250327_2210.0" vType="car" speedFactor="0.94" vaporized=""/>
    <tripinfo id="flow_route_89_duration_20250327_2210.0" depart="0.00" departLane="380585338#0_0" departPos="55.91" departSpeed="0.00" departDelay="0.00" arrival="91.00" arrivalLane="380593307#0_0" arrivalPos="94.67" arrivalSpeed="13.80" duration="91.00" routeLength="249.03" waitingTime="53.00" waitingCount="1" stopTime="0.00" timeLoss="75.01" rerouteNo="0" devices="tripinfo_flow_route_89_duration_20250327_2210.0" vType="car" speedFactor="0.94" vaporized=""/>
    <tripinfo id="flow_route_78_duration_20250327_2210.0" depart="0.00" departLane="133342692#0_0" departPos="79.92" departSpeed="0.00" departDelay="0.00" arrival="92.00" arrivalLane="136617981_2" arrivalPos="12.89" arrivalSpeed="6.16" duration="92.00" routeLength="138.43" waitingTime="59.00" waitingCount="2" stopTime="0.00" timeLoss="82.99" rerouteNo="0" devices="tripinfo_flow_route_78_duration_20250327_2210.0" vType="car" speedFactor="1.01" vaporized=""/>
    <tripinfo id="flow_route_76_duration_20250327_2210.0" depart="0.00" departLane="133342692#0_0" departPos="1.03" departSpeed="0.00" departDelay="0.00" arrival="94.00" arrivalLane="133000063_1" arrivalPos="153.47" arrivalSpeed="16.13" duration="94.00" routeLength="359.35" waitingTime="50.00" waitingCount="1" stopTime="0.00" timeLoss="71.76" rerouteNo="0" devices="tripinfo_flow_route_76_duration_20250327_2210.0" vType="car" speedFactor="1.06" vaporized=""/>
    <tripinfo id="flow_route_78_duration_20250327_2210.1" depart="31.00" departLane="133342692#0_0" departPos="22.18" departSpeed="0.00" departDelay="1.00" arrival="94.00" arrivalLane="136617981_2" arrivalPos="9.19" arrivalSpeed="7.01" duration="63.00" routeLength="192.47" waitingTime="26.00" waitingCount="2" stopTime="0.00" timeLoss="49.70" rerouteNo="0" devices="tripinfo_flow_route_78_duration_20250327_2210.1" vType="car" speedFactor="0.93" vaporized=""/>
    <tripinfo id="flow_route_89_duration_20250327_2210.2" depart="30.00" departLane="380585338#0_0" departPos="118.96" departSpeed="0.00" departDelay="0.00" arrival="96.00" arrivalLane="380593307#0_0" arrivalPos="132.73" arrivalSpeed="15.25" duration="66.00" routeLength="224.03" waitingTime="31.00" waitingCount="1" stopTime="0.00" timeLoss="50.90" rerouteNo="0" devices="tripinfo_flow_route_89_duration_20250327_2210.2" vType="car" speedFactor="0.94" vaporized=""/>
    <tripinfo id="flow_route_84_duration_20250327_2210.2" depart="30.00" departLane="1091883842_0" departPos="5.54" departSpeed="0.00" departDelay="0.00" arrival="163.00" arrivalLane="136617981_1" arrivalPos="85.53" arrivalSpeed="13.08" duration="133.00" routeLength="298.28" waitingTime="93.00" waitingCount="1" stopTime="0.00" timeLoss="112.28" rerouteNo="0" devices="tripinfo_flow_route_84_duration_20250327_2210.2" vType="car" speedFactor="0.88" vaporized=""/>
    <tripinfo id="flow_route_84_duration_20250327_2210.3" depart="45.00" departLane="1091883842_0" departPos="150.74" departSpeed="0.00" departDelay="0.00" arrival="168.00" arrivalLane="136617981_0" arrivalPos="162.01" arrivalSpeed="15.84" duration="123.00" routeLength="229.55" waitingTime="91.00" waitingCount="1" stopTime="0.00" timeLoss="108.75" rerouteNo="0" devices="tripinfo_flow_route_84_duration_20250327_2210.3" vType="car" speedFactor="0.97" vaporized=""/>
</tripinfos>
