<?xml version="1.0" encoding="UTF-8"?>

<!-- generated on 2025-05-06 21:08:26 by Eclipse SUMO sumo Version 1.20.0
<configuration xmlns:xsi="http://www.w3.org/2001/XMLSchema-instance" xsi:noNamespaceSchemaLocation="http://sumo.dlr.de/xsd/sumoConfiguration.xsd">

    <input>
        <net-file value="osm.net.xml"/>
        <route-files value="xml/route_static_632031937_4.rou.xml"/>
    </input>

    <output>
        <tripinfo-output value="xml/tripinfo_static_632031937_4.xml"/>
    </output>

    <traci_server>
        <remote-port value="43585"/>
    </traci_server>

</configuration>
-->

<tripinfos xmlns:xsi="http://www.w3.org/2001/XMLSchema-instance" xsi:noNamespaceSchemaLocation="http://sumo.dlr.de/xsd/tripinfo_file.xsd">
    <tripinfo id="flow_route_66_duration_20250327_1920.0" depart="0.00" departLane="-138002002#2_0" departPos="85.87" departSpeed="0.00" departDelay="0.00" arrival="20.00" arrivalLane="-138002006#3_1" arrivalPos="3.87" arrivalSpeed="13.12" duration="20.00" routeLength="121.39" waitingTime="0.00" waitingCount="0" stopTime="0.00" timeLoss="10.49" rerouteNo="0" devices="tripinfo_flow_route_66_duration_20250327_1920.0" vType="car" speedFactor="0.83" vaporized=""/>
    <tripinfo id="flow_route_53_duration_20250327_1920.0" depart="0.00" departLane="138002006#0_0" departPos="48.40" departSpeed="0.00" departDelay="0.00" arrival="23.00" arrivalLane="1369578052#0_1" arrivalPos="131.33" arrivalSpeed="15.35" duration="23.00" routeLength="190.85" waitingTime="0.00" waitingCount="0" stopTime="0.00" timeLoss="9.91" rerouteNo="0" devices="tripinfo_flow_route_53_duration_20250327_1920.0" vType="car" speedFactor="0.94" vaporized=""/>
    <tripinfo id="flow_route_53_duration_20250327_1920.3" depart="5.00" departLane="138002006#0_0" departPos="78.79" departSpeed="0.00" departDelay="0.50" arrival="24.00" arrivalLane="1369578052#0_0" arrivalPos="116.77" arrivalSpeed="14.87" duration="19.00" routeLength="145.89" waitingTime="0.00" waitingCount="0" stopTime="0.00" timeLoss="10.07" rerouteNo="0" devices="tripinfo_flow_route_53_duration_20250327_1920.3" vType="car" speedFactor="1.09" vaporized=""/>
    <tripinfo id="flow_route_53_duration_20250327_1920.4" depart="6.00" departLane="138002006#0_0" departPos="26.79" departSpeed="0.00" departDelay="0.00" arrival="24.00" arrivalLane="1369578052#0_0" arrivalPos="43.63" arrivalSpeed="14.02" duration="18.00" routeLength="124.77" waitingTime="0.00" waitingCount="0" stopTime="0.00" timeLoss="9.93" rerouteNo="0" devices="tripinfo_flow_route_53_duration_20250327_1920.4" vType="car" speedFactor="1.12" vaporized=""/>
    <tripinfo id="flow_route_53_duration_20250327_1920.1" depart="2.00" departLane="138002006#0_0" departPos="5.35" departSpeed="0.00" departDelay="0.50" arrival="25.00" arrivalLane="1369578052#0_1" arrivalPos="48.76" arrivalSpeed="14.68" duration="23.00" routeLength="151.33" waitingTime="0.00" waitingCount="0" stopTime="0.00" timeLoss="11.85" rerouteNo="0" devices="tripinfo_flow_route_53_duration_20250327_1920.1" vType="car" speedFactor="0.89" vaporized=""/>
    <tripinfo id="flow_route_53_duration_20250327_1920.2" depart="4.00" departLane="138002006#0_0" departPos="45.54" departSpeed="0.00" departDelay="1.00" arrival="29.00" arrivalLane="1369578052#0_0" arrivalPos="161.40" arrivalSpeed="15.49" duration="25.00" routeLength="223.78" waitingTime="0.00" waitingCount="0" stopTime="0.00" timeLoss="10.03" rerouteNo="0" devices="tripinfo_flow_route_53_duration_20250327_1920.2" vType="car" speedFactor="0.94" vaporized=""/>
    <tripinfo id="flow_route_53_duration_20250327_1920.5" depart="12.00" departLane="138002006#0_0" departPos="27.32" departSpeed="0.00" departDelay="4.50" arrival="29.00" arrivalLane="1369578052#0_0" arrivalPos="29.33" arrivalSpeed="13.44" duration="17.00" routeLength="109.93" waitingTime="0.00" waitingCount="0" stopTime="0.00" timeLoss="9.10" rerouteNo="0" devices="tripinfo_flow_route_53_duration_20250327_1920.5" vType="car" speedFactor="0.93" vaporized=""/>
    <tripinfo id="flow_route_52_duration_20250327_1920.0" depart="0.00" departLane="138002006#0_0" departPos="21.97" departSpeed="0.00" departDelay="0.00" arrival="30.00" arrivalLane="380351865#0_1" arrivalPos="15.21" arrivalSpeed="11.62" duration="30.00" routeLength="234.80" waitingTime="0.00" waitingCount="0" stopTime="0.00" timeLoss="10.44" rerouteNo="0" devices="tripinfo_flow_route_52_duration_20250327_1920.0" vType="car" speedFactor="1.06" vaporized=""/>
    <tripinfo id="flow_route_67_duration_20250327_1920.0" depart="1.00" departLane="-138002002#2_0" departPos="104.31" departSpeed="0.00" departDelay="1.00" arrival="31.00" arrivalLane="380351865#0_0" arrivalPos="12.69" arrivalSpeed="11.37" duration="30.00" routeLength="241.42" waitingTime="0.00" waitingCount="0" stopTime="0.00" timeLoss="10.36" rerouteNo="0" devices="tripinfo_flow_route_67_duration_20250327_1920.0" vType="car" speedFactor="1.05" vaporized=""/>
    <tripinfo id="flow_route_53_duration_20250327_1920.6" depart="14.00" departLane="138002006#0_0" departPos="2.47" departSpeed="0.00" departDelay="5.00" arrival="39.00" arrivalLane="1369578052#0_1" arrivalPos="23.85" arrivalSpeed="9.78" duration="25.00" routeLength="129.30" waitingTime="0.00" waitingCount="0" stopTime="0.00" timeLoss="16.42" rerouteNo="0" devices="tripinfo_flow_route_53_duration_20250327_1920.6" vType="car" speedFactor="0.94" vaporized=""/>
    <tripinfo id="flow_route_53_duration_20250327_1920.9" depart="21.00" departLane="138002006#0_0" departPos="43.74" departSpeed="0.00" departDelay="7.50" arrival="39.00" arrivalLane="1369578052#0_0" arrivalPos="27.99" arrivalSpeed="9.66" duration="18.00" routeLength="92.17" waitingTime="0.00" waitingCount="0" stopTime="0.00" timeLoss="11.64" rerouteNo="0" devices="tripinfo_flow_route_53_duration_20250327_1920.9" vType="car" speedFactor="0.87" vaporized=""/>
    <tripinfo id="flow_route_52_duration_20250327_1920.1" depart="9.00" departLane="138002006#0_0" departPos="11.13" departSpeed="0.00" departDelay="1.50" arrival="40.00" arrivalLane="380351865#0_1" arrivalPos="13.05" arrivalSpeed="10.79" duration="31.00" routeLength="243.48" waitingTime="0.00" waitingCount="0" stopTime="0.00" timeLoss="10.18" rerouteNo="0" devices="tripinfo_flow_route_52_duration_20250327_1920.1" vType="car" speedFactor="0.99" vaporized=""/>
    <tripinfo id="flow_route_53_duration_20250327_1920.11" depart="25.00" departLane="138002006#0_0" departPos="78.30" departSpeed="0.00" departDelay="8.50" arrival="41.00" arrivalLane="1369578052#0_0" arrivalPos="64.86" arrivalSpeed="11.18" duration="16.00" routeLength="94.48" waitingTime="0.00" waitingCount="0" stopTime="0.00" timeLoss="10.05" rerouteNo="0" devices="tripinfo_flow_route_53_duration_20250327_1920.11" vType="car" speedFactor="1.15" vaporized=""/>
    <tripinfo id="flow_route_58_duration_20250327_1920.0" depart="0.00" departLane="186407685_0" departPos="1.07" departSpeed="0.00" departDelay="0.00" arrival="48.00" arrivalLane="-138002006#3_1" arrivalPos="43.63" arrivalSpeed="9.91" duration="48.00" routeLength="235.82" waitingTime="13.00" waitingCount="1" stopTime="0.00" timeLoss="32.93" rerouteNo="0" devices="tripinfo_flow_route_58_duration_20250327_1920.0" vType="car" speedFactor="1.08" vaporized=""/>
    <tripinfo id="flow_route_52_duration_20250327_1920.2" depart="24.00" departLane="138002006#0_0" departPos="69.33" departSpeed="0.00" departDelay="9.00" arrival="50.00" arrivalLane="380351865#0_1" arrivalPos="15.84" arrivalSpeed="10.03" duration="26.00" routeLength="188.07" waitingTime="0.00" waitingCount="0" stopTime="0.00" timeLoss="6.56" rerouteNo="0" devices="tripinfo_flow_route_52_duration_20250327_1920.2" vType="car" speedFactor="0.92" vaporized=""/>
    <tripinfo id="flow_route_59_duration_20250327_1920.4" depart="10.00" departLane="186407685_0" departPos="143.73" departSpeed="0.00" departDelay="0.40" arrival="53.00" arrivalLane="1369578052#0_0" arrivalPos="48.68" arrivalSpeed="10.00" duration="43.00" routeLength="91.06" waitingTime="20.00" waitingCount="1" stopTime="0.00" timeLoss="36.50" rerouteNo="0" devices="tripinfo_flow_route_59_duration_20250327_1920.4" vType="car" speedFactor="1.16" vaporized=""/>
    <tripinfo id="flow_route_59_duration_20250327_1920.0" depart="0.00" departLane="186407685_0" departPos="119.17" departSpeed="0.00" departDelay="0.00" arrival="55.00" arrivalLane="1369578052#0_0" arrivalPos="108.75" arrivalSpeed="13.17" duration="55.00" routeLength="175.69" waitingTime="23.00" waitingCount="1" stopTime="0.00" timeLoss="43.54" rerouteNo="0" devices="tripinfo_flow_route_59_duration_20250327_1920.0" vType="car" speedFactor="1.03" vaporized=""/>
    <tripinfo id="flow_route_57_duration_20250327_1920.0" depart="0.00" departLane="186407685_0" departPos="131.94" departSpeed="0.00" departDelay="0.00" arrival="58.00" arrivalLane="380351865#0_0" arrivalPos="0.78" arrivalSpeed="11.22" duration="58.00" routeLength="205.45" waitingTime="24.00" waitingCount="1" stopTime="0.00" timeLoss="40.62" rerouteNo="0" devices="tripinfo_flow_route_57_duration_20250327_1920.0" vType="car" speedFactor="1.01" vaporized=""/>
    <tripinfo id="flow_route_59_duration_20250327_1920.3" depart="10.00" departLane="186407685_0" departPos="42.74" departSpeed="0.00" departDelay="2.80" arrival="58.00" arrivalLane="1369578052#0_0" arrivalPos="5.50" arrivalSpeed="6.01" duration="48.00" routeLength="148.86" waitingTime="14.00" waitingCount="1" stopTime="0.00" timeLoss="38.33" rerouteNo="0" devices="tripinfo_flow_route_59_duration_20250327_1920.3" vType="car" speedFactor="0.94" vaporized=""/>
    <tripinfo id="flow_route_57_duration_20250327_1920.1" depart="10.00" departLane="186407685_0" departPos="101.21" departSpeed="0.00" departDelay="2.50" arrival="61.00" arrivalLane="380351865#0_1" arrivalPos="16.33" arrivalSpeed="9.64" duration="51.00" routeLength="251.72" waitingTime="11.00" waitingCount="1" stopTime="0.00" timeLoss="28.14" rerouteNo="0" devices="tripinfo_flow_route_57_duration_20250327_1920.1" vType="car" speedFactor="0.88" vaporized=""/>
    <tripinfo id="flow_route_57_duration_20250327_1920.2" depart="15.00" departLane="186407685_0" departPos="15.23" departSpeed="0.00" departDelay="0.00" arrival="61.00" arrivalLane="380351865#0_1" arrivalPos="3.06" arrivalSpeed="9.42" duration="46.00" routeLength="324.43" waitingTime="1.00" waitingCount="1" stopTime="0.00" timeLoss="23.49" rerouteNo="0" devices="tripinfo_flow_route_57_duration_20250327_1920.2" vType="car" speedFactor="1.13" vaporized=""/>
    <tripinfo id="flow_route_59_duration_20250327_1920.1" depart="4.00" departLane="186407685_0" departPos="54.37" departSpeed="0.00" departDelay="1.60" arrival="63.00" arrivalLane="1369578052#0_0" arrivalPos="59.35" arrivalSpeed="10.45" duration="59.00" routeLength="191.09" waitingTime="15.00" waitingCount="1" stopTime="0.00" timeLoss="45.06" rerouteNo="0" devices="tripinfo_flow_route_59_duration_20250327_1920.1" vType="car" speedFactor="0.86" vaporized=""/>
    <tripinfo id="flow_route_59_duration_20250327_1920.6" depart="19.00" departLane="186407685_0" departPos="146.18" departSpeed="0.00" departDelay="4.60" arrival="66.00" arrivalLane="1369578052#0_0" arrivalPos="182.91" arrivalSpeed="15.40" duration="47.00" routeLength="222.84" waitingTime="15.00" waitingCount="1" stopTime="0.00" timeLoss="31.33" rerouteNo="0" devices="tripinfo_flow_route_59_duration_20250327_1920.6" vType="car" speedFactor="0.93" vaporized=""/>
    <tripinfo id="flow_route_59_duration_20250327_1920.2" depart="5.00" departLane="186407685_0" departPos="70.22" departSpeed="0.00" departDelay="0.20" arrival="67.00" arrivalLane="1369578052#0_0" arrivalPos="173.09" arrivalSpeed="16.21" duration="62.00" routeLength="288.98" waitingTime="15.00" waitingCount="1" stopTime="0.00" timeLoss="43.65" rerouteNo="0" devices="tripinfo_flow_route_59_duration_20250327_1920.2" vType="car" speedFactor="1.03" vaporized=""/>
    <tripinfo id="flow_route_57_duration_20250327_1920.3" depart="32.00" departLane="186407685_0" departPos="60.00" departSpeed="0.00" departDelay="9.50" arrival="67.00" arrivalLane="380351865#0_1" arrivalPos="7.02" arrivalSpeed="10.22" duration="35.00" routeLength="283.63" waitingTime="0.00" waitingCount="0" stopTime="0.00" timeLoss="12.07" rerouteNo="0" devices="tripinfo_flow_route_57_duration_20250327_1920.3" vType="car" speedFactor="0.96" vaporized=""/>
    <tripinfo id="flow_route_53_duration_20250327_1920.10" depart="24.00" departLane="138002006#0_0" departPos="24.96" departSpeed="0.00" departDelay="9.00" arrival="73.00" arrivalLane="1369578052#0_0" arrivalPos="12.35" arrivalSpeed="7.63" duration="49.00" routeLength="95.30" waitingTime="26.00" waitingCount="1" stopTime="0.00" timeLoss="42.91" rerouteNo="0" devices="tripinfo_flow_route_53_duration_20250327_1920.10" vType="car" speedFactor="0.95" vaporized=""/>
    <tripinfo id="flow_route_57_duration_20250327_1920.4" depart="38.00" departLane="186407685_0" departPos="40.33" departSpeed="0.00" departDelay="8.00" arrival="73.00" arrivalLane="380351865#0_1" arrivalPos="10.94" arrivalSpeed="11.85" duration="35.00" routeLength="307.23" waitingTime="0.00" waitingCount="0" stopTime="0.00" timeLoss="12.35" rerouteNo="0" devices="tripinfo_flow_route_57_duration_20250327_1920.4" vType="car" speedFactor="1.10" vaporized=""/>
    <tripinfo id="flow_route_59_duration_20250327_1920.5" depart="13.00" departLane="186407685_0" departPos="32.47" departSpeed="0.00" departDelay="1.00" arrival="76.00" arrivalLane="1369578052#0_0" arrivalPos="172.36" arrivalSpeed="14.50" duration="63.00" routeLength="326.00" waitingTime="14.00" waitingCount="1" stopTime="0.00" timeLoss="40.69" rerouteNo="0" devices="tripinfo_flow_route_59_duration_20250327_1920.5" vType="car" speedFactor="0.89" vaporized=""/>
    <tripinfo id="flow_route_66_duration_20250327_1920.1" depart="14.00" departLane="-138002002#2_0" departPos="100.72" departSpeed="0.00" departDelay="2.00" arrival="78.00" arrivalLane="-138002006#3_1" arrivalPos="85.22" arrivalSpeed="13.25" duration="64.00" routeLength="187.89" waitingTime="30.00" waitingCount="1" stopTime="0.00" timeLoss="49.84" rerouteNo="0" devices="tripinfo_flow_route_66_duration_20250327_1920.1" vType="car" speedFactor="0.83" vaporized=""/>
    <tripinfo id="flow_route_66_duration_20250327_1920.3" depart="36.00" departLane="-138002002#2_0" departPos="29.03" departSpeed="0.00" departDelay="0.00" arrival="78.00" arrivalLane="-138002006#3_1" arrivalPos="28.71" arrivalSpeed="10.25" duration="42.00" routeLength="203.07" waitingTime="7.00" waitingCount="1" stopTime="0.00" timeLoss="28.58" rerouteNo="0" devices="tripinfo_flow_route_66_duration_20250327_1920.3" vType="car" speedFactor="0.94" vaporized=""/>
    <tripinfo id="flow_route_66_duration_20250327_1920.2" depart="25.00" departLane="-138002002#2_0" departPos="7.85" departSpeed="0.00" departDelay="1.00" arrival="79.00" arrivalLane="-138002006#3_1" arrivalPos="58.76" arrivalSpeed="11.96" duration="54.00" routeLength="254.30" waitingTime="14.00" waitingCount="1" stopTime="0.00" timeLoss="38.07" rerouteNo="0" devices="tripinfo_flow_route_66_duration_20250327_1920.2" vType="car" speedFactor="1.04" vaporized=""/>
    <tripinfo id="flow_route_66_duration_20250327_1920.4" depart="48.00" departLane="-138002002#2_0" departPos="48.69" departSpeed="0.00" departDelay="0.00" arrival="79.00" arrivalLane="-138002006#3_1" arrivalPos="20.51" arrivalSpeed="8.98" duration="31.00" routeLength="175.21" waitingTime="0.00" waitingCount="0" stopTime="0.00" timeLoss="20.43" rerouteNo="0" devices="tripinfo_flow_route_66_duration_20250327_1920.4" vType="car" speedFactor="1.15" vaporized=""/>
    <tripinfo id="flow_route_53_duration_20250327_1920.7" depart="16.00" departLane="138002006#0_0" departPos="16.04" departSpeed="0.00" departDelay="5.50" arrival="81.00" arrivalLane="1369578052#0_0" arrivalPos="123.16" arrivalSpeed="14.36" duration="65.00" routeLength="215.04" waitingTime="26.00" waitingCount="1" stopTime="0.00" timeLoss="51.86" rerouteNo="0" devices="tripinfo_flow_route_53_duration_20250327_1920.7" vType="car" speedFactor="1.01" vaporized=""/>
    <tripinfo id="flow_route_53_duration_20250327_1920.8" depart="20.00" departLane="138002006#0_0" departPos="2.12" departSpeed="0.00" departDelay="8.00" arrival="82.00" arrivalLane="1369578052#0_1" arrivalPos="127.48" arrivalSpeed="14.88" duration="62.00" routeLength="233.29" waitingTime="26.00" waitingCount="1" stopTime="0.00" timeLoss="47.08" rerouteNo="0" devices="tripinfo_flow_route_53_duration_20250327_1920.8" vType="car" speedFactor="0.97" vaporized=""/>
    <tripinfo id="flow_route_53_duration_20250327_1920.13" depart="33.00" departLane="138002006#0_0" departPos="43.18" departSpeed="0.00" departDelay="13.50" arrival="82.00" arrivalLane="1369578052#0_0" arrivalPos="76.90" arrivalSpeed="12.55" duration="49.00" routeLength="141.64" waitingTime="21.00" waitingCount="1" stopTime="0.00" timeLoss="40.32" rerouteNo="0" devices="tripinfo_flow_route_53_duration_20250327_1920.13" vType="car" speedFactor="0.99" vaporized=""/>
    <tripinfo id="flow_route_53_duration_20250327_1920.18" depart="49.00" departLane="138002006#0_0" departPos="39.68" departSpeed="0.00" departDelay="22.00" arrival="82.00" arrivalLane="1369578052#0_0" arrivalPos="28.31" arrivalSpeed="10.08" duration="33.00" routeLength="96.55" waitingTime="10.00" waitingCount="1" stopTime="0.00" timeLoss="26.14" rerouteNo="0" devices="tripinfo_flow_route_53_duration_20250327_1920.18" vType="car" speedFactor="0.90" vaporized=""/>
    <tripinfo id="flow_route_67_duration_20250327_1920.3" depart="16.00" departLane="-138002002#2_0" departPos="132.98" departSpeed="0.00" departDelay="1.00" arrival="83.00" arrivalLane="380351865#0_0" arrivalPos="5.36" arrivalSpeed="13.05" duration="67.00" routeLength="205.43" waitingTime="34.00" waitingCount="1" stopTime="0.00" timeLoss="50.79" rerouteNo="0" devices="tripinfo_flow_route_67_duration_20250327_1920.3" vType="car" speedFactor="1.18" vaporized=""/>
    <tripinfo id="flow_route_53_duration_20250327_1920.12" depart="33.00" departLane="138002006#0_0" departPos="1.04" departSpeed="0.00" departDelay="15.00" arrival="84.00" arrivalLane="1369578052#0_0" arrivalPos="78.01" arrivalSpeed="12.45" duration="51.00" routeLength="184.90" waitingTime="19.00" waitingCount="1" stopTime="0.00" timeLoss="39.73" rerouteNo="0" devices="tripinfo_flow_route_53_duration_20250327_1920.12" vType="car" speedFactor="1.17" vaporized=""/>
    <tripinfo id="flow_route_67_duration_20250327_1920.2" depart="11.00" departLane="-138002002#2_0" departPos="109.83" departSpeed="0.00" departDelay="1.00" arrival="85.00" arrivalLane="380351865#0_0" arrivalPos="3.81" arrivalSpeed="11.04" duration="74.00" routeLength="227.03" waitingTime="34.00" waitingCount="1" stopTime="0.00" timeLoss="55.45" rerouteNo="0" devices="tripinfo_flow_route_67_duration_20250327_1920.2" vType="car" speedFactor="1.02" vaporized=""/>
    <tripinfo id="flow_route_53_duration_20250327_1920.15" depart="44.00" departLane="138002006#0_0" departPos="0.65" departSpeed="0.00" departDelay="21.50" arrival="86.00" arrivalLane="1369578052#0_0" arrivalPos="54.62" arrivalSpeed="12.18" duration="42.00" routeLength="161.89" waitingTime="9.00" waitingCount="1" stopTime="0.00" timeLoss="31.87" rerouteNo="0" devices="tripinfo_flow_route_53_duration_20250327_1920.15" vType="car" speedFactor="1.03" vaporized=""/>
    <tripinfo id="flow_route_67_duration_20250327_1920.4" depart="20.00" departLane="-138002002#2_0" departPos="115.17" departSpeed="0.00" departDelay="0.00" arrival="89.00" arrivalLane="380351865#0_0" arrivalPos="16.67" arrivalSpeed="10.34" duration="69.00" routeLength="234.55" waitingTime="32.00" waitingCount="1" stopTime="0.00" timeLoss="48.63" rerouteNo="0" devices="tripinfo_flow_route_67_duration_20250327_1920.4" vType="car" speedFactor="0.97" vaporized=""/>
    <tripinfo id="flow_route_67_duration_20250327_1920.1" depart="6.00" departLane="-138002002#2_0" departPos="5.97" departSpeed="0.00" departDelay="1.00" arrival="91.00" arrivalLane="380351865#0_0" arrivalPos="14.07" arrivalSpeed="11.19" duration="85.00" routeLength="341.15" waitingTime="30.00" waitingCount="1" stopTime="0.00" timeLoss="58.86" rerouteNo="0" devices="tripinfo_flow_route_67_duration_20250327_1920.1" vType="car" speedFactor="1.05" vaporized=""/>
    <tripinfo id="flow_route_67_duration_20250327_1920.7" depart="36.00" departLane="-138002002#2_0" departPos="147.69" departSpeed="0.00" departDelay="1.00" arrival="92.00" arrivalLane="380351865#0_0" arrivalPos="7.90" arrivalSpeed="11.98" duration="56.00" routeLength="193.26" waitingTime="25.00" waitingCount="1" stopTime="0.00" timeLoss="39.91" rerouteNo="0" devices="tripinfo_flow_route_67_duration_20250327_1920.7" vType="car" speedFactor="1.12" vaporized=""/>
    <tripinfo id="flow_route_53_duration_20250327_1920.16" depart="45.00" departLane="138002006#0_0" departPos="16.92" departSpeed="0.00" departDelay="21.00" arrival="94.00" arrivalLane="1369578052#0_1" arrivalPos="18.71" arrivalSpeed="8.69" duration="49.00" routeLength="109.72" waitingTime="15.00" waitingCount="2" stopTime="0.00" timeLoss="42.16" rerouteNo="0" devices="tripinfo_flow_route_53_duration_20250327_1920.16" vType="car" speedFactor="1.09" vaporized=""/>
    <tripinfo id="flow_route_53_duration_20250327_1920.20" depart="55.00" departLane="138002006#0_0" departPos="26.05" departSpeed="0.00" departDelay="25.00" arrival="94.00" arrivalLane="1369578052#0_0" arrivalPos="157.89" arrivalSpeed="16.24" duration="39.00" routeLength="239.76" waitingTime="5.00" waitingCount="1" stopTime="0.00" timeLoss="24.40" rerouteNo="0" devices="tripinfo_flow_route_53_duration_20250327_1920.20" vType="car" speedFactor="1.02" vaporized=""/>
    <tripinfo id="flow_route_67_duration_20250327_1920.6" depart="32.00" departLane="-138002002#2_0" departPos="121.33" departSpeed="0.00" departDelay="2.00" arrival="95.00" arrivalLane="380351865#0_0" arrivalPos="16.13" arrivalSpeed="10.86" duration="63.00" routeLength="227.85" waitingTime="24.00" waitingCount="1" stopTime="0.00" timeLoss="43.77" rerouteNo="0" devices="tripinfo_flow_route_67_duration_20250327_1920.6" vType="car" speedFactor="1.00" vaporized=""/>
    <tripinfo id="flow_route_67_duration_20250327_1920.5" depart="25.00" departLane="-138002002#2_0" departPos="71.96" departSpeed="0.00" departDelay="0.00" arrival="96.00" arrivalLane="380351865#0_0" arrivalPos="2.41" arrivalSpeed="11.54" duration="71.00" routeLength="263.50" waitingTime="23.00" waitingCount="1" stopTime="0.00" timeLoss="50.70" rerouteNo="0" devices="tripinfo_flow_route_67_duration_20250327_1920.5" vType="car" speedFactor="1.09" vaporized=""/>
    <tripinfo id="flow_route_53_duration_20250327_1920.24" depart="79.00" departLane="138002006#0_0" departPos="23.20" departSpeed="0.00" departDelay="43.00" arrival="96.00" arrivalLane="1369578052#0_0" arrivalPos="28.27" arrivalSpeed="13.17" duration="17.00" routeLength="112.99" waitingTime="0.00" waitingCount="0" stopTime="0.00" timeLoss="9.89" rerouteNo="0" devices="tripinfo_flow_route_53_duration_20250327_1920.24" vType="car" speedFactor="1.02" vaporized=""/>
    <tripinfo id="flow_route_53_duration_20250327_1920.22" depart="64.00" departLane="138002006#0_0" departPos="21.36" departSpeed="0.00" departDelay="31.00" arrival="97.00" arrivalLane="1369578052#0_0" arrivalPos="169.33" arrivalSpeed="16.11" duration="33.00" routeLength="255.89" waitingTime="0.00" waitingCount="0" stopTime="0.00" timeLoss="17.25" rerouteNo="0" devices="tripinfo_flow_route_53_duration_20250327_1920.22" vType="car" speedFactor="1.02" vaporized=""/>
    <tripinfo id="flow_route_53_duration_20250327_1920.23" depart="70.00" departLane="138002006#0_0" departPos="1.46" departSpeed="0.00" departDelay="35.50" arrival="97.00" arrivalLane="1369578052#0_0" arrivalPos="144.52" arrivalSpeed="16.40" duration="27.00" routeLength="250.98" waitingTime="0.00" waitingCount="0" stopTime="0.00" timeLoss="11.77" rerouteNo="0" devices="tripinfo_flow_route_53_duration_20250327_1920.23" vType="car" speedFactor="1.08" vaporized=""/>
    <tripinfo id="flow_route_67_duration_20250327_1920.8" depart="41.00" departLane="-138002002#2_0" departPos="74.30" departSpeed="0.00" departDelay="1.00" arrival="98.00" arrivalLane="380351865#0_0" arrivalPos="7.95" arrivalSpeed="10.89" duration="57.00" routeLength="266.71" waitingTime="15.00" waitingCount="1" stopTime="0.00" timeLoss="35.77" rerouteNo="0" devices="tripinfo_flow_route_67_duration_20250327_1920.8" vType="car" speedFactor="1.02" vaporized=""/>
    <tripinfo id="flow_route_53_duration_20250327_1920.25" depart="82.00" departLane="138002006#0_0" departPos="18.00" departSpeed="0.00" departDelay="44.50" arrival="99.00" arrivalLane="1369578052#0_0" arrivalPos="21.14" arrivalSpeed="13.07" duration="17.00" routeLength="111.06" waitingTime="0.00" waitingCount="0" stopTime="0.00" timeLoss="9.23" rerouteNo="0" devices="tripinfo_flow_route_53_duration_20250327_1920.25" vType="car" speedFactor="0.91" vaporized=""/>
    <tripinfo id="flow_route_52_duration_20250327_1920.3" depart="36.00" departLane="138002006#0_0" departPos="64.19" departSpeed="0.00" departDelay="13.50" arrival="101.00" arrivalLane="380351865#0_1" arrivalPos="16.58" arrivalSpeed="10.00" duration="65.00" routeLength="193.95" waitingTime="26.00" waitingCount="2" stopTime="0.00" timeLoss="44.94" rerouteNo="0" devices="tripinfo_flow_route_52_duration_20250327_1920.3" vType="car" speedFactor="0.90" vaporized=""/>
    <tripinfo id="flow_route_53_duration_20250327_1920.17" depart="47.00" departLane="138002006#0_0" departPos="48.44" departSpeed="0.00" departDelay="21.50" arrival="101.00" arrivalLane="1369578052#0_1" arrivalPos="124.48" arrivalSpeed="15.10" duration="54.00" routeLength="183.96" waitingTime="16.00" waitingCount="2" stopTime="0.00" timeLoss="42.59" rerouteNo="0" devices="tripinfo_flow_route_53_duration_20250327_1920.17" vType="car" speedFactor="1.00" vaporized=""/>
    <tripinfo id="flow_route_53_duration_20250327_1920.19" depart="51.00" departLane="138002006#0_0" departPos="4.35" departSpeed="0.00" departDelay="22.50" arrival="101.00" arrivalLane="1369578052#0_1" arrivalPos="51.11" arrivalSpeed="12.25" duration="50.00" routeLength="154.68" waitingTime="7.00" waitingCount="2" stopTime="0.00" timeLoss="38.79" rerouteNo="0" devices="tripinfo_flow_route_53_duration_20250327_1920.19" vType="car" speedFactor="0.85" vaporized=""/>
    <tripinfo id="flow_route_53_duration_20250327_1920.14" depart="34.00" departLane="138002006#0_0" departPos="34.93" departSpeed="0.00" departDelay="13.00" arrival="102.00" arrivalLane="1369578052#0_1" arrivalPos="170.49" arrivalSpeed="16.11" duration="68.00" routeLength="243.48" waitingTime="25.00" waitingCount="2" stopTime="0.00" timeLoss="53.27" rerouteNo="0" devices="tripinfo_flow_route_53_duration_20250327_1920.14" vType="car" speedFactor="1.18" vaporized=""/>
    <tripinfo id="flow_route_53_duration_20250327_1920.21" depart="60.00" departLane="138002006#0_0" departPos="2.36" departSpeed="0.00" departDelay="28.50" arrival="104.00" arrivalLane="1369578052#0_1" arrivalPos="63.75" arrivalSpeed="13.84" duration="44.00" routeLength="169.30" waitingTime="4.00" waitingCount="1" stopTime="0.00" timeLoss="32.09" rerouteNo="0" devices="tripinfo_flow_route_53_duration_20250327_1920.21" vType="car" speedFactor="0.90" vaporized=""/>
    <tripinfo id="flow_route_52_duration_20250327_1920.4" depart="52.00" departLane="138002006#0_0" departPos="17.93" departSpeed="0.00" departDelay="22.00" arrival="106.00" arrivalLane="380351865#0_1" arrivalPos="1.76" arrivalSpeed="12.61" duration="54.00" routeLength="225.39" waitingTime="7.00" waitingCount="2" stopTime="0.00" timeLoss="36.76" rerouteNo="0" devices="tripinfo_flow_route_52_duration_20250327_1920.4" vType="car" speedFactor="1.17" vaporized=""/>
    <tripinfo id="flow_route_59_duration_20250327_1920.7" depart="20.00" departLane="186407685_0" departPos="18.54" departSpeed="0.00" departDelay="3.20" arrival="114.00" arrivalLane="1369578052#0_0" arrivalPos="53.46" arrivalSpeed="9.99" duration="94.00" routeLength="221.03" waitingTime="45.00" waitingCount="2" stopTime="0.00" timeLoss="79.83" rerouteNo="0" devices="tripinfo_flow_route_59_duration_20250327_1920.7" vType="car" speedFactor="1.01" vaporized=""/>
    <tripinfo id="flow_route_59_duration_20250327_1920.8" depart="29.00" departLane="186407685_0" departPos="104.95" departSpeed="0.00" departDelay="9.80" arrival="114.00" arrivalLane="1369578052#0_0" arrivalPos="67.31" arrivalSpeed="10.56" duration="85.00" routeLength="148.48" waitingTime="45.00" waitingCount="2" stopTime="0.00" timeLoss="75.06" rerouteNo="0" devices="tripinfo_flow_route_59_duration_20250327_1920.8" vType="car" speedFactor="1.02" vaporized=""/>
    <tripinfo id="flow_route_58_duration_20250327_1920.1" depart="42.00" departLane="186407685_0" departPos="6.13" departSpeed="0.00" departDelay="12.00" arrival="115.00" arrivalLane="-138002006#3_1" arrivalPos="72.90" arrivalSpeed="11.85" duration="73.00" routeLength="260.03" waitingTime="35.00" waitingCount="1" stopTime="0.00" timeLoss="56.23" rerouteNo="0" devices="tripinfo_flow_route_58_duration_20250327_1920.1" vType="car" speedFactor="1.00" vaporized=""/>
    <tripinfo id="flow_route_59_duration_20250327_1920.12" depart="34.00" departLane="186407685_0" departPos="86.31" departSpeed="0.00" departDelay="5.20" arrival="119.00" arrivalLane="1369578052#0_0" arrivalPos="69.95" arrivalSpeed="11.45" duration="85.00" routeLength="169.74" waitingTime="42.00" waitingCount="2" stopTime="0.00" timeLoss="72.07" rerouteNo="0" devices="tripinfo_flow_route_59_duration_20250327_1920.12" vType="car" speedFactor="0.85" vaporized=""/>