<?xml version="1.0" encoding="UTF-8"?>

<!-- generated on 2025-05-06 21:08:01 by Eclipse SUMO sumo Version 1.20.0
<configuration xmlns:xsi="http://www.w3.org/2001/XMLSchema-instance" xsi:noNamespaceSchemaLocation="http://sumo.dlr.de/xsd/sumoConfiguration.xsd">

    <input>
        <net-file value="osm.net.xml"/>
        <route-files value="xml/route_rl_11644940310_2.rou.xml"/>
    </input>

    <output>
        <tripinfo-output value="xml/tripinfo_rl_11644940310_2.xml"/>
    </output>

    <traci_server>
        <remote-port value="35281"/>
    </traci_server>

</configuration>
-->

<tripinfos xmlns:xsi="http://www.w3.org/2001/XMLSchema-instance" xsi:noNamespaceSchemaLocation="http://sumo.dlr.de/xsd/tripinfo_file.xsd">
    <tripinfo id="flow_route_27_duration_20250327_2300.0" depart="0.00" departLane="1254771874#0_0" departPos="190.47" departSpeed="0.00" departDelay="0.00" arrival="15.00" arrivalLane="138002006#0_1" arrivalPos="4.04" arrivalSpeed="9.09" duration="15.00" routeLength="85.46" waitingTime="0.00" waitingCount="0" stopTime="0.00" timeLoss="8.82" rerouteNo="0" devices="tripinfo_flow_route_27_duration_20250327_2300.0" vType="car" speedFactor="1.01" vaporized=""/>
    <tripinfo id="flow_route_27_duration_20250327_2300.1" depart="8.00" departLane="1254771874#0_0" departPos="223.82" departSpeed="0.00" departDelay="0.50" arrival="21.00" arrivalLane="138002006#0_1" arrivalPos="5.35" arrivalSpeed="8.40" duration="13.00" routeLength="53.42" waitingTime="0.00" waitingCount="0" stopTime="0.00" timeLoss="8.27" rerouteNo="0" devices="tripinfo_flow_route_27_duration_20250327_2300.1" vType="car" speedFactor="0.89" vaporized=""/>
    <tripinfo id="flow_route_25_duration_20250327_2300.0" depart="0.00" departLane="1254771874#0_0" departPos="63.27" departSpeed="0.00" departDelay="0.00" arrival="34.00" arrivalLane="1341093415#0_0" arrivalPos="158.81" arrivalSpeed="16.47" duration="34.00" routeLength="373.33" waitingTime="0.00" waitingCount="0" stopTime="0.00" timeLoss="10.64" rerouteNo="0" devices="tripinfo_flow_route_25_duration_20250327_2300.0" vType="car" speedFactor="1.06" vaporized=""/>
    <tripinfo id="flow_route_26_duration_20250327_2300.0" depart="0.00" departLane="1254771874#0_0" departPos="139.38" departSpeed="0.00" departDelay="0.00" arrival="38.00" arrivalLane="-422986370#2_0" arrivalPos="213.43" arrivalSpeed="15.21" duration="38.00" routeLength="338.64" waitingTime="0.00" waitingCount="0" stopTime="0.00" timeLoss="15.96" rerouteNo="0" devices="tripinfo_flow_route_26_duration_20250327_2300.0" vType="car" speedFactor="0.94" vaporized=""/>
    <tripinfo id="flow_route_41_duration_20250327_2300.1" depart="12.00" departLane="1369578054_0" departPos="153.71" departSpeed="0.00" departDelay="0.00" arrival="46.00" arrivalLane="138002006#0_1" arrivalPos="4.10" arrivalSpeed="6.58" duration="34.00" routeLength="172.33" waitingTime="4.00" waitingCount="1" stopTime="0.00" timeLoss="21.58" rerouteNo="0" devices="tripinfo_flow_route_41_duration_20250327_2300.1" vType="car" speedFactor="0.86" vaporized=""/>
    <tripinfo id="flow_route_50_duration_20250327_2300.0" depart="0.00" departLane="-138002006#3_0" departPos="41.39" departSpeed="0.00" departDelay="0.00" arrival="47.00" arrivalLane="-422986370#2_0" arrivalPos="13.06" arrivalSpeed="7.39" duration="47.00" routeLength="82.72" waitingTime="25.00" waitingCount="1" stopTime="0.00" timeLoss="40.72" rerouteNo="0" devices="tripinfo_flow_route_50_duration_20250327_2300.0" vType="car" speedFactor="0.83" vaporized=""/>
    <tripinfo id="flow_route_41_duration_20250327_2300.0" depart="0.00" departLane="1369578054_0" departPos="201.66" departSpeed="0.00" departDelay="0.00" arrival="51.00" arrivalLane="138002006#0_0" arrivalPos="52.37" arrivalSpeed="10.99" duration="51.00" routeLength="172.64" waitingTime="20.00" waitingCount="1" stopTime="0.00" timeLoss="40.36" rerouteNo="0" devices="tripinfo_flow_route_41_duration_20250327_2300.0" vType="car" speedFactor="1.03" vaporized=""/>
    <tripinfo id="flow_route_40_duration_20250327_2300.1" depart="9.00" departLane="1369578054_0" departPos="204.84" departSpeed="0.00" departDelay="0.43" arrival="53.00" arrivalLane="1341093415#0_0" arrivalPos="57.39" arrivalSpeed="10.70" duration="44.00" routeLength="163.47" waitingTime="13.00" waitingCount="1" stopTime="0.00" timeLoss="32.65" rerouteNo="0" devices="tripinfo_flow_route_40_duration_20250327_2300.1" vType="car" speedFactor="0.94" vaporized=""/>
    <tripinfo id="flow_route_40_duration_20250327_2300.4" depart="37.00" departLane="1369578054_0" departPos="243.22" departSpeed="0.00" departDelay="2.72" arrival="56.00" arrivalLane="1341093415#0_0" arrivalPos="39.77" arrivalSpeed="10.36" duration="19.00" routeLength="107.47" waitingTime="0.00" waitingCount="0" stopTime="0.00" timeLoss="10.80" rerouteNo="0" devices="tripinfo_flow_route_40_duration_20250327_2300.4" vType="car" speedFactor="0.94" vaporized=""/>
    <tripinfo id="flow_route_40_duration_20250327_2300.0" depart="0.00" departLane="1369578054_0" departPos="1.81" departSpeed="0.00" departDelay="0.00" arrival="57.00" arrivalLane="1341093415#0_0" arrivalPos="87.60" arrivalSpeed="13.07" duration="57.00" routeLength="396.71" waitingTime="6.00" waitingCount="1" stopTime="0.00" timeLoss="32.23" rerouteNo="0" devices="tripinfo_flow_route_40_duration_20250327_2300.0" vType="car" speedFactor="1.08" vaporized=""/>
    <tripinfo id="flow_route_41_duration_20250327_2300.2" depart="24.00" departLane="1369578054_0" departPos="8.94" departSpeed="0.00" departDelay="0.00" arrival="61.00" arrivalLane="138002006#0_1" arrivalPos="84.92" arrivalSpeed="16.13" duration="37.00" routeLength="397.91" waitingTime="0.00" waitingCount="0" stopTime="0.00" timeLoss="12.62" rerouteNo="0" devices="tripinfo_flow_route_41_duration_20250327_2300.2" vType="car" speedFactor="0.99" vaporized=""/>
    <tripinfo id="flow_route_51_duration_20250327_2300.0" depart="2.00" departLane="-138002006#3_0" departPos="23.48" departSpeed="0.00" departDelay="2.00" arrival="65.00" arrivalLane="1341093415#0_3" arrivalPos="132.48" arrivalSpeed="14.92" duration="63.00" routeLength="212.67" waitingTime="28.00" waitingCount="2" stopTime="0.00" timeLoss="49.50" rerouteNo="0" devices="tripinfo_flow_route_51_duration_20250327_2300.0" vType="car" speedFactor="1.05" vaporized=""/>
    <tripinfo id="flow_route_40_duration_20250327_2300.2" depart="19.00" departLane="1369578054_0" departPos="70.93" departSpeed="0.00" departDelay="1.86" arrival="66.00" arrivalLane="1341093415#0_0" arrivalPos="158.21" arrivalSpeed="16.16" duration="47.00" routeLength="398.20" waitingTime="0.00" waitingCount="0" stopTime="0.00" timeLoss="21.84" rerouteNo="0" devices="tripinfo_flow_route_40_duration_20250327_2300.2" vType="car" speedFactor="1.03" vaporized=""/>
    <tripinfo id="flow_route_40_duration_20250327_2300.3" depart="27.00" departLane="1369578054_0" departPos="38.77" departSpeed="0.00" departDelay="1.29" arrival="68.00" arrivalLane="1341093415#0_0" arrivalPos="122.11" arrivalSpeed="14.37" duration="41.00" routeLength="394.26" waitingTime="0.00" waitingCount="0" stopTime="0.00" timeLoss="14.74" rerouteNo="0" devices="tripinfo_flow_route_40_duration_20250327_2300.3" vType="car" speedFactor="0.93" vaporized=""/>
    <tripinfo id="flow_route_41_duration_20250327_2300.3" depart="37.00" departLane="1369578054_0" departPos="26.67" departSpeed="0.00" departDelay="1.00" arrival="68.00" arrivalLane="138002006#0_1" arrivalPos="50.74" arrivalSpeed="16.12" duration="31.00" routeLength="346.00" waitingTime="0.00" waitingCount="0" stopTime="0.00" timeLoss="9.78" rerouteNo="0" devices="tripinfo_flow_route_41_duration_20250327_2300.3" vType="car" speedFactor="1.16" vaporized=""/>
    <tripinfo id="flow_route_40_duration_20250327_2300.5" depart="44.00" departLane="1369578054_0" departPos="92.22" departSpeed="0.00" departDelay="1.15" arrival="83.00" arrivalLane="1341093415#0_0" arrivalPos="166.66" arrivalSpeed="16.29" duration="39.00" routeLength="385.36" waitingTime="0.00" waitingCount="0" stopTime="0.00" timeLoss="14.27" rerouteNo="0" devices="tripinfo_flow_route_40_duration_20250327_2300.5" vType="car" speedFactor="0.97" vaporized=""/>
    <tripinfo id="flow_route_25_duration_20250327_2300.1" depart="20.00" departLane="1254771874#0_0" departPos="77.14" departSpeed="0.00" departDelay="0.00" arrival="119.00" arrivalLane="1341093415#0_1" arrivalPos="5.78" arrivalSpeed="6.21" duration="99.00" routeLength="206.42" waitingTime="64.00" waitingCount="1" stopTime="0.00" timeLoss="86.36" rerouteNo="0" devices="tripinfo_flow_route_25_duration_20250327_2300.1" vType="car" speedFactor="1.05" vaporized=""/>
    <tripinfo id="flow_route_27_duration_20250327_2300.2" depart="18.00" departLane="1254771874#0_0" departPos="101.37" departSpeed="0.00" departDelay="3.00" arrival="121.00" arrivalLane="138002006#0_1" arrivalPos="27.26" arrivalSpeed="8.22" duration="103.00" routeLength="197.77" waitingTime="70.00" waitingCount="1" stopTime="0.00" timeLoss="90.38" rerouteNo="0" devices="tripinfo_flow_route_27_duration_20250327_2300.2" vType="car" speedFactor="1.09" vaporized=""/>
    <tripinfo id="flow_route_26_duration_20250327_2300.1" depart="30.00" departLane="1254771874#0_0" departPos="246.56" departSpeed="0.00" departDelay="0.00" arrival="121.00" arrivalLane="-422986370#2_0" arrivalPos="37.56" arrivalSpeed="8.49" duration="91.00" routeLength="55.60" waitingTime="75.00" waitingCount="1" stopTime="0.00" timeLoss="86.18" rerouteNo="0" devices="tripinfo_flow_route_26_duration_20250327_2300.1" vType="car" speedFactor="0.88" vaporized=""/>
    <tripinfo id="flow_route_27_duration_20250327_2300.5" depart="38.00" departLane="1254771874#0_0" departPos="182.91" departSpeed="0.00" departDelay="0.50" arrival="127.00" arrivalLane="138002006#0_1" arrivalPos="59.31" arrivalSpeed="11.66" duration="89.00" routeLength="148.29" waitingTime="57.00" waitingCount="1" stopTime="0.00" timeLoss="78.58" rerouteNo="0" devices="tripinfo_flow_route_27_duration_20250327_2300.5" vType="car" speedFactor="1.02" vaporized=""/>
    <tripinfo id="flow_route_27_duration_20250327_2300.3" depart="23.00" departLane="1254771874#0_0" departPos="40.67" departSpeed="0.00" departDelay="0.50" arrival="129.00" arrivalLane="138002006#0_1" arrivalPos="67.86" arrivalSpeed="11.57" duration="106.00" routeLength="299.08" waitingTime="57.00" waitingCount="1" stopTime="0.00" timeLoss="87.38" rerouteNo="0" devices="tripinfo_flow_route_27_duration_20250327_2300.3" vType="car" speedFactor="1.12" vaporized=""/>
    <tripinfo id="flow_route_27_duration_20250327_2300.4" depart="30.00" departLane="1254771874#0_0" departPos="67.50" departSpeed="0.00" departDelay="0.00" arrival="129.00" arrivalLane="138002006#0_1" arrivalPos="36.52" arrivalSpeed="10.66" duration="99.00" routeLength="240.90" waitingTime="57.00" waitingCount="1" stopTime="0.00" timeLoss="82.82" rerouteNo="0" devices="tripinfo_flow_route_27_duration_20250327_2300.4" vType="car" speedFactor="0.94" vaporized=""/>
    <tripinfo id="flow_route_27_duration_20250327_2300.7" depart="53.00" departLane="1254771874#0_0" departPos="71.28" departSpeed="0.00" departDelay="0.50" arrival="129.00" arrivalLane="138002006#0_1" arrivalPos="2.47" arrivalSpeed="7.99" duration="76.00" routeLength="203.08" waitingTime="41.00" waitingCount="1" stopTime="0.00" timeLoss="62.84" rerouteNo="0" devices="tripinfo_flow_route_27_duration_20250327_2300.7" vType="car" speedFactor="0.92" vaporized=""/>
    <tripinfo id="flow_route_25_duration_20250327_2300.2" depart="40.00" departLane="1254771874#0_0" departPos="176.79" departSpeed="0.00" departDelay="0.00" arrival="131.00" arrivalLane="1341093415#0_0" arrivalPos="106.27" arrivalSpeed="14.14" duration="91.00" routeLength="207.26" waitingTime="57.00" waitingCount="1" stopTime="0.00" timeLoss="78.14" rerouteNo="0" devices="tripinfo_flow_route_25_duration_20250327_2300.2" vType="car" speedFactor="1.01" vaporized=""/>
    <tripinfo id="flow_route_27_duration_20250327_2300.6" depart="45.00" departLane="1254771874#0_0" departPos="148.28" departSpeed="0.00" departDelay="0.00" arrival="132.00" arrivalLane="138002006#0_1" arrivalPos="43.73" arrivalSpeed="11.51" duration="87.00" routeLength="167.34" waitingTime="52.00" waitingCount="1" stopTime="0.00" timeLoss="75.06" rerouteNo="0" devices="tripinfo_flow_route_27_duration_20250327_2300.6" vType="car" speedFactor="0.89" vaporized=""/>
    <tripinfo id="flow_route_41_duration_20250327_2300.4" depart="49.00" departLane="1369578054_0" departPos="54.94" departSpeed="0.00" departDelay="1.00" arrival="158.00" arrivalLane="138002006#0_0" arrivalPos="14.95" arrivalSpeed="7.45" duration="109.00" routeLength="281.94" waitingTime="71.00" waitingCount="1" stopTime="0.00" timeLoss="88.29" rerouteNo="0" devices="tripinfo_flow_route_41_duration_20250327_2300.4" vType="car" speedFactor="0.83" vaporized=""/>
    <tripinfo id="flow_route_40_duration_20250327_2300.6" depart="52.00" departLane="1369578054_0" departPos="45.49" departSpeed="0.00" departDelay="0.57" arrival="168.00" arrivalLane="1341093415#0_0" arrivalPos="114.37" arrivalSpeed="13.66" duration="116.00" routeLength="379.79" waitingTime="69.00" waitingCount="1" stopTime="0.00" timeLoss="89.59" rerouteNo="0" devices="tripinfo_flow_route_40_duration_20250327_2300.6" vType="car" speedFactor="0.87" vaporized=""/>
</tripinfos>
