<?xml version="1.0" encoding="UTF-8"?>

<!-- generated on 2025-05-06 21:08:32 by Eclipse SUMO sumo Version 1.20.0
<configuration xmlns:xsi="http://www.w3.org/2001/XMLSchema-instance" xsi:noNamespaceSchemaLocation="http://sumo.dlr.de/xsd/sumoConfiguration.xsd">

    <input>
        <net-file value="osm.net.xml"/>
        <route-files value="xml/route_rl_11644940310_5.rou.xml"/>
    </input>

    <output>
        <tripinfo-output value="xml/tripinfo_rl_11644940310_5.xml"/>
    </output>

    <traci_server>
        <remote-port value="39571"/>
    </traci_server>

</configuration>
-->

<tripinfos xmlns:xsi="http://www.w3.org/2001/XMLSchema-instance" xsi:noNamespaceSchemaLocation="http://sumo.dlr.de/xsd/tripinfo_file.xsd">
    <tripinfo id="flow_route_27_duration_20250327_2150.0" depart="0.00" departLane="1254771874#0_0" departPos="190.47" departSpeed="0.00" departDelay="0.00" arrival="15.00" arrivalLane="138002006#0_1" arrivalPos="4.04" arrivalSpeed="9.09" duration="15.00" routeLength="85.46" waitingTime="0.00" waitingCount="0" stopTime="0.00" timeLoss="8.80" rerouteNo="0" devices="tripinfo_flow_route_27_duration_20250327_2150.0" vType="car" speedFactor="1.01" vaporized=""/>
    <tripinfo id="flow_route_27_duration_20250327_2150.1" depart="7.00" departLane="1254771874#0_0" departPos="223.82" departSpeed="0.00" departDelay="0.33" arrival="19.00" arrivalLane="138002006#0_1" arrivalPos="5.35" arrivalSpeed="7.67" duration="12.00" routeLength="53.42" waitingTime="0.00" waitingCount="0" stopTime="0.00" timeLoss="7.28" rerouteNo="0" devices="tripinfo_flow_route_27_duration_20250327_2150.1" vType="car" speedFactor="0.89" vaporized=""/>
    <tripinfo id="flow_route_27_duration_20250327_2150.2" depart="15.00" departLane="1254771874#0_0" departPos="210.71" departSpeed="0.00" departDelay="1.67" arrival="33.00" arrivalLane="138002006#0_1" arrivalPos="27.26" arrivalSpeed="11.76" duration="18.00" routeLength="88.44" waitingTime="1.00" waitingCount="1" stopTime="0.00" timeLoss="11.86" rerouteNo="0" devices="tripinfo_flow_route_27_duration_20250327_2150.2" vType="car" speedFactor="1.09" vaporized=""/>
    <tripinfo id="flow_route_25_duration_20250327_2150.0" depart="0.00" departLane="1254771874#0_0" departPos="63.27" departSpeed="0.00" departDelay="0.00" arrival="34.00" arrivalLane="1341093415#0_0" arrivalPos="158.81" arrivalSpeed="16.47" duration="34.00" routeLength="373.33" waitingTime="0.00" waitingCount="0" stopTime="0.00" timeLoss="10.70" rerouteNo="0" devices="tripinfo_flow_route_25_duration_20250327_2150.0" vType="car" speedFactor="1.06" vaporized=""/>
    <tripinfo id="flow_route_26_duration_20250327_2150.0" depart="0.00" departLane="1254771874#0_0" departPos="139.38" departSpeed="0.00" departDelay="0.00" arrival="38.00" arrivalLane="-422986370#2_0" arrivalPos="213.43" arrivalSpeed="15.21" duration="38.00" routeLength="338.64" waitingTime="0.00" waitingCount="0" stopTime="0.00" timeLoss="16.00" rerouteNo="0" devices="tripinfo_flow_route_26_duration_20250327_2150.0" vType="car" speedFactor="0.94" vaporized=""/>
    <tripinfo id="flow_route_41_duration_20250327_2150.1" depart="12.00" departLane="1369578054_0" departPos="153.71" departSpeed="0.00" departDelay="0.00" arrival="46.00" arrivalLane="138002006#0_1" arrivalPos="4.10" arrivalSpeed="6.58" duration="34.00" routeLength="172.33" waitingTime="4.00" waitingCount="1" stopTime="0.00" timeLoss="21.57" rerouteNo="0" devices="tripinfo_flow_route_41_duration_20250327_2150.1" vType="car" speedFactor="0.86" vaporized=""/>
    <tripinfo id="flow_route_50_duration_20250327_2150.0" depart="0.00" departLane="-138002006#3_0" departPos="41.39" departSpeed="0.00" departDelay="0.00" arrival="47.00" arrivalLane="-422986370#2_0" arrivalPos="13.06" arrivalSpeed="7.63" duration="47.00" routeLength="82.72" waitingTime="25.00" waitingCount="1" stopTime="0.00" timeLoss="40.68" rerouteNo="0" devices="tripinfo_flow_route_50_duration_20250327_2150.0" vType="car" speedFactor="0.83" vaporized=""/>
    <tripinfo id="flow_route_41_duration_20250327_2150.0" depart="0.00" departLane="1369578054_0" departPos="201.66" departSpeed="0.00" departDelay="0.00" arrival="51.00" arrivalLane="138002006#0_0" arrivalPos="52.37" arrivalSpeed="10.80" duration="51.00" routeLength="172.64" waitingTime="19.00" waitingCount="1" stopTime="0.00" timeLoss="40.53" rerouteNo="0" devices="tripinfo_flow_route_41_duration_20250327_2150.0" vType="car" speedFactor="1.03" vaporized=""/>
    <tripinfo id="flow_route_40_duration_20250327_2150.1" depart="10.00" departLane="1369578054_0" departPos="204.84" departSpeed="0.00" departDelay="0.00" arrival="54.00" arrivalLane="1341093415#0_0" arrivalPos="57.39" arrivalSpeed="10.54" duration="44.00" routeLength="163.47" waitingTime="12.00" waitingCount="1" stopTime="0.00" timeLoss="32.76" rerouteNo="0" devices="tripinfo_flow_route_40_duration_20250327_2150.1" vType="car" speedFactor="0.94" vaporized=""/>
    <tripinfo id="flow_route_40_duration_20250327_2150.2" depart="20.00" departLane="1369578054_0" departPos="90.42" departSpeed="0.00" departDelay="0.00" arrival="56.00" arrivalLane="1341093415#0_0" arrivalPos="42.19" arrivalSpeed="10.13" duration="36.00" routeLength="262.69" waitingTime="0.00" waitingCount="0" stopTime="0.00" timeLoss="19.47" rerouteNo="0" devices="tripinfo_flow_route_40_duration_20250327_2150.2" vType="car" speedFactor="1.12" vaporized=""/>
    <tripinfo id="flow_route_41_duration_20250327_2150.2" depart="24.00" departLane="1369578054_0" departPos="47.67" departSpeed="0.00" departDelay="0.00" arrival="57.00" arrivalLane="138002006#0_1" arrivalPos="67.86" arrivalSpeed="16.37" duration="33.00" routeLength="342.12" waitingTime="0.00" waitingCount="0" stopTime="0.00" timeLoss="11.37" rerouteNo="0" devices="tripinfo_flow_route_41_duration_20250327_2150.2" vType="car" speedFactor="0.99" vaporized=""/>
    <tripinfo id="flow_route_40_duration_20250327_2150.0" depart="0.00" departLane="1369578054_0" departPos="1.81" departSpeed="0.00" departDelay="0.00" arrival="58.00" arrivalLane="1341093415#0_0" arrivalPos="87.60" arrivalSpeed="13.00" duration="58.00" routeLength="396.71" waitingTime="6.00" waitingCount="1" stopTime="0.00" timeLoss="33.23" rerouteNo="0" devices="tripinfo_flow_route_40_duration_20250327_2150.0" vType="car" speedFactor="1.08" vaporized=""/>
    <tripinfo id="flow_route_41_duration_20250327_2150.3" depart="37.00" departLane="1369578054_0" departPos="171.28" departSpeed="0.00" departDelay="1.00" arrival="59.00" arrivalLane="138002006#0_1" arrivalPos="19.81" arrivalSpeed="15.91" duration="22.00" routeLength="170.46" waitingTime="0.00" waitingCount="0" stopTime="0.00" timeLoss="10.90" rerouteNo="0" devices="tripinfo_flow_route_41_duration_20250327_2150.3" vType="car" speedFactor="1.16" vaporized=""/>
    <tripinfo id="flow_route_40_duration_20250327_2150.3" depart="30.00" departLane="1369578054_0" departPos="37.57" departSpeed="0.00" departDelay="0.00" arrival="67.00" arrivalLane="1341093415#0_0" arrivalPos="59.05" arrivalSpeed="11.52" duration="37.00" routeLength="332.40" waitingTime="0.00" waitingCount="0" stopTime="0.00" timeLoss="14.66" rerouteNo="0" devices="tripinfo_flow_route_40_duration_20250327_2150.3" vType="car" speedFactor="0.94" vaporized=""/>
    <tripinfo id="flow_route_40_duration_20250327_2150.4" depart="40.00" departLane="1369578054_0" departPos="200.20" departSpeed="0.00" departDelay="0.00" arrival="70.00" arrivalLane="1341093415#0_0" arrivalPos="144.68" arrivalSpeed="16.41" duration="30.00" routeLength="255.40" waitingTime="0.00" waitingCount="0" stopTime="0.00" timeLoss="13.67" rerouteNo="0" devices="tripinfo_flow_route_40_duration_20250327_2150.4" vType="car" speedFactor="1.01" vaporized=""/>
    <tripinfo id="flow_route_51_duration_20250327_2150.0" depart="2.00" departLane="-138002006#3_0" departPos="23.48" departSpeed="0.00" departDelay="2.00" arrival="77.00" arrivalLane="1341093415#0_3" arrivalPos="132.48" arrivalSpeed="14.94" duration="75.00" routeLength="212.67" waitingTime="40.00" waitingCount="2" stopTime="0.00" timeLoss="61.20" rerouteNo="0" devices="tripinfo_flow_route_51_duration_20250327_2150.0" vType="car" speedFactor="1.05" vaporized=""/>
    <tripinfo id="flow_route_41_duration_20250327_2150.4" depart="48.00" departLane="1369578054_0" departPos="92.22" departSpeed="0.00" departDelay="0.00" arrival="80.00" arrivalLane="138002006#0_1" arrivalPos="85.21" arrivalSpeed="13.28" duration="32.00" routeLength="314.92" waitingTime="0.00" waitingCount="0" stopTime="0.00" timeLoss="8.27" rerouteNo="0" devices="tripinfo_flow_route_41_duration_20250327_2150.4" vType="car" speedFactor="0.83" vaporized=""/>
    <tripinfo id="flow_route_40_duration_20250327_2150.5" depart="50.00" departLane="1369578054_0" departPos="173.81" departSpeed="0.00" departDelay="0.00" arrival="81.00" arrivalLane="1341093415#0_0" arrivalPos="87.80" arrivalSpeed="12.84" duration="31.00" routeLength="224.90" waitingTime="0.00" waitingCount="0" stopTime="0.00" timeLoss="14.54" rerouteNo="0" devices="tripinfo_flow_route_40_duration_20250327_2150.5" vType="car" speedFactor="0.87" vaporized=""/>
    <tripinfo id="flow_route_27_duration_20250327_2150.3" depart="20.00" departLane="1254771874#0_0" departPos="8.29" departSpeed="0.00" departDelay="0.00" arrival="123.00" arrivalLane="138002006#0_1" arrivalPos="48.32" arrivalSpeed="9.63" duration="103.00" routeLength="311.92" waitingTime="61.00" waitingCount="1" stopTime="0.00" timeLoss="83.27" rerouteNo="0" devices="tripinfo_flow_route_27_duration_20250327_2150.3" vType="car" speedFactor="1.05" vaporized=""/>
    <tripinfo id="flow_route_27_duration_20250327_2150.8" depart="54.00" departLane="1254771874#0_0" departPos="244.09" departSpeed="0.00" departDelay="0.67" arrival="125.00" arrivalLane="138002006#0_1" arrivalPos="14.95" arrivalSpeed="7.39" duration="71.00" routeLength="42.75" waitingTime="56.00" waitingCount="2" stopTime="0.00" timeLoss="67.16" rerouteNo="0" devices="tripinfo_flow_route_27_duration_20250327_2150.8" vType="car" speedFactor="0.92" vaporized=""/>
    <tripinfo id="flow_route_27_duration_20250327_2150.7" depart="47.00" departLane="1254771874#0_0" departPos="239.02" departSpeed="0.00" departDelay="0.34" arrival="126.00" arrivalLane="138002006#0_1" arrivalPos="61.39" arrivalSpeed="11.46" duration="79.00" routeLength="94.27" waitingTime="57.00" waitingCount="1" stopTime="0.00" timeLoss="71.69" rerouteNo="0" devices="tripinfo_flow_route_27_duration_20250327_2150.7" vType="car" speedFactor="0.89" vaporized=""/>
    <tripinfo id="flow_route_25_duration_20250327_2150.3" depart="45.00" departLane="1254771874#0_0" departPos="152.41" departSpeed="0.00" departDelay="0.00" arrival="131.00" arrivalLane="1341093415#0_0" arrivalPos="127.54" arrivalSpeed="15.35" duration="86.00" routeLength="252.91" waitingTime="47.00" waitingCount="1" stopTime="0.00" timeLoss="69.86" rerouteNo="0" devices="tripinfo_flow_route_25_duration_20250327_2150.3" vType="car" speedFactor="0.97" vaporized=""/>
    <tripinfo id="flow_route_25_duration_20250327_2150.1" depart="16.00" departLane="1254771874#0_0" departPos="101.37" departSpeed="0.00" departDelay="1.00" arrival="133.00" arrivalLane="1341093415#0_0" arrivalPos="167.37" arrivalSpeed="16.40" duration="117.00" routeLength="343.78" waitingTime="71.00" waitingCount="1" stopTime="0.00" timeLoss="95.39" rerouteNo="0" devices="tripinfo_flow_route_25_duration_20250327_2150.1" vType="car" speedFactor="1.03" vaporized=""/>
    <tripinfo id="flow_route_25_duration_20250327_2150.2" depart="30.00" departLane="1254771874#0_0" departPos="33.07" departSpeed="0.00" departDelay="0.00" arrival="133.00" arrivalLane="1341093415#0_0" arrivalPos="122.11" arrivalSpeed="15.30" duration="103.00" routeLength="366.82" waitingTime="48.00" waitingCount="1" stopTime="0.00" timeLoss="80.01" rerouteNo="0" devices="tripinfo_flow_route_25_duration_20250327_2150.2" vType="car" speedFactor="0.88" vaporized=""/>
    <tripinfo id="flow_route_27_duration_20250327_2150.5" depart="35.00" departLane="1254771874#0_0" departPos="67.50" departSpeed="0.00" departDelay="1.67" arrival="133.00" arrivalLane="138002006#0_1" arrivalPos="36.52" arrivalSpeed="9.78" duration="98.00" routeLength="240.90" waitingTime="57.00" waitingCount="2" stopTime="0.00" timeLoss="82.07" rerouteNo="0" devices="tripinfo_flow_route_27_duration_20250327_2150.5" vType="car" speedFactor="0.94" vaporized=""/>
    <tripinfo id="flow_route_27_duration_20250327_2150.6" depart="40.00" departLane="1254771874#0_0" departPos="22.76" departSpeed="0.00" departDelay="0.00" arrival="133.00" arrivalLane="138002006#0_1" arrivalPos="21.43" arrivalSpeed="9.14" duration="93.00" routeLength="270.56" waitingTime="48.00" waitingCount="1" stopTime="0.00" timeLoss="75.77" rerouteNo="0" devices="tripinfo_flow_route_27_duration_20250327_2150.6" vType="car" speedFactor="1.02" vaporized=""/>
    <tripinfo id="flow_route_27_duration_20250327_2150.4" depart="27.00" departLane="1254771874#0_0" departPos="7.62" departSpeed="0.00" departDelay="0.34" arrival="135.00" arrivalLane="138002006#0_1" arrivalPos="84.92" arrivalSpeed="13.09" duration="108.00" routeLength="349.18" waitingTime="57.00" waitingCount="2" stopTime="0.00" timeLoss="85.51" rerouteNo="0" devices="tripinfo_flow_route_27_duration_20250327_2150.4" vType="car" speedFactor="0.93" vaporized=""/>
</tripinfos>
