<?xml version="1.0" encoding="UTF-8"?>

<!-- generated on 2025-05-06 21:07:44 by Eclipse SUMO sumo Version 1.20.0
<configuration xmlns:xsi="http://www.w3.org/2001/XMLSchema-instance" xsi:noNamespaceSchemaLocation="http://sumo.dlr.de/xsd/sumoConfiguration.xsd">

    <input>
        <net-file value="osm.net.xml"/>
        <route-files value="xml/route_static_cluster_11648561419_11648561420_2271142975_4854142869_0.rou.xml"/>
    </input>

    <output>
        <tripinfo-output value="xml/tripinfo_static_cluster_11648561419_11648561420_2271142975_4854142869_0.xml"/>
    </output>

    <traci_server>
        <remote-port value="56761"/>
    </traci_server>

</configuration>
-->

<tripinfos xmlns:xsi="http://www.w3.org/2001/XMLSchema-instance" xsi:noNamespaceSchemaLocation="http://sumo.dlr.de/xsd/tripinfo_file.xsd">
    <tripinfo id="flow_route_118_duration_20250327_2130.1" depart="3.00" departLane="134194079#0_0" departPos="277.04" departSpeed="0.00" departDelay="0.39" arrival="26.00" arrivalLane="1328664744#0_0" arrivalPos="140.54" arrivalSpeed="16.41" duration="23.00" routeLength="184.65" waitingTime="0.00" waitingCount="0" stopTime="0.00" timeLoss="11.10" rerouteNo="0" devices="tripinfo_flow_route_118_duration_20250327_2130.1" vType="car" speedFactor="1.03" vaporized=""/>
    <tripinfo id="flow_route_97_duration_20250327_2130.0" depart="0.00" departLane="1328664748#0_0" departPos="149.74" departSpeed="0.00" departDelay="0.00" arrival="27.00" arrivalLane="135474719#0_0" arrivalPos="137.46" arrivalSpeed="15.89" duration="27.00" routeLength="222.45" waitingTime="0.00" waitingCount="0" stopTime="0.00" timeLoss="12.53" rerouteNo="0" devices="tripinfo_flow_route_97_duration_20250327_2130.0" vType="car" speedFactor="1.06" vaporized=""/>
    <tripinfo id="flow_route_98_duration_20250327_2130.0" depart="0.00" departLane="1328664748#0_0" departPos="103.72" departSpeed="0.00" departDelay="0.00" arrival="27.00" arrivalLane="177211987#1_0" arrivalPos="104.29" arrivalSpeed="15.20" duration="27.00" routeLength="249.04" waitingTime="0.00" waitingCount="0" stopTime="0.00" timeLoss="10.90" rerouteNo="0" devices="tripinfo_flow_route_98_duration_20250327_2130.0" vType="car" speedFactor="0.94" vaporized=""/>
    <tripinfo id="flow_route_119_duration_20250327_2130.0" depart="0.00" departLane="134194079#0_0" departPos="151.34" departSpeed="0.00" departDelay="0.00" arrival="27.00" arrivalLane="1253188486#8_0" arrivalPos="1.48" arrivalSpeed="8.60" duration="27.00" routeLength="161.10" waitingTime="0.00" waitingCount="0" stopTime="0.00" timeLoss="16.09" rerouteNo="0" devices="tripinfo_flow_route_119_duration_20250327_2130.0" vType="car" speedFactor="1.09" vaporized=""/>
    <tripinfo id="flow_route_118_duration_20250327_2130.3" depart="9.00" departLane="134194079#0_0" departPos="284.56" departSpeed="0.00" departDelay="1.18" arrival="32.00" arrivalLane="1328664744#0_0" arrivalPos="151.98" arrivalSpeed="15.44" duration="23.00" routeLength="188.57" waitingTime="0.00" waitingCount="0" stopTime="0.00" timeLoss="10.07" rerouteNo="0" devices="tripinfo_flow_route_118_duration_20250327_2130.3" vType="car" speedFactor="0.94" vaporized=""/>
    <tripinfo id="flow_route_118_duration_20250327_2130.4" depart="11.00" departLane="134194079#0_0" departPos="239.47" departSpeed="0.00" departDelay="0.57" arrival="34.00" arrivalLane="1328664744#0_0" arrivalPos="126.81" arrivalSpeed="16.14" duration="23.00" routeLength="208.49" waitingTime="0.00" waitingCount="0" stopTime="0.00" timeLoss="10.43" rerouteNo="0" devices="tripinfo_flow_route_118_duration_20250327_2130.4" vType="car" speedFactor="1.01" vaporized=""/>
    <tripinfo id="flow_route_119_duration_20250327_2130.3" depart="13.00" departLane="134194079#0_0" departPos="283.20" departSpeed="0.00" departDelay="0.15" arrival="36.00" arrivalLane="1253188486#8_0" arrivalPos="169.68" arrivalSpeed="16.57" duration="23.00" routeLength="197.43" waitingTime="0.00" waitingCount="0" stopTime="0.00" timeLoss="9.39" rerouteNo="0" devices="tripinfo_flow_route_119_duration_20250327_2130.3" vType="car" speedFactor="0.83" vaporized=""/>
    <tripinfo id="flow_route_118_duration_20250327_2130.5" depart="14.00" departLane="134194079#0_0" departPos="145.32" departSpeed="0.00" departDelay="0.96" arrival="43.00" arrivalLane="1328664744#0_1" arrivalPos="68.28" arrivalSpeed="14.18" duration="29.00" routeLength="244.11" waitingTime="0.00" waitingCount="0" stopTime="0.00" timeLoss="11.26" rerouteNo="0" devices="tripinfo_flow_route_118_duration_20250327_2130.5" vType="car" speedFactor="0.87" vaporized=""/>
    <tripinfo id="flow_route_118_duration_20250327_2130.0" depart="0.00" departLane="134194079#0_0" departPos="13.63" departSpeed="0.00" departDelay="0.00" arrival="46.00" arrivalLane="1328664744#0_1" arrivalPos="165.30" arrivalSpeed="13.95" duration="46.00" routeLength="472.83" waitingTime="0.00" waitingCount="0" stopTime="0.00" timeLoss="12.11" rerouteNo="0" devices="tripinfo_flow_route_118_duration_20250327_2130.0" vType="car" speedFactor="0.86" vaporized=""/>
    <tripinfo id="flow_route_99_duration_20250327_2130.0" depart="1.00" departLane="1328664748#0_0" departPos="68.32" departSpeed="0.00" departDelay="1.00" arrival="48.00" arrivalLane="1253188486#8_2" arrivalPos="11.16" arrivalSpeed="7.34" duration="47.00" routeLength="200.71" waitingTime="13.00" waitingCount="1" stopTime="0.00" timeLoss="34.04" rerouteNo="0" devices="tripinfo_flow_route_99_duration_20250327_2130.0" vType="car" speedFactor="1.01" vaporized=""/>
    <tripinfo id="flow_route_97_duration_20250327_2130.1" depart="20.00" departLane="1328664748#0_0" departPos="46.09" departSpeed="0.00" departDelay="0.00" arrival="49.00" arrivalLane="135474719#0_0" arrivalPos="52.30" arrivalSpeed="11.94" duration="29.00" routeLength="240.93" waitingTime="0.00" waitingCount="0" stopTime="0.00" timeLoss="13.14" rerouteNo="0" devices="tripinfo_flow_route_97_duration_20250327_2130.1" vType="car" speedFactor="1.17" vaporized=""/>
    <tripinfo id="flow_route_110_duration_20250327_2130.0" depart="0.00" departLane="1254519225#0.109_0" departPos="3.76" departSpeed="0.00" departDelay="0.00" arrival="64.00" arrivalLane="177211987#1_2" arrivalPos="6.38" arrivalSpeed="7.95" duration="64.00" routeLength="190.24" waitingTime="32.00" waitingCount="1" stopTime="0.00" timeLoss="48.83" rerouteNo="0" devices="tripinfo_flow_route_110_duration_20250327_2130.0" vType="car" speedFactor="0.83" vaporized=""/>
    <tripinfo id="flow_route_109_duration_20250327_2130.1" depart="12.00" departLane="1254519225#0.109_0" departPos="44.64" departSpeed="0.00" departDelay="0.00" arrival="68.00" arrivalLane="1328664744#0_0" arrivalPos="19.75" arrivalSpeed="8.79" duration="56.00" routeLength="149.34" waitingTime="25.00" waitingCount="1" stopTime="0.00" timeLoss="45.78" rerouteNo="0" devices="tripinfo_flow_route_109_duration_20250327_2130.1" vType="car" speedFactor="0.97" vaporized=""/>
    <tripinfo id="flow_route_108_duration_20250327_2130.0" depart="0.00" departLane="1254519225#0.109_0" departPos="35.33" departSpeed="0.00" departDelay="0.00" arrival="71.00" arrivalLane="135474719#0_0" arrivalPos="75.82" arrivalSpeed="14.17" duration="71.00" routeLength="240.24" waitingTime="33.00" waitingCount="1" stopTime="0.00" timeLoss="55.75" rerouteNo="0" devices="tripinfo_flow_route_108_duration_20250327_2130.0" vType="car" speedFactor="1.08" vaporized=""/>
    <tripinfo id="flow_route_109_duration_20250327_2130.0" depart="0.00" departLane="1254519225#0.109_0" departPos="16.50" departSpeed="0.00" departDelay="0.00" arrival="74.00" arrivalLane="1328664744#0_0" arrivalPos="130.88" arrivalSpeed="15.12" duration="74.00" routeLength="288.61" waitingTime="32.00" waitingCount="1" stopTime="0.00" timeLoss="55.44" rerouteNo="0" devices="tripinfo_flow_route_109_duration_20250327_2130.0" vType="car" speedFactor="1.03" vaporized=""/>
    <tripinfo id="flow_route_108_duration_20250327_2130.3" depart="23.00" departLane="1254519225#0.109_0" departPos="24.32" departSpeed="0.00" departDelay="0.50" arrival="75.00" arrivalLane="135474719#0_0" arrivalPos="65.29" arrivalSpeed="14.88" duration="52.00" routeLength="240.73" waitingTime="14.00" waitingCount="1" stopTime="0.00" timeLoss="37.10" rerouteNo="0" devices="tripinfo_flow_route_108_duration_20250327_2130.3" vType="car" speedFactor="1.18" vaporized=""/>
    <tripinfo id="flow_route_108_duration_20250327_2130.2" depart="15.00" departLane="1254519225#0.109_0" departPos="59.58" departSpeed="0.00" departDelay="0.00" arrival="76.00" arrivalLane="135474719#0_2" arrivalPos="89.49" arrivalSpeed="14.64" duration="61.00" routeLength="229.67" waitingTime="22.00" waitingCount="2" stopTime="0.00" timeLoss="45.58" rerouteNo="0" devices="tripinfo_flow_route_108_duration_20250327_2130.2" vType="car" speedFactor="0.92" vaporized=""/>
    <tripinfo id="flow_route_108_duration_20250327_2130.1" depart="8.00" departLane="1254519225#0.109_0" departPos="20.67" departSpeed="0.00" departDelay="0.50" arrival="78.00" arrivalLane="135474719#0_2" arrivalPos="147.58" arrivalSpeed="14.34" duration="70.00" routeLength="326.66" waitingTime="27.00" waitingCount="1" stopTime="0.00" timeLoss="47.07" rerouteNo="0" devices="tripinfo_flow_route_108_duration_20250327_2130.1" vType="car" speedFactor="0.88" vaporized=""/>
    <tripinfo id="flow_route_108_duration_20250327_2130.6" depart="45.00" departLane="1254519225#0.109_0" departPos="20.18" departSpeed="0.00" departDelay="0.00" arrival="79.00" arrivalLane="135474719#0_2" arrivalPos="51.35" arrivalSpeed="13.12" duration="34.00" routeLength="230.92" waitingTime="0.00" waitingCount="0" stopTime="0.00" timeLoss="18.63" rerouteNo="0" devices="tripinfo_flow_route_108_duration_20250327_2130.6" vType="car" speedFactor="0.91" vaporized=""/>
    <tripinfo id="flow_route_109_duration_20250327_2130.4" depart="48.00" departLane="1254519225#0.109_0" departPos="14.10" departSpeed="0.00" departDelay="0.00" arrival="79.00" arrivalLane="1328664744#0_0" arrivalPos="28.73" arrivalSpeed="11.43" duration="31.00" routeLength="188.86" waitingTime="0.00" waitingCount="0" stopTime="0.00" timeLoss="18.52" rerouteNo="0" devices="tripinfo_flow_route_109_duration_20250327_2130.4" vType="car" speedFactor="1.02" vaporized=""/>
    <tripinfo id="flow_route_108_duration_20250327_2130.4" depart="30.00" departLane="1254519225#0.109_0" departPos="6.33" departSpeed="0.00" departDelay="0.00" arrival="81.00" arrivalLane="135474719#0_2" arrivalPos="149.88" arrivalSpeed="16.51" duration="51.00" routeLength="343.30" waitingTime="5.00" waitingCount="1" stopTime="0.00" timeLoss="30.29" rerouteNo="0" devices="tripinfo_flow_route_108_duration_20250327_2130.4" vType="car" speedFactor="1.00" vaporized=""/>
    <tripinfo id="flow_route_109_duration_20250327_2130.3" depart="36.00" departLane="1254519225#0.109_0" departPos="17.30" departSpeed="0.00" departDelay="0.00" arrival="83.00" arrivalLane="1328664744#0_0" arrivalPos="147.15" arrivalSpeed="15.18" duration="47.00" routeLength="304.08" waitingTime="3.00" waitingCount="1" stopTime="0.00" timeLoss="27.94" rerouteNo="0" devices="tripinfo_flow_route_109_duration_20250327_2130.3" vType="car" speedFactor="1.00" vaporized=""/>
    <tripinfo id="flow_route_108_duration_20250327_2130.5" depart="38.00" departLane="1254519225#0.109_0" departPos="34.27" departSpeed="0.00" departDelay="0.50" arrival="83.00" arrivalLane="135474719#0_2" arrivalPos="132.15" arrivalSpeed="14.81" duration="45.00" routeLength="297.63" waitingTime="2.00" waitingCount="1" stopTime="0.00" timeLoss="24.38" rerouteNo="0" devices="tripinfo_flow_route_108_duration_20250327_2130.5" vType="car" speedFactor="0.90" vaporized=""/>
    <tripinfo id="flow_route_109_duration_20250327_2130.2" depart="24.00" departLane="1254519225#0.109_0" departPos="26.03" departSpeed="0.00" departDelay="0.00" arrival="84.00" arrivalLane="1328664744#0_0" arrivalPos="183.14" arrivalSpeed="14.52" duration="60.00" routeLength="331.35" waitingTime="13.00" waitingCount="2" stopTime="0.00" timeLoss="36.54" rerouteNo="0" devices="tripinfo_flow_route_109_duration_20250327_2130.2" vType="car" speedFactor="0.90" vaporized=""/>
    <tripinfo id="flow_route_108_duration_20250327_2130.7" depart="53.00" departLane="1254519225#0.109_0" departPos="41.56" departSpeed="0.00" departDelay="0.50" arrival="84.00" arrivalLane="135474719#0_0" arrivalPos="122.35" arrivalSpeed="16.29" duration="31.00" routeLength="280.54" waitingTime="0.00" waitingCount="0" stopTime="0.00" timeLoss="14.07" rerouteNo="0" devices="tripinfo_flow_route_108_duration_20250327_2130.7" vType="car" speedFactor="1.03" vaporized=""/>
    <tripinfo id="flow_route_115_duration_20250327_2130.1" depart="6.00" departLane="1253188486#4_0" departPos="117.09" departSpeed="0.00" departDelay="0.55" arrival="92.00" arrivalLane="1328664744#0_2" arrivalPos="7.19" arrivalSpeed="9.04" duration="86.00" routeLength="75.50" waitingTime="66.00" waitingCount="1" stopTime="0.00" timeLoss="80.22" rerouteNo="0" devices="tripinfo_flow_route_115_duration_20250327_2130.1" vType="car" speedFactor="0.99" vaporized=""/>
    <tripinfo id="flow_route_113_duration_20250327_2130.2" depart="8.00" departLane="1253188486#4_0" departPos="19.82" departSpeed="0.00" departDelay="0.50" arrival="94.00" arrivalLane="1253188486#8_1" arrivalPos="7.32" arrivalSpeed="10.21" duration="86.00" routeLength="186.13" waitingTime="50.00" waitingCount="1" stopTime="0.00" timeLoss="74.39" rerouteNo="0" devices="tripinfo_flow_route_113_duration_20250327_2130.2" vType="car" speedFactor="0.94" vaporized=""/>
    <tripinfo id="flow_route_115_duration_20250327_2130.3" depart="17.00" departLane="1253188486#4_0" departPos="42.71" departSpeed="0.00" departDelay="0.64" arrival="96.00" arrivalLane="1328664744#0_2" arrivalPos="6.18" arrivalSpeed="9.55" duration="79.00" routeLength="148.87" waitingTime="49.00" waitingCount="1" stopTime="0.00" timeLoss="68.82" rerouteNo="0" devices="tripinfo_flow_route_115_duration_20250327_2130.3" vType="car" speedFactor="0.93" vaporized=""/>
    <tripinfo id="flow_route_114_duration_20250327_2130.0" depart="0.00" departLane="1253188486#4_0" departPos="49.31" departSpeed="0.00" departDelay="0.00" arrival="97.00" arrivalLane="177211987#1_0" arrivalPos="36.23" arrivalSpeed="9.96" duration="97.00" routeLength="153.37" waitingTime="62.00" waitingCount="1" stopTime="0.00" timeLoss="86.18" rerouteNo="0" devices="tripinfo_flow_route_114_duration_20250327_2130.0" vType="car" speedFactor="0.89" vaporized=""/>
    <tripinfo id="flow_route_115_duration_20250327_2130.2" depart="11.00" departLane="1253188486#4_0" departPos="36.97" departSpeed="0.00" departDelay="0.09" arrival="97.00" arrivalLane="1328664744#0_2" arrivalPos="37.26" arrivalSpeed="11.48" duration="86.00" routeLength="185.69" waitingTime="50.00" waitingCount="1" stopTime="0.00" timeLoss="73.50" rerouteNo="0" devices="tripinfo_flow_route_115_duration_20250327_2130.2" vType="car" speedFactor="1.02" vaporized=""/>
    <tripinfo id="flow_route_113_duration_20250327_2130.5" depart="19.00" departLane="1253188486#4_0" departPos="48.07" departSpeed="0.00" departDelay="0.25" arrival="97.00" arrivalLane="1253188486#8_1" arrivalPos="16.43" arrivalSpeed="10.94" duration="78.00" routeLength="166.99" waitingTime="45.00" waitingCount="1" stopTime="0.00" timeLoss="67.56" rerouteNo="0" devices="tripinfo_flow_route_113_duration_20250327_2130.5" vType="car" speedFactor="1.15" vaporized=""/>
    <tripinfo id="flow_route_115_duration_20250327_2130.0" depart="0.00" departLane="1253188486#4_0" departPos="104.70" departSpeed="0.00" departDelay="0.00" arrival="100.00" arrivalLane="1328664744#0_2" arrivalPos="120.97" arrivalSpeed="15.26" duration="100.00" routeLength="201.67" waitingTime="68.00" waitingCount="1" stopTime="0.00" timeLoss="85.62" rerouteNo="0" devices="tripinfo_flow_route_115_duration_20250327_2130.0" vType="car" speedFactor="0.94" vaporized=""/>
    <tripinfo id="flow_route_113_duration_20250327_2130.4" depart="15.00" departLane="1253188486#4_0" departPos="28.08" departSpeed="0.00" departDelay="0.00" arrival="101.00" arrivalLane="1253188486#8_1" arrivalPos="41.32" arrivalSpeed="13.56" duration="86.00" routeLength="211.86" waitingTime="45.00" waitingCount="1" stopTime="0.00" timeLoss="72.69" rerouteNo="0" devices="tripinfo_flow_route_113_duration_20250327_2130.4" vType="car" speedFactor="0.95" vaporized=""/>
    <tripinfo id="flow_route_113_duration_20250327_2130.3" depart="13.00" departLane="1253188486#4_0" departPos="143.21" departSpeed="0.00" departDelay="1.75" arrival="103.00" arrivalLane="1253188486#8_0" arrivalPos="163.92" arrivalSpeed="16.25" duration="90.00" routeLength="219.34" waitingTime="62.00" waitingCount="1" stopTime="0.00" timeLoss="75.90" rerouteNo="0" devices="tripinfo_flow_route_113_duration_20250327_2130.3" vType="car" speedFactor="0.89" vaporized=""/>
    <tripinfo id="flow_route_115_duration_20250327_2130.6" depart="37.00" departLane="1253188486#4_0" departPos="90.78" departSpeed="0.00" departDelay="4.28" arrival="103.00" arrivalLane="1328664744#0_2" arrivalPos="31.32" arrivalSpeed="11.56" duration="66.00" routeLength="125.94" waitingTime="40.00" waitingCount="1" stopTime="0.00" timeLoss="56.50" rerouteNo="0" devices="tripinfo_flow_route_115_duration_20250327_2130.6" vType="car" speedFactor="0.85" vaporized=""/>
    <tripinfo id="flow_route_115_duration_20250327_2130.7" depart="41.00" departLane="1253188486#4_0" departPos="74.50" departSpeed="0.00" departDelay="2.82" arrival="104.00" arrivalLane="1328664744#0_2" arrivalPos="3.24" arrivalSpeed="9.89" duration="63.00" routeLength="114.15" waitingTime="35.00" waitingCount="1" stopTime="0.00" timeLoss="54.88" rerouteNo="0" devices="tripinfo_flow_route_115_duration_20250327_2130.7" vType="car" speedFactor="1.02" vaporized=""/>
    <tripinfo id="flow_route_113_duration_20250327_2130.0" depart="0.00" departLane="1253188486#4_0" departPos="134.10" departSpeed="0.00" departDelay="0.00" arrival="105.00" arrivalLane="1253188486#8_0" arrivalPos="182.35" arrivalSpeed="16.17" duration="105.00" routeLength="246.88" waitingTime="72.00" waitingCount="1" stopTime="0.00" timeLoss="90.11" rerouteNo="0" devices="tripinfo_flow_route_113_duration_20250327_2130.0" vType="car" speedFactor="1.05" vaporized=""/>
    <tripinfo id="flow_route_113_duration_20250327_2130.7" depart="30.00" departLane="1253188486#4_0" departPos="52.51" departSpeed="0.00" departDelay="3.75" arrival="105.00" arrivalLane="1253188486#8_1" arrivalPos="74.27" arrivalSpeed="14.95" duration="75.00" routeLength="220.39" waitingTime="38.00" waitingCount="1" stopTime="0.00" timeLoss="61.45" rerouteNo="0" devices="tripinfo_flow_route_113_duration_20250327_2130.7" vType="car" speedFactor="1.09" vaporized=""/>
    <tripinfo id="flow_route_113_duration_20250327_2130.8" depart="37.00" departLane="1253188486#4_0" departPos="104.28" departSpeed="0.00" departDelay="7.00" arrival="106.00" arrivalLane="1253188486#8_0" arrivalPos="72.70" arrivalSpeed="14.63" duration="69.00" routeLength="167.05" waitingTime="40.00" waitingCount="1" stopTime="0.00" timeLoss="58.70" rerouteNo="0" devices="tripinfo_flow_route_113_duration_20250327_2130.8" vType="car" speedFactor="0.90" vaporized=""/>
    <tripinfo id="flow_route_113_duration_20250327_2130.12" depart="53.00" departLane="1253188486#4_0" departPos="87.24" departSpeed="0.00" departDelay="8.00" arrival="108.00" arrivalLane="1253188486#8_0" arrivalPos="50.91" arrivalSpeed="13.76" duration="55.00" routeLength="162.30" waitingTime="25.00" waitingCount="1" stopTime="0.00" timeLoss="44.88" rerouteNo="0" devices="tripinfo_flow_route_113_duration_20250327_2130.12" vType="car" speedFactor="0.91" vaporized=""/>
    <tripinfo id="flow_route_113_duration_20250327_2130.1" depart="5.00" departLane="1253188486#4_0" departPos="83.37" departSpeed="0.00" departDelay="1.25" arrival="109.00" arrivalLane="1253188486#8_0" arrivalPos="202.24" arrivalSpeed="16.13" duration="104.00" routeLength="317.50" waitingTime="63.00" waitingCount="1" stopTime="0.00" timeLoss="84.14" rerouteNo="0" devices="tripinfo_flow_route_113_duration_20250327_2130.1" vType="car" speedFactor="1.05" vaporized=""/>
    <tripinfo id="flow_route_115_duration_20250327_2130.4" depart="22.00" departLane="1253188486#4_0" departPos="32.53" departSpeed="0.00" departDelay="0.18" arrival="110.00" arrivalLane="1328664744#0_2" arrivalPos="160.15" arrivalSpeed="16.45" duration="88.00" routeLength="313.02" waitingTime="46.00" waitingCount="1" stopTime="0.00" timeLoss="68.19" rerouteNo="0" devices="tripinfo_flow_route_115_duration_20250327_2130.4" vType="car" speedFactor="1.02" vaporized=""/>
    <tripinfo id="flow_route_113_duration_20250327_2130.6" depart="23.00" departLane="1253188486#4_0" departPos="78.54" departSpeed="0.00" departDelay="0.50" arrival="110.00" arrivalLane="1253188486#8_0" arrivalPos="150.91" arrivalSpeed="16.30" duration="87.00" routeLength="271.00" waitingTime="47.00" waitingCount="1" stopTime="0.00" timeLoss="69.81" rerouteNo="0" devices="tripinfo_flow_route_113_duration_20250327_2130.6" vType="car" speedFactor="1.10" vaporized=""/>
    <tripinfo id="flow_route_113_duration_20250327_2130.11" depart="43.00" departLane="1253188486#4_0" departPos="74.66" departSpeed="0.00" departDelay="1.75" arrival="110.00" arrivalLane="1253188486#8_0" arrivalPos="101.05" arrivalSpeed="16.13" duration="67.00" routeLength="225.02" waitingTime="30.00" waitingCount="1" stopTime="0.00" timeLoss="52.75" rerouteNo="0" devices="tripinfo_flow_route_113_duration_20250327_2130.11" vType="car" speedFactor="1.02" vaporized=""/>
    <tripinfo id="flow_route_113_duration_20250327_2130.9" depart="40.00" departLane="1253188486#4_0" departPos="52.97" departSpeed="0.00" departDelay="6.25" arrival="111.00" arrivalLane="1253188486#8_1" arrivalPos="117.77" arrivalSpeed="16.56" duration="71.00" routeLength="263.43" waitingTime="30.00" waitingCount="1" stopTime="0.00" timeLoss="54.34" rerouteNo="0" devices="tripinfo_flow_route_113_duration_20250327_2130.9" vType="car" speedFactor="1.17" vaporized=""/>
    <tripinfo id="flow_route_113_duration_20250327_2130.13" depart="54.00" departLane="1253188486#4_0" departPos="1.12" departSpeed="0.00" departDelay="5.25" arrival="112.00" arrivalLane="1253188486#8_0" arrivalPos="55.88" arrivalSpeed="14.54" duration="58.00" routeLength="253.38" waitingTime="18.00" waitingCount="1" stopTime="0.00" timeLoss="42.08" rerouteNo="0" devices="tripinfo_flow_route_113_duration_20250327_2130.13" vType="car" speedFactor="0.94" vaporized=""/>
    <tripinfo id="flow_route_113_duration_20250327_2130.14" depart="56.00" departLane="1253188486#4_0" departPos="80.92" departSpeed="0.00" departDelay="3.50" arrival="113.00" arrivalLane="1253188486#8_0" arrivalPos="98.95" arrivalSpeed="16.41" duration="57.00" routeLength="216.66" waitingTime="24.00" waitingCount="1" stopTime="0.00" timeLoss="43.45" rerouteNo="0" devices="tripinfo_flow_route_113_duration_20250327_2130.14" vType="car" speedFactor="0.98" vaporized=""/>
    <tripinfo id="flow_route_113_duration_20250327_2130.10" depart="41.00" departLane="1253188486#4_0" departPos="1.79" departSpeed="0.00" departDelay="3.50" arrival="115.00" arrivalLane="1253188486#8_1" arrivalPos="157.29" arrivalSpeed="16.30" duration="74.00" routeLength="354.14" waitingTime="27.00" waitingCount="1" stopTime="0.00" timeLoss="51.85" rerouteNo="0" devices="tripinfo_flow_route_113_duration_20250327_2130.10" vType="car" speedFactor="1.14" vaporized=""/>
    <tripinfo id="flow_route_115_duration_20250327_2130.9" depart="55.00" departLane="1253188486#4_0" departPos="29.19" departSpeed="0.00" departDelay="5.91" arrival="117.00" arrivalLane="1328664744#0_2" arrivalPos="71.18" arrivalSpeed="13.33" duration="62.00" routeLength="227.39" waitingTime="22.00" waitingCount="1" stopTime="0.00" timeLoss="47.60" rerouteNo="0" devices="tripinfo_flow_route_115_duration_20250327_2130.9" vType="car" speedFactor="1.06" vaporized=""/>
    <tripinfo id="flow_route_113_duration_20250327_2130.15" depart="58.00" departLane="1253188486#4_0" departPos="53.10" departSpeed="0.00" departDelay="1.75" arrival="121.00" arrivalLane="1253188486#8_1" arrivalPos="231.13" arrivalSpeed="16.18" duration="63.00" routeLength="376.65" waitingTime="18.00" waitingCount="1" stopTime="0.00" timeLoss="39.55" rerouteNo="0" devices="tripinfo_flow_route_113_duration_20250327_2130.15" vType="car" speedFactor="1.02" vaporized=""/>
    <tripinfo id="flow_route_115_duration_20250327_2130.5" depart="35.00" departLane="1253188486#4_0" departPos="23.52" departSpeed="0.00" departDelay="7.73" arrival="122.00" arrivalLane="1328664744#0_2" arrivalPos="205.19" arrivalSpeed="16.42" duration="87.00" routeLength="367.07" waitingTime="35.00" waitingCount="1" stopTime="0.00" timeLoss="63.94" rerouteNo="0" devices="tripinfo_flow_route_115_duration_20250327_2130.5" vType="car" speedFactor="1.04" vaporized=""/>
    <tripinfo id="flow_route_115_duration_20250327_2130.8" depart="51.00" departLane="1253188486#4_0" departPos="29.18" departSpeed="0.00" departDelay="7.37" arrival="122.00" arrivalLane="1328664744#0_2" arrivalPos="173.94" arrivalSpeed="14.34" duration="71.00" routeLength="330.16" waitingTime="23.00" waitingCount="1" stopTime="0.00" timeLoss="48.25" rerouteNo="0" devices="tripinfo_flow_route_115_duration_20250327_2130.8" vType="car" speedFactor="0.88" vaporized=""/>
    <tripinfo id="flow_route_115_duration_20250327_2130.10" depart="58.00" departLane="1253188486#4_0" departPos="35.38" departSpeed="0.00" departDelay="3.46" arrival="125.00" arrivalLane="1328664744#0_2" arrivalPos="163.95" arrivalSpeed="16.48" duration="67.00" routeLength="313.98" waitingTime="19.00" waitingCount="1" stopTime="0.00" timeLoss="46.79" rerouteNo="0" devices="tripinfo_flow_route_115_duration_20250327_2130.10" vType="car" speedFactor="1.09" vaporized=""/>
    <tripinfo id="flow_route_118_duration_20250327_2130.13" depart="34.00" departLane="134194079#0_0" departPos="288.59" departSpeed="0.00" departDelay="0.10" arrival="130.00" arrivalLane="1328664744#0_0" arrivalPos="9.45" arrivalSpeed="7.72" duration="96.00" routeLength="42.01" waitingTime="83.00" waitingCount="1" stopTime="0.00" timeLoss="93.26" rerouteNo="0" devices="tripinfo_flow_route_118_duration_20250327_2130.13" vType="car" speedFactor="1.02" vaporized=""/>
    <tripinfo id="flow_route_118_duration_20250327_2130.10" depart="29.00" departLane="134194079#0_0" departPos="257.80" departSpeed="0.00" departDelay="2.92" arrival="133.00" arrivalLane="1328664744#0_0" arrivalPos="23.23" arrivalSpeed="8.49" duration="104.00" routeLength="86.58" waitingTime="80.00" waitingCount="1" stopTime="0.00" timeLoss="98.49" rerouteNo="0" devices="tripinfo_flow_route_118_duration_20250327_2130.10" vType="car" speedFactor="1.04" vaporized=""/>
    <tripinfo id="flow_route_118_duration_20250327_2130.8" depart="22.00" departLane="134194079#0_0" departPos="85.57" departSpeed="0.00" departDelay="1.14" arrival="136.00" arrivalLane="1328664744#0_2" arrivalPos="40.08" arrivalSpeed="10.38" duration="114.00" routeLength="275.66" waitingTime="73.00" waitingCount="1" stopTime="0.00" timeLoss="97.24" rerouteNo="0" devices="tripinfo_flow_route_118_duration_20250327_2130.8" vType="car" speedFactor="0.99" vaporized=""/>
    <tripinfo id="flow_route_118_duration_20250327_2130.2" depart="6.00" departLane="134194079#0_0" departPos="46.94" departSpeed="0.00" departDelay="0.78" arrival="137.00" arrivalLane="1328664744#0_1" arrivalPos="66.95" arrivalSpeed="11.98" duration="131.00" routeLength="341.16" waitingTime="81.00" waitingCount="1" stopTime="0.00" timeLoss="108.55" rerouteNo="0" devices="tripinfo_flow_route_118_duration_20250327_2130.2" vType="car" speedFactor="0.93" vaporized=""/>
    <tripinfo id="flow_route_118_duration_20250327_2130.7" depart="21.00" departLane="134194079#0_0" departPos="13.82" departSpeed="0.00" departDelay="2.74" arrival="139.00" arrivalLane="1328664744#0_2" arrivalPos="39.71" arrivalSpeed="11.86" duration="118.00" routeLength="347.04" waitingTime="71.00" waitingCount="1" stopTime="0.00" timeLoss="96.53" rerouteNo="0" devices="tripinfo_flow_route_118_duration_20250327_2130.7" vType="car" speedFactor="1.01" vaporized=""/>
    <tripinfo id="flow_route_118_duration_20250327_2130.15" depart="42.00" departLane="134194079#0_0" departPos="251.15" departSpeed="0.00" departDelay="2.88" arrival="139.00" arrivalLane="1328664744#0_1" arrivalPos="37.16" arrivalSpeed="10.73" duration="97.00" routeLength="107.16" waitingTime="72.00" waitingCount="1" stopTime="0.00" timeLoss="90.16" rerouteNo="0" devices="tripinfo_flow_route_118_duration_20250327_2130.15" vType="car" speedFactor="1.12" vaporized=""/>
    <tripinfo id="flow_route_119_duration_20250327_2130.5" depart="22.00" departLane="134194079#0_0" departPos="200.22" departSpeed="0.00" departDelay="0.58" arrival="140.00" arrivalLane="1253188486#8_0" arrivalPos="86.32" arrivalSpeed="12.94" duration="118.00" routeLength="197.05" waitingTime="80.00" waitingCount="1" stopTime="0.00" timeLoss="104.37" rerouteNo="0" devices="tripinfo_flow_route_119_duration_20250327_2130.5" vType="car" speedFactor="0.97" vaporized=""/>
    <tripinfo id="flow_route_97_duration_20250327_2130.2" depart="40.00" departLane="1328664748#0_0" departPos="146.54" departSpeed="0.00" departDelay="0.00" arrival="141.00" arrivalLane="135474719#0_0" arrivalPos="139.37" arrivalSpeed="15.79" duration="101.00" routeLength="227.55" waitingTime="65.00" waitingCount="1" stopTime="0.00" timeLoss="85.76" rerouteNo="0" devices="tripinfo_flow_route_97_duration_20250327_2130.2" vType="car" speedFactor="1.08" vaporized=""/>