<?xml version="1.0" encoding="UTF-8"?>

<!-- generated on 2025-05-06 21:08:58 by Eclipse SUMO sumo Version 1.20.0
<configuration xmlns:xsi="http://www.w3.org/2001/XMLSchema-instance" xsi:noNamespaceSchemaLocation="http://sumo.dlr.de/xsd/sumoConfiguration.xsd">

    <input>
        <net-file value="osm.net.xml"/>
        <route-files value="xml/route_static_GS_cluster_1342409365_3839031467_7.rou.xml"/>
    </input>

    <output>
        <tripinfo-output value="xml/tripinfo_static_GS_cluster_1342409365_3839031467_7.xml"/>
    </output>

    <traci_server>
        <remote-port value="41939"/>
    </traci_server>

</configuration>
-->

<tripinfos xmlns:xsi="http://www.w3.org/2001/XMLSchema-instance" xsi:noNamespaceSchemaLocation="http://sumo.dlr.de/xsd/tripinfo_file.xsd">
    <tripinfo id="flow_route_128_duration_20250327_2120.0" depart="0.00" departLane="134133272_0" departPos="226.49" departSpeed="0.00" departDelay="0.00" arrival="31.00" arrivalLane="380585338#0_0" arrivalPos="7.57" arrivalSpeed="5.61" duration="31.00" routeLength="279.28" waitingTime="0.00" waitingCount="0" stopTime="0.00" timeLoss="10.61" rerouteNo="0" devices="tripinfo_flow_route_128_duration_20250327_2120.0" vType="car" speedFactor="0.83" vaporized=""/>
    <tripinfo id="flow_route_92_duration_20250327_2120.1" depart="3.00" departLane="133000063_0" departPos="88.35" departSpeed="0.00" departDelay="0.39" arrival="40.00" arrivalLane="186409193_0" arrivalPos="39.94" arrivalSpeed="14.05" duration="37.00" routeLength="343.44" waitingTime="0.00" waitingCount="0" stopTime="0.00" timeLoss="12.48" rerouteNo="0" devices="tripinfo_flow_route_92_duration_20250327_2120.1" vType="car" speedFactor="0.86" vaporized=""/>
    <tripinfo id="flow_route_91_duration_20250327_2120.0" depart="0.00" departLane="133000063_0" departPos="128.34" departSpeed="0.00" departDelay="0.00" arrival="48.00" arrivalLane="683079387#1_0" arrivalPos="9.10" arrivalSpeed="16.56" duration="48.00" routeLength="599.49" waitingTime="0.00" waitingCount="0" stopTime="0.00" timeLoss="10.93" rerouteNo="0" devices="tripinfo_flow_route_91_duration_20250327_2120.0" vType="car" speedFactor="1.06" vaporized=""/>
    <tripinfo id="flow_route_103_duration_20250327_2120.0" depart="1.00" departLane="1342963997_0" departPos="57.81" departSpeed="0.00" departDelay="1.00" arrival="60.00" arrivalLane="683079387#1_0" arrivalPos="6.02" arrivalSpeed="16.40" duration="59.00" routeLength="524.42" waitingTime="3.00" waitingCount="1" stopTime="0.00" timeLoss="26.69" rerouteNo="0" devices="tripinfo_flow_route_103_duration_20250327_2120.0" vType="car" speedFactor="1.03" vaporized=""/>
    <tripinfo id="flow_route_93_duration_20250327_2120.0" depart="0.00" departLane="133000063_0" departPos="115.92" departSpeed="0.00" departDelay="0.00" arrival="64.00" arrivalLane="380585336_1" arrivalPos="19.16" arrivalSpeed="16.45" duration="64.00" routeLength="758.54" waitingTime="0.00" waitingCount="0" stopTime="0.00" timeLoss="18.29" rerouteNo="0" devices="tripinfo_flow_route_93_duration_20250327_2120.0" vType="car" speedFactor="1.01" vaporized=""/>
    <tripinfo id="flow_route_145_duration_20250327_2120.0" depart="0.00" departLane="683079388#0_0" departPos="22.61" departSpeed="0.00" departDelay="0.00" arrival="68.00" arrivalLane="380585336_0" arrivalPos="229.76" arrivalSpeed="15.56" duration="68.00" routeLength="831.39" waitingTime="0.00" waitingCount="0" stopTime="0.00" timeLoss="15.22" rerouteNo="0" devices="tripinfo_flow_route_145_duration_20250327_2120.0" vType="car" speedFactor="0.94" vaporized=""/>
    <tripinfo id="flow_route_102_duration_20250327_2120.0" depart="0.00" departLane="1342963997_0" departPos="83.70" departSpeed="0.00" departDelay="0.00" arrival="69.00" arrivalLane="380585336_1" arrivalPos="207.08" arrivalSpeed="16.40" duration="69.00" routeLength="834.32" waitingTime="0.00" waitingCount="0" stopTime="0.00" timeLoss="18.02" rerouteNo="0" devices="tripinfo_flow_route_102_duration_20250327_2120.0" vType="car" speedFactor="1.08" vaporized=""/>
    <tripinfo id="flow_route_129_duration_20250327_2120.0" depart="0.00" departLane="134133272_0" departPos="105.80" departSpeed="0.00" departDelay="0.00" arrival="70.00" arrivalLane="683079387#1_0" arrivalPos="7.59" arrivalSpeed="16.56" duration="70.00" routeLength="945.90" waitingTime="0.00" waitingCount="0" stopTime="0.00" timeLoss="12.28" rerouteNo="0" devices="tripinfo_flow_route_129_duration_20250327_2120.0" vType="car" speedFactor="1.05" vaporized=""/>
    <tripinfo id="flow_route_144_duration_20250327_2120.0" depart="0.00" departLane="683079388#0_0" departPos="1.56" departSpeed="0.00" departDelay="0.00" arrival="72.00" arrivalLane="380585338#0_0" arrivalPos="42.98" arrivalSpeed="9.55" duration="72.00" routeLength="621.16" waitingTime="8.00" waitingCount="1" stopTime="0.00" timeLoss="29.55" rerouteNo="0" devices="tripinfo_flow_route_144_duration_20250327_2120.0" vType="car" speedFactor="0.89" vaporized=""/>
    <tripinfo id="flow_route_144_duration_20250327_2120.2" depart="18.00" departLane="683079388#0_0" departPos="4.73" departSpeed="0.00" departDelay="0.86" arrival="75.00" arrivalLane="380585338#0_0" arrivalPos="53.45" arrivalSpeed="12.08" duration="57.00" routeLength="628.45" waitingTime="0.00" waitingCount="0" stopTime="0.00" timeLoss="13.16" rerouteNo="0" devices="tripinfo_flow_route_144_duration_20250327_2120.2" vType="car" speedFactor="0.87" vaporized=""/>
    <tripinfo id="flow_route_144_duration_20250327_2120.3" depart="26.00" departLane="683079388#0_0" departPos="10.93" departSpeed="0.00" departDelay="0.29" arrival="76.00" arrivalLane="380585338#0_0" arrivalPos="50.36" arrivalSpeed="13.59" duration="50.00" routeLength="619.18" waitingTime="0.00" waitingCount="0" stopTime="0.00" timeLoss="12.44" rerouteNo="0" devices="tripinfo_flow_route_144_duration_20250327_2120.3" vType="car" speedFactor="1.02" vaporized=""/>
    <tripinfo id="flow_route_102_duration_20250327_2120.2" depart="15.00" departLane="1342963997_0" departPos="128.49" departSpeed="0.00" departDelay="0.00" arrival="77.00" arrivalLane="380585336_1" arrivalPos="37.51" arrivalSpeed="15.77" duration="62.00" routeLength="619.97" waitingTime="0.00" waitingCount="0" stopTime="0.00" timeLoss="22.53" rerouteNo="0" devices="tripinfo_flow_route_102_duration_20250327_2120.2" vType="car" speedFactor="0.97" vaporized=""/>
    <tripinfo id="flow_route_144_duration_20250327_2120.1" depart="9.00" departLane="683079388#0_0" departPos="24.70" departSpeed="0.00" departDelay="0.43" arrival="79.00" arrivalLane="380585338#0_0" arrivalPos="132.76" arrivalSpeed="14.39" duration="70.00" routeLength="687.80" waitingTime="1.00" waitingCount="1" stopTime="0.00" timeLoss="22.58" rerouteNo="0" devices="tripinfo_flow_route_144_duration_20250327_2120.1" vType="car" speedFactor="0.88" vaporized=""/>
    <tripinfo id="flow_route_145_duration_20250327_2120.1" depart="20.00" departLane="683079388#0_0" departPos="23.96" departSpeed="0.00" departDelay="0.00" arrival="79.00" arrivalLane="380585336_0" arrivalPos="117.49" arrivalSpeed="16.38" duration="59.00" routeLength="717.77" waitingTime="0.00" waitingCount="0" stopTime="0.00" timeLoss="15.54" rerouteNo="0" devices="tripinfo_flow_route_145_duration_20250327_2120.1" vType="car" speedFactor="1.13" vaporized=""/>
    <tripinfo id="flow_route_144_duration_20250327_2120.4" depart="35.00" departLane="683079388#0_0" departPos="14.81" departSpeed="0.00" departDelay="0.72" arrival="85.00" arrivalLane="380585338#0_0" arrivalPos="79.15" arrivalSpeed="16.55" duration="50.00" routeLength="644.07" waitingTime="0.00" waitingCount="0" stopTime="0.00" timeLoss="10.71" rerouteNo="0" devices="tripinfo_flow_route_144_duration_20250327_2120.4" vType="car" speedFactor="1.04" vaporized=""/>
    <tripinfo id="flow_route_102_duration_20250327_2120.1" depart="8.00" departLane="1342963997_0" departPos="5.82" departSpeed="0.00" departDelay="0.50" arrival="90.00" arrivalLane="380585336_1" arrivalPos="229.35" arrivalSpeed="16.33" duration="82.00" routeLength="934.48" waitingTime="0.00" waitingCount="0" stopTime="0.00" timeLoss="24.37" rerouteNo="0" devices="tripinfo_flow_route_102_duration_20250327_2120.1" vType="car" speedFactor="0.99" vaporized=""/>
    <tripinfo id="flow_route_92_duration_20250327_2120.2" depart="10.00" departLane="133000063_0" departPos="5.14" departSpeed="0.00" departDelay="4.78" arrival="91.00" arrivalLane="186409193_0" arrivalPos="37.01" arrivalSpeed="15.38" duration="81.00" routeLength="423.73" waitingTime="24.00" waitingCount="1" stopTime="0.00" timeLoss="54.50" rerouteNo="0" devices="tripinfo_flow_route_92_duration_20250327_2120.2" vType="car" speedFactor="1.03" vaporized=""/>
    <tripinfo id="flow_route_92_duration_20250327_2120.0" depart="0.00" departLane="133000063_0" departPos="1.04" departSpeed="0.00" departDelay="0.00" arrival="96.00" arrivalLane="186409193_0" arrivalPos="41.62" arrivalSpeed="15.18" duration="96.00" routeLength="432.44" waitingTime="35.00" waitingCount="1" stopTime="0.00" timeLoss="67.03" rerouteNo="0" devices="tripinfo_flow_route_92_duration_20250327_2120.0" vType="car" speedFactor="0.94" vaporized=""/>
    <tripinfo id="flow_route_92_duration_20250327_2120.4" depart="18.00" departLane="133000063_0" departPos="99.91" departSpeed="0.00" departDelay="7.57" arrival="102.00" arrivalLane="186409193_0" arrivalPos="19.35" arrivalSpeed="14.08" duration="84.00" routeLength="311.30" waitingTime="29.00" waitingCount="1" stopTime="0.00" timeLoss="62.95" rerouteNo="0" devices="tripinfo_flow_route_92_duration_20250327_2120.4" vType="car" speedFactor="0.94" vaporized=""/>
    <tripinfo id="flow_route_102_duration_20250327_2120.3" depart="23.00" departLane="1342963997_0" departPos="37.20" departSpeed="0.00" departDelay="0.50" arrival="103.00" arrivalLane="380585336_1" arrivalPos="142.85" arrivalSpeed="16.25" duration="80.00" routeLength="816.60" waitingTime="1.00" waitingCount="1" stopTime="0.00" timeLoss="29.79" rerouteNo="0" devices="tripinfo_flow_route_102_duration_20250327_2120.3" vType="car" speedFactor="1.15" vaporized=""/>
    <tripinfo id="flow_route_92_duration_20250327_2120.3" depart="12.00" departLane="133000063_0" departPos="45.48" departSpeed="0.00" departDelay="4.18" arrival="104.00" arrivalLane="186409193_0" arrivalPos="23.17" arrivalSpeed="14.78" duration="92.00" routeLength="369.54" waitingTime="21.00" waitingCount="2" stopTime="0.00" timeLoss="68.74" rerouteNo="0" devices="tripinfo_flow_route_92_duration_20250327_2120.3" vType="car" speedFactor="1.12" vaporized=""/>
    <tripinfo id="flow_route_91_duration_20250327_2120.1" depart="18.00" departLane="133000063_0" departPos="29.01" departSpeed="0.00" departDelay="6.00" arrival="104.00" arrivalLane="683079387#1_0" arrivalPos="4.20" arrivalSpeed="15.32" duration="86.00" routeLength="693.92" waitingTime="17.00" waitingCount="1" stopTime="0.00" timeLoss="40.78" rerouteNo="0" devices="tripinfo_flow_route_91_duration_20250327_2120.1" vType="car" speedFactor="0.94" vaporized=""/>
    <tripinfo id="flow_route_92_duration_20250327_2120.5" depart="26.00" departLane="133000063_0" departPos="36.58" departSpeed="0.00" departDelay="12.96" arrival="106.00" arrivalLane="186409193_0" arrivalPos="33.39" arrivalSpeed="15.33" duration="80.00" routeLength="388.68" waitingTime="11.00" waitingCount="2" stopTime="0.00" timeLoss="55.80" rerouteNo="0" devices="tripinfo_flow_route_92_duration_20250327_2120.5" vType="car" speedFactor="1.02" vaporized=""/>
    <tripinfo id="flow_route_92_duration_20250327_2120.9" depart="58.00" departLane="133000063_0" departPos="83.96" departSpeed="0.00" departDelay="34.53" arrival="109.00" arrivalLane="186409193_0" arrivalPos="2.74" arrivalSpeed="13.21" duration="51.00" routeLength="310.64" waitingTime="0.00" waitingCount="0" stopTime="0.00" timeLoss="31.22" rerouteNo="0" devices="tripinfo_flow_route_92_duration_20250327_2120.9" vType="car" speedFactor="1.17" vaporized=""/>
    <tripinfo id="flow_route_92_duration_20250327_2120.6" depart="37.00" departLane="133000063_0" departPos="120.48" departSpeed="0.00" departDelay="21.35" arrival="110.00" arrivalLane="186409193_0" arrivalPos="34.83" arrivalSpeed="14.58" duration="73.00" routeLength="306.21" waitingTime="12.00" waitingCount="1" stopTime="0.00" timeLoss="50.50" rerouteNo="0" devices="tripinfo_flow_route_92_duration_20250327_2120.6" vType="car" speedFactor="0.89" vaporized=""/>
    <tripinfo id="flow_route_91_duration_20250327_2120.2" depart="53.00" departLane="133000063_0" departPos="113.44" departSpeed="0.00" departDelay="29.00" arrival="110.00" arrivalLane="683079387#1_1" arrivalPos="1.84" arrivalSpeed="16.18" duration="57.00" routeLength="607.13" waitingTime="0.00" waitingCount="0" stopTime="0.00" timeLoss="19.59" rerouteNo="0" devices="tripinfo_flow_route_91_duration_20250327_2120.2" vType="car" speedFactor="1.01" vaporized=""/>
    <tripinfo id="flow_route_102_duration_20250327_2120.4" depart="30.00" departLane="1342963997_0" departPos="4.28" departSpeed="0.00" departDelay="0.00" arrival="110.00" arrivalLane="380585336_1" arrivalPos="153.87" arrivalSpeed="14.85" duration="80.00" routeLength="860.54" waitingTime="0.00" waitingCount="0" stopTime="0.00" timeLoss="23.12" rerouteNo="0" devices="tripinfo_flow_route_102_duration_20250327_2120.4" vType="car" speedFactor="0.90" vaporized=""/>
    <tripinfo id="flow_route_102_duration_20250327_2120.6" depart="45.00" departLane="1342963997_0" departPos="106.42" departSpeed="0.00" departDelay="0.00" arrival="113.00" arrivalLane="380585336_1" arrivalPos="116.84" arrivalSpeed="14.72" duration="68.00" routeLength="721.36" waitingTime="0.00" waitingCount="0" stopTime="0.00" timeLoss="19.60" rerouteNo="0" devices="tripinfo_flow_route_102_duration_20250327_2120.6" vType="car" speedFactor="0.90" vaporized=""/>
    <tripinfo id="flow_route_92_duration_20250327_2120.8" depart="45.00" departLane="133000063_0" departPos="65.36" departSpeed="0.00" departDelay="24.14" arrival="115.00" arrivalLane="186409193_0" arrivalPos="3.91" arrivalSpeed="13.25" duration="70.00" routeLength="330.42" waitingTime="0.00" waitingCount="0" stopTime="0.00" timeLoss="48.13" rerouteNo="0" devices="tripinfo_flow_route_92_duration_20250327_2120.8" vType="car" speedFactor="0.93" vaporized=""/>
    <tripinfo id="flow_route_93_duration_20250327_2120.1" depart="3.00" departLane="133000063_0" departPos="52.89" departSpeed="0.00" departDelay="0.14" arrival="116.00" arrivalLane="380585336_1" arrivalPos="19.47" arrivalSpeed="16.34" duration="113.00" routeLength="821.87" waitingTime="37.00" waitingCount="1" stopTime="0.00" timeLoss="62.85" rerouteNo="0" devices="tripinfo_flow_route_93_duration_20250327_2120.1" vType="car" speedFactor="1.09" vaporized=""/>
    <tripinfo id="flow_route_102_duration_20250327_2120.5" depart="38.00" departLane="1342963997_0" departPos="127.89" departSpeed="0.00" departDelay="0.50" arrival="121.00" arrivalLane="380585336_0" arrivalPos="329.08" arrivalSpeed="14.18" duration="83.00" routeLength="912.15" waitingTime="0.00" waitingCount="0" stopTime="0.00" timeLoss="20.19" rerouteNo="0" devices="tripinfo_flow_route_102_duration_20250327_2120.5" vType="car" speedFactor="0.88" vaporized=""/>
    <tripinfo id="flow_route_93_duration_20250327_2120.7" depart="44.00" departLane="133000063_0" departPos="114.25" departSpeed="0.00" departDelay="24.00" arrival="124.00" arrivalLane="380585336_1" arrivalPos="11.73" arrivalSpeed="15.32" duration="80.00" routeLength="752.77" waitingTime="2.00" waitingCount="1" stopTime="0.00" timeLoss="32.57" rerouteNo="0" devices="tripinfo_flow_route_93_duration_20250327_2120.7" vType="car" speedFactor="0.95" vaporized=""/>
    <tripinfo id="flow_route_144_duration_20250327_2120.5" depart="43.00" departLane="683079388#0_0" departPos="8.90" departSpeed="0.00" departDelay="0.15" arrival="129.00" arrivalLane="380585338#0_0" arrivalPos="26.67" arrivalSpeed="8.23" duration="86.00" routeLength="597.51" waitingTime="26.00" waitingCount="1" stopTime="0.00" timeLoss="49.67" rerouteNo="0" devices="tripinfo_flow_route_144_duration_20250327_2120.5" vType="car" speedFactor="1.00" vaporized=""/>
    <tripinfo id="flow_route_144_duration_20250327_2120.6" depart="52.00" departLane="683079388#0_0" departPos="12.14" departSpeed="0.00" departDelay="0.57" arrival="132.00" arrivalLane="380585338#0_0" arrivalPos="60.05" arrivalSpeed="11.77" duration="80.00" routeLength="627.65" waitingTime="19.00" waitingCount="1" stopTime="0.00" timeLoss="41.30" rerouteNo="0" devices="tripinfo_flow_route_144_duration_20250327_2120.6" vType="car" speedFactor="0.99" vaporized=""/>
    <tripinfo id="flow_route_145_duration_20250327_2120.2" depart="40.00" departLane="683079388#0_0" departPos="12.39" departSpeed="0.00" departDelay="0.00" arrival="139.00" arrivalLane="380585336_0" arrivalPos="371.64" arrivalSpeed="16.38" duration="99.00" routeLength="983.48" waitingTime="15.00" waitingCount="1" stopTime="0.00" timeLoss="38.93" rerouteNo="0" devices="tripinfo_flow_route_145_duration_20250327_2120.2" vType="car" speedFactor="1.17" vaporized=""/>
    <tripinfo id="flow_route_93_duration_20250327_2120.3" depart="18.00" departLane="133000063_0" departPos="84.84" departSpeed="0.00" departDelay="9.43" arrival="141.00" arrivalLane="380585336_1" arrivalPos="127.15" arrivalSpeed="15.10" duration="123.00" routeLength="897.60" waitingTime="20.00" waitingCount="2" stopTime="0.00" timeLoss="64.34" rerouteNo="0" devices="tripinfo_flow_route_93_duration_20250327_2120.3" vType="car" speedFactor="0.93" vaporized=""/>
    <tripinfo id="flow_route_102_duration_20250327_2120.7" depart="53.00" departLane="1342963997_0" departPos="2.09" departSpeed="0.00" departDelay="0.50" arrival="141.00" arrivalLane="380585336_1" arrivalPos="0.36" arrivalSpeed="14.22" duration="88.00" routeLength="709.22" waitingTime="15.00" waitingCount="1" stopTime="0.00" timeLoss="41.32" rerouteNo="0" devices="tripinfo_flow_route_102_duration_20250327_2120.7" vType="car" speedFactor="0.88" vaporized=""/>
    <tripinfo id="flow_route_93_duration_20250327_2120.4" depart="23.00" departLane="133000063_0" departPos="14.82" departSpeed="0.00" departDelay="11.57" arrival="152.00" arrivalLane="380585336_0" arrivalPos="406.42" arrivalSpeed="16.25" duration="129.00" routeLength="1246.89" waitingTime="5.00" waitingCount="2" stopTime="0.00" timeLoss="53.55" rerouteNo="0" devices="tripinfo_flow_route_93_duration_20250327_2120.4" vType="car" speedFactor="1.16" vaporized=""/>
    <tripinfo id="flow_route_92_duration_20250327_2120.7" depart="41.00" departLane="133000063_0" departPos="7.34" departSpeed="0.00" departDelay="22.74" arrival="153.00" arrivalLane="186409193_0" arrivalPos="37.48" arrivalSpeed="14.56" duration="112.00" routeLength="422.01" waitingTime="34.00" waitingCount="1" stopTime="0.00" timeLoss="83.41" rerouteNo="0" devices="tripinfo_flow_route_92_duration_20250327_2120.7" vType="car" speedFactor="0.92" vaporized=""/>
    <tripinfo id="flow_route_92_duration_20250327_2120.10" depart="62.00" departLane="133000063_0" departPos="35.74" departSpeed="0.00" departDelay="35.92" arrival="157.00" arrivalLane="186409193_0" arrivalPos="35.94" arrivalSpeed="14.40" duration="95.00" routeLength="392.05" waitingTime="26.00" waitingCount="2" stopTime="0.00" timeLoss="69.67" rerouteNo="0" devices="tripinfo_flow_route_92_duration_20250327_2120.10" vType="car" speedFactor="0.97" vaporized=""/>
    <tripinfo id="flow_route_92_duration_20250327_2120.12" depart="67.00" departLane="133000063_0" departPos="27.15" departSpeed="0.00" departDelay="35.70" arrival="159.00" arrivalLane="186409193_0" arrivalPos="6.12" arrivalSpeed="13.88" duration="92.00" routeLength="370.83" waitingTime="27.00" waitingCount="2" stopTime="0.00" timeLoss="68.81" rerouteNo="0" devices="tripinfo_flow_route_92_duration_20250327_2120.12" vType="car" speedFactor="1.03" vaporized=""/>
    <tripinfo id="flow_route_93_duration_20250327_2120.5" depart="36.00" departLane="133000063_0" departPos="51.04" departSpeed="0.00" departDelay="21.72" arrival="165.00" arrivalLane="380585336_1" arrivalPos="342.02" arrivalSpeed="16.21" duration="129.00" routeLength="1146.27" waitingTime="4.00" waitingCount="1" stopTime="0.00" timeLoss="59.94" rerouteNo="0" devices="tripinfo_flow_route_93_duration_20250327_2120.5" vType="car" speedFactor="1.01" vaporized=""/>
    <tripinfo id="flow_route_92_duration_20250327_2120.11" depart="62.00" departLane="133000063_0" departPos="26.41" departSpeed="0.00" departDelay="33.31" arrival="166.00" arrivalLane="186409193_0" arrivalPos="48.23" arrivalSpeed="16.49" duration="104.00" routeLength="413.68" waitingTime="24.00" waitingCount="2" stopTime="0.00" timeLoss="78.41" rerouteNo="0" devices="tripinfo_flow_route_92_duration_20250327_2120.11" vType="car" speedFactor="1.18" vaporized=""/>
    <tripinfo id="flow_route_93_duration_20250327_2120.2" depart="11.00" departLane="133000063_0" departPos="22.28" departSpeed="0.00" departDelay="5.29" arrival="167.00" arrivalLane="380585336_0" arrivalPos="395.67" arrivalSpeed="16.19" duration="156.00" routeLength="1228.68" waitingTime="14.00" waitingCount="4" stopTime="0.00" timeLoss="81.64" rerouteNo="0" devices="tripinfo_flow_route_93_duration_20250327_2120.2" vType="car" speedFactor="1.05" vaporized=""/>
    <tripinfo id="flow_route_92_duration_20250327_2120.16" depart="88.00" departLane="133000063_0" departPos="1.26" departSpeed="0.00" departDelay="46.27" arrival="168.00" arrivalLane="186409193_0" arrivalPos="39.45" arrivalSpeed="15.41" duration="80.00" routeLength="430.05" waitingTime="5.00" waitingCount="2" stopTime="0.00" timeLoss="53.37" rerouteNo="0" devices="tripinfo_flow_route_92_duration_20250327_2120.16" vType="car" speedFactor="1.02" vaporized=""/>
    <tripinfo id="flow_route_92_duration_20250327_2120.14" depart="79.00" departLane="133000063_0" departPos="38.00" departSpeed="0.00" departDelay="42.49" arrival="169.00" arrivalLane="186409193_0" arrivalPos="20.03" arrivalSpeed="14.02" duration="90.00" routeLength="373.89" waitingTime="12.00" waitingCount="2" stopTime="0.00" timeLoss="66.60" rerouteNo="0" devices="tripinfo_flow_route_92_duration_20250327_2120.14" vType="car" speedFactor="1.00" vaporized=""/>
    <tripinfo id="flow_route_92_duration_20250327_2120.13" depart="69.00" departLane="133000063_0" departPos="19.75" departSpeed="0.00" departDelay="35.10" arrival="171.00" arrivalLane="186409193_0" arrivalPos="28.78" arrivalSpeed="14.52" duration="102.00" routeLength="400.89" waitingTime="12.00" waitingCount="2" stopTime="0.00" timeLoss="77.23" rerouteNo="0" devices="tripinfo_flow_route_92_duration_20250327_2120.13" vType="car" speedFactor="1.09" vaporized=""/>
    <tripinfo id="flow_route_92_duration_20250327_2120.15" depart="82.00" departLane="133000063_0" departPos="14.57" departSpeed="0.00" departDelay="42.88" arrival="175.00" arrivalLane="186409193_0" arrivalPos="41.67" arrivalSpeed="14.06" duration="93.00" routeLength="418.96" waitingTime="10.00" waitingCount="2" stopTime="0.00" timeLoss="62.98" rerouteNo="0" devices="tripinfo_flow_route_92_duration_20250327_2120.15" vType="car" speedFactor="0.85" vaporized=""/>
    <tripinfo id="flow_route_91_duration_20250327_2120.4" depart="105.00" departLane="133000063_0" departPos="59.72" departSpeed="0.00" departDelay="57.00" arrival="175.00" arrivalLane="683079387#1_1" arrivalPos="8.38" arrivalSpeed="15.85" duration="70.00" routeLength="667.39" waitingTime="2.00" waitingCount="1" stopTime="0.00" timeLoss="27.86" rerouteNo="0" devices="tripinfo_flow_route_91_duration_20250327_2120.4" vType="car" speedFactor="0.97" vaporized=""/>
    <tripinfo id="flow_route_91_duration_20250327_2120.3" depart="73.00" departLane="133000063_0" departPos="55.26" departSpeed="0.00" departDelay="37.00" arrival="177.00" arrivalLane="683079387#1_0" arrivalPos="9.92" arrivalSpeed="16.25" duration="104.00" routeLength="673.39" waitingTime="23.00" waitingCount="1" stopTime="0.00" timeLoss="63.24" rerouteNo="0" devices="tripinfo_flow_route_91_duration_20250327_2120.3" vType="car" speedFactor="1.09" vaporized=""/>
    <tripinfo id="flow_route_93_duration_20250327_2120.9" depart="62.00" departLane="133000063_0" departPos="57.33" departSpeed="0.00" departDelay="36.29" arrival="186.00" arrivalLane="380585336_2" arrivalPos="148.25" arrivalSpeed="16.12" duration="124.00" routeLength="946.22" waitingTime="27.00" waitingCount="2" stopTime="0.00" timeLoss="66.65" rerouteNo="0" devices="tripinfo_flow_route_93_duration_20250327_2120.9" vType="car" speedFactor="0.99" vaporized=""/>
    <tripinfo id="flow_route_93_duration_20250327_2120.10" depart="65.00" departLane="133000063_0" departPos="76.58" departSpeed="0.00" departDelay="36.43" arrival="195.00" arrivalLane="380585336_1" arrivalPos="246.50" arrivalSpeed="16.39" duration="130.00" routeLength="1025.21" waitingTime="25.00" waitingCount="2" stopTime="0.00" timeLoss="67.93" rerouteNo="0" devices="tripinfo_flow_route_93_duration_20250327_2120.10" vType="car" speedFactor="1.10" vaporized=""/>
    <tripinfo id="flow_route_93_duration_20250327_2120.14" depart="83.00" departLane="133000063_0" departPos="5.96" departSpeed="0.00" departDelay="43.00" arrival="195.00" arrivalLane="380585336_1" arrivalPos="59.48" arrivalSpeed="13.85" duration="112.00" routeLength="908.80" waitingTime="3.00" waitingCount="1" stopTime="0.00" timeLoss="48.57" rerouteNo="0" devices="tripinfo_flow_route_93_duration_20250327_2120.14" vType="car" speedFactor="0.85" vaporized=""/>
    <tripinfo id="flow_route_93_duration_20250327_2120.8" depart="49.00" departLane="133000063_0" departPos="2.52" departSpeed="0.00" departDelay="26.14" arrival="200.00" arrivalLane="380585336_2" arrivalPos="132.25" arrivalSpeed="16.49" duration="151.00" routeLength="985.02" waitingTime="34.00" waitingCount="1" stopTime="0.00" timeLoss="90.84" rerouteNo="0" devices="tripinfo_flow_route_93_duration_20250327_2120.8" vType="car" speedFactor="1.18" vaporized=""/>
    <tripinfo id="flow_route_93_duration_20250327_2120.13" depart="80.00" departLane="133000063_0" departPos="97.93" departSpeed="0.00" departDelay="42.86" arrival="201.00" arrivalLane="380585336_1" arrivalPos="278.86" arrivalSpeed="14.77" duration="121.00" routeLength="1036.22" waitingTime="17.00" waitingCount="2" stopTime="0.00" timeLoss="52.16" rerouteNo="0" devices="tripinfo_flow_route_93_duration_20250327_2120.13" vType="car" speedFactor="0.90" vaporized=""/>
    <tripinfo id="flow_route_92_duration_20250327_2120.17" depart="93.00" departLane="133000063_0" departPos="32.83" departSpeed="0.00" departDelay="48.66" arrival="206.00" arrivalLane="186409193_0" arrivalPos="34.41" arrivalSpeed="14.99" duration="113.00" routeLength="393.45" waitingTime="42.00" waitingCount="3" stopTime="0.00" timeLoss="88.62" rerouteNo="0" devices="tripinfo_flow_route_92_duration_20250327_2120.17" vType="car" speedFactor="1.00" vaporized=""/>
    <tripinfo id="flow_route_93_duration_20250327_2120.6" depart="37.00" departLane="133000063_0" departPos="17.49" departSpeed="0.00" departDelay="19.86" arrival="208.00" arrivalLane="380585336_0" arrivalPos="404.48" arrivalSpeed="13.60" duration="171.00" routeLength="1242.28" waitingTime="35.00" waitingCount="1" stopTime="0.00" timeLoss="80.93" rerouteNo="0" devices="tripinfo_flow_route_93_duration_20250327_2120.6" vType="car" speedFactor="0.83" vaporized=""/>
    <tripinfo id="flow_route_93_duration_20250327_2120.15" depart="90.00" departLane="133000063_0" departPos="74.11" departSpeed="0.00" departDelay="47.15" arrival="209.00" arrivalLane="380585336_0" arrivalPos="356.25" arrivalSpeed="16.33" duration="119.00" routeLength="1137.43" waitingTime="6.00" waitingCount="1" stopTime="0.00" timeLoss="49.92" rerouteNo="0" devices="tripinfo_flow_route_93_duration_20250327_2120.15" vType="car" speedFactor="1.10" vaporized=""/>
    <tripinfo id="flow_route_92_duration_20250327_2120.18" depart="102.00" departLane="133000063_0" departPos="38.22" departSpeed="0.00" departDelay="55.06" arrival="209.00" arrivalLane="186409193_0" arrivalPos="50.04" arrivalSpeed="15.60" duration="107.00" routeLength="403.68" waitingTime="38.00" waitingCount="3" stopTime="0.00" timeLoss="82.04" rerouteNo="0" devices="tripinfo_flow_route_92_duration_20250327_2120.18" vType="car" speedFactor="1.02" vaporized=""/>
    <tripinfo id="flow_route_92_duration_20250327_2120.19" depart="113.00" departLane="133000063_0" departPos="36.46" departSpeed="0.00" departDelay="63.45" arrival="212.00" arrivalLane="186409193_0" arrivalPos="51.83" arrivalSpeed="15.48" duration="99.00" routeLength="407.23" waitingTime="23.00" waitingCount="2" stopTime="0.00" timeLoss="73.84" rerouteNo="0" devices="tripinfo_flow_route_92_duration_20250327_2120.19" vType="car" speedFactor="1.12" vaporized=""/>
    <tripinfo id="flow_route_92_duration_20250327_2120.20" depart="118.00" departLane="133000063_0" departPos="59.06" departSpeed="0.00" departDelay="65.84" arrival="213.00" arrivalLane="186409193_0" arrivalPos="19.80" arrivalSpeed="14.65" duration="95.00" routeLength="352.59" waitingTime="32.00" waitingCount="1" stopTime="0.00" timeLoss="71.15" rerouteNo="0" devices="tripinfo_flow_route_92_duration_20250327_2120.20" vType="car" speedFactor="0.94" vaporized=""/>
    <tripinfo id="flow_route_93_duration_20250327_2120.12" depart="70.00" departLane="133000063_0" departPos="38.92" departSpeed="0.00" departDelay="35.72" arrival="214.00" arrivalLane="380585336_2" arrivalPos="299.48" arrivalSpeed="16.15" duration="144.00" routeLength="1115.85" waitingTime="16.00" waitingCount="2" stopTime="0.00" timeLoss="76.24" rerouteNo="0" devices="tripinfo_flow_route_93_duration_20250327_2120.12" vType="car" speedFactor="1.04" vaporized=""/>