<?xml version="1.0" encoding="UTF-8"?>

<!-- generated on 2025-05-06 21:01:15 by Eclipse SUMO sumo Version 1.20.0
<configuration xmlns:xsi="http://www.w3.org/2001/XMLSchema-instance" xsi:noNamespaceSchemaLocation="http://sumo.dlr.de/xsd/sumoConfiguration.xsd">

    <input>
        <net-file value="osm.net.xml"/>
        <route-files value="xml/routes_sac2_cluster_11648745684_256036885_3839031483.rou.xml"/>
    </input>

    <output>
        <tripinfo-output value="xml/tripinfo_9784.xml"/>
    </output>

    <traci_server>
        <remote-port value="43981"/>
    </traci_server>

</configuration>
-->

<tripinfos xmlns:xsi="http://www.w3.org/2001/XMLSchema-instance" xsi:noNamespaceSchemaLocation="http://sumo.dlr.de/xsd/tripinfo_file.xsd">
    <tripinfo id="flow_route_72_duration_20250327_2220.0" depart="0.00" departLane="1369578052#0_0" departPos="161.40" departSpeed="0.00" departDelay="0.00" arrival="15.00" arrivalLane="133342692#0_0" arrivalPos="42.43" arrivalSpeed="11.65" duration="15.00" routeLength="81.12" waitingTime="0.00" waitingCount="0" stopTime="0.00" timeLoss="8.08" rerouteNo="0" devices="tripinfo_flow_route_72_duration_20250327_2220.0" vType="car" speedFactor="0.89" vaporized=""/>
    <tripinfo id="flow_route_68_duration_20250327_2220.0" depart="0.00" departLane="1253209803#0_0" departPos="143.52" departSpeed="0.00" departDelay="0.00" arrival="29.00" arrivalLane="-138002002#2_1" arrivalPos="90.53" arrivalSpeed="16.38" duration="29.00" routeLength="298.33" waitingTime="0.00" waitingCount="0" stopTime="0.00" timeLoss="10.81" rerouteNo="0" devices="tripinfo_flow_route_68_duration_20250327_2220.0" vType="car" speedFactor="1.08" vaporized=""/>
    <tripinfo id="flow_route_70_duration_20250327_2220.0" depart="0.00" departLane="1253209803#0_0" departPos="83.97" departSpeed="0.00" departDelay="0.00" arrival="32.00" arrivalLane="133342692#0_2" arrivalPos="7.48" arrivalSpeed="9.70" duration="32.00" routeLength="271.18" waitingTime="0.00" waitingCount="0" stopTime="0.00" timeLoss="13.58" rerouteNo="0" devices="tripinfo_flow_route_70_duration_20250327_2220.0" vType="car" speedFactor="0.83" vaporized=""/>
    <tripinfo id="flow_route_69_duration_20250327_2220.0" depart="0.00" departLane="1253209803#0_0" departPos="179.76" departSpeed="0.00" departDelay="0.00" arrival="34.00" arrivalLane="380585337#0_0" arrivalPos="14.31" arrivalSpeed="16.34" duration="34.00" routeLength="299.43" waitingTime="0.00" waitingCount="0" stopTime="0.00" timeLoss="14.57" rerouteNo="0" devices="tripinfo_flow_route_69_duration_20250327_2220.0" vType="car" speedFactor="1.03" vaporized=""/>
    <tripinfo id="flow_route_71_duration_20250327_2220.0" depart="0.00" departLane="1369578052#0_0" departPos="11.11" departSpeed="0.00" departDelay="0.00" arrival="38.00" arrivalLane="138002016#0_0" arrivalPos="236.62" arrivalSpeed="16.20" duration="38.00" routeLength="443.19" waitingTime="0.00" waitingCount="0" stopTime="0.00" timeLoss="10.83" rerouteNo="0" devices="tripinfo_flow_route_71_duration_20250327_2220.0" vType="car" speedFactor="1.05" vaporized=""/>
    <tripinfo id="flow_route_70_duration_20250327_2220.1" depart="30.00" departLane="1253209803#0_0" departPos="315.00" departSpeed="0.00" departDelay="0.00" arrival="49.00" arrivalLane="133342692#0_2" arrivalPos="110.01" arrivalSpeed="14.10" duration="19.00" routeLength="142.68" waitingTime="0.00" waitingCount="0" stopTime="0.00" timeLoss="9.45" rerouteNo="0" devices="tripinfo_flow_route_70_duration_20250327_2220.1" vType="car" speedFactor="1.01" vaporized=""/>
    <tripinfo id="flow_route_69_duration_20250327_2220.1" depart="20.00" departLane="1253209803#0_0" departPos="212.10" departSpeed="0.00" departDelay="0.00" arrival="54.00" arrivalLane="380585337#0_0" arrivalPos="19.69" arrivalSpeed="14.31" duration="34.00" routeLength="272.48" waitingTime="0.00" waitingCount="0" stopTime="0.00" timeLoss="15.39" rerouteNo="0" devices="tripinfo_flow_route_69_duration_20250327_2220.1" vType="car" speedFactor="0.88" vaporized=""/>
    <tripinfo id="flow_route_65_duration_20250327_2220.0" depart="8.00" departLane="133131666#1_0" departPos="5.26" departSpeed="0.00" departDelay="8.00" arrival="67.00" arrivalLane="138002016#0_2" arrivalPos="14.48" arrivalSpeed="8.05" duration="59.00" routeLength="193.68" waitingTime="25.00" waitingCount="1" stopTime="0.00" timeLoss="46.34" rerouteNo="0" devices="tripinfo_flow_route_65_duration_20250327_2220.0" vType="car" speedFactor="1.01" vaporized=""/>
    <tripinfo id="flow_route_64_duration_20250327_2220.1" depart="11.00" departLane="133131666#1_0" departPos="0.66" departSpeed="0.00" departDelay="2.43" arrival="68.00" arrivalLane="-138002002#2_0" arrivalPos="5.97" arrivalSpeed="6.65" duration="57.00" routeLength="170.86" waitingTime="23.00" waitingCount="1" stopTime="0.00" timeLoss="46.05" rerouteNo="0" devices="tripinfo_flow_route_64_duration_20250327_2220.1" vType="car" speedFactor="1.03" vaporized=""/>
    <tripinfo id="flow_route_63_duration_20250327_2220.1" depart="14.00" departLane="133131666#1_0" departPos="21.41" departSpeed="0.00" departDelay="2.00" arrival="71.00" arrivalLane="133342692#0_1" arrivalPos="56.80" arrivalSpeed="11.30" duration="57.00" routeLength="219.11" waitingTime="21.00" waitingCount="1" stopTime="0.00" timeLoss="43.53" rerouteNo="0" devices="tripinfo_flow_route_63_duration_20250327_2220.1" vType="car" speedFactor="1.12" vaporized=""/>
    <tripinfo id="flow_route_65_duration_20250327_2220.1" depart="33.00" departLane="133131666#1_0" departPos="16.03" departSpeed="0.00" departDelay="3.00" arrival="73.00" arrivalLane="138002016#0_2" arrivalPos="58.37" arrivalSpeed="11.61" duration="40.00" routeLength="226.81" waitingTime="3.00" waitingCount="1" stopTime="0.00" timeLoss="25.53" rerouteNo="0" devices="tripinfo_flow_route_65_duration_20250327_2220.1" vType="car" speedFactor="1.02" vaporized=""/>
    <tripinfo id="flow_route_63_duration_20250327_2220.3" depart="41.00" departLane="133131666#1_0" departPos="0.53" departSpeed="0.00" departDelay="5.00" arrival="73.00" arrivalLane="133342692#0_2" arrivalPos="36.41" arrivalSpeed="10.71" duration="32.00" routeLength="219.60" waitingTime="0.00" waitingCount="0" stopTime="0.00" timeLoss="18.38" rerouteNo="0" devices="tripinfo_flow_route_63_duration_20250327_2220.3" vType="car" speedFactor="1.13" vaporized=""/>
    <tripinfo id="flow_route_64_duration_20250327_2220.2" depart="19.00" departLane="133131666#1_0" departPos="5.36" departSpeed="0.00" departDelay="1.86" arrival="74.00" arrivalLane="-138002002#2_0" arrivalPos="30.94" arrivalSpeed="9.08" duration="55.00" routeLength="191.13" waitingTime="20.00" waitingCount="1" stopTime="0.00" timeLoss="41.08" rerouteNo="0" devices="tripinfo_flow_route_64_duration_20250327_2220.2" vType="car" speedFactor="0.93" vaporized=""/>
    <tripinfo id="flow_route_63_duration_20250327_2220.2" depart="26.00" departLane="133131666#1_0" departPos="6.83" departSpeed="0.00" departDelay="2.00" arrival="77.00" arrivalLane="133342692#0_1" arrivalPos="102.22" arrivalSpeed="14.96" duration="51.00" routeLength="279.11" waitingTime="9.00" waitingCount="1" stopTime="0.00" timeLoss="32.19" rerouteNo="0" devices="tripinfo_flow_route_63_duration_20250327_2220.2" vType="car" speedFactor="0.94" vaporized=""/>
    <tripinfo id="flow_route_63_duration_20250327_2220.0" depart="0.00" departLane="133131666#1_0" departPos="14.94" departSpeed="0.00" departDelay="0.00" arrival="78.00" arrivalLane="133342692#0_0" arrivalPos="152.76" arrivalSpeed="16.41" duration="78.00" routeLength="321.54" waitingTime="35.00" waitingCount="1" stopTime="0.00" timeLoss="57.91" rerouteNo="0" devices="tripinfo_flow_route_63_duration_20250327_2220.0" vType="car" speedFactor="1.06" vaporized=""/>
    <tripinfo id="flow_route_64_duration_20250327_2220.0" depart="2.00" departLane="133131666#1_0" departPos="6.82" departSpeed="0.00" departDelay="2.00" arrival="78.00" arrivalLane="-138002002#2_0" arrivalPos="131.25" arrivalSpeed="14.76" duration="76.00" routeLength="289.98" waitingTime="33.00" waitingCount="1" stopTime="0.00" timeLoss="55.73" rerouteNo="0" devices="tripinfo_flow_route_64_duration_20250327_2220.0" vType="car" speedFactor="0.94" vaporized=""/>
    <tripinfo id="flow_route_69_duration_20250327_2220.2" depart="40.00" departLane="1253209803#0_0" departPos="115.92" departSpeed="0.00" departDelay="0.00" arrival="78.00" arrivalLane="380585337#0_0" arrivalPos="20.03" arrivalSpeed="15.29" duration="38.00" routeLength="368.98" waitingTime="0.00" waitingCount="0" stopTime="0.00" timeLoss="14.46" rerouteNo="0" devices="tripinfo_flow_route_69_duration_20250327_2220.2" vType="car" speedFactor="0.93" vaporized=""/>
    <tripinfo id="flow_route_63_duration_20250327_2220.4" depart="50.00" departLane="133131666#1_0" departPos="15.53" departSpeed="0.00" departDelay="2.00" arrival="78.00" arrivalLane="133342692#0_1" arrivalPos="98.35" arrivalSpeed="15.86" duration="28.00" routeLength="266.54" waitingTime="0.00" waitingCount="0" stopTime="0.00" timeLoss="11.40" rerouteNo="0" devices="tripinfo_flow_route_63_duration_20250327_2220.4" vType="car" speedFactor="1.17" vaporized=""/>
    <tripinfo id="flow_route_64_duration_20250327_2220.5" depart="49.00" departLane="133131666#1_0" departPos="6.58" departSpeed="0.00" departDelay="6.15" arrival="80.00" arrivalLane="-138002002#2_0" arrivalPos="19.29" arrivalSpeed="8.81" duration="31.00" routeLength="178.26" waitingTime="0.00" waitingCount="0" stopTime="0.00" timeLoss="19.39" rerouteNo="0" devices="tripinfo_flow_route_64_duration_20250327_2220.5" vType="car" speedFactor="1.15" vaporized=""/>
    <tripinfo id="flow_route_64_duration_20250327_2220.4" depart="39.00" departLane="133131666#1_0" departPos="8.65" departSpeed="0.00" departDelay="4.72" arrival="83.00" arrivalLane="-138002002#2_0" arrivalPos="64.81" arrivalSpeed="11.00" duration="44.00" routeLength="221.71" waitingTime="4.00" waitingCount="1" stopTime="0.00" timeLoss="28.19" rerouteNo="0" devices="tripinfo_flow_route_64_duration_20250327_2220.4" vType="car" speedFactor="0.95" vaporized=""/>
    <tripinfo id="flow_route_64_duration_20250327_2220.3" depart="30.00" departLane="133131666#1_0" departPos="1.49" departSpeed="0.00" departDelay="4.29" arrival="87.00" arrivalLane="-138002002#2_0" arrivalPos="176.83" arrivalSpeed="16.22" duration="57.00" routeLength="340.89" waitingTime="8.00" waitingCount="1" stopTime="0.00" timeLoss="35.59" rerouteNo="0" devices="tripinfo_flow_route_64_duration_20250327_2220.3" vType="car" speedFactor="1.16" vaporized=""/>
    <tripinfo id="flow_route_64_duration_20250327_2220.6" depart="56.00" departLane="133131666#1_0" departPos="2.76" departSpeed="0.00" departDelay="4.57" arrival="89.00" arrivalLane="-138002002#2_0" arrivalPos="85.90" arrivalSpeed="13.16" duration="33.00" routeLength="248.69" waitingTime="0.00" waitingCount="0" stopTime="0.00" timeLoss="16.22" rerouteNo="0" devices="tripinfo_flow_route_64_duration_20250327_2220.6" vType="car" speedFactor="1.02" vaporized=""/>
    <tripinfo id="flow_route_75_duration_20250327_2220.0" depart="0.00" departLane="380593307#0_0" departPos="8.02" departSpeed="0.00" departDelay="0.00" arrival="119.00" arrivalLane="-138002002#2_1" arrivalPos="1.11" arrivalSpeed="6.52" duration="119.00" routeLength="196.85" waitingTime="87.00" waitingCount="1" stopTime="0.00" timeLoss="106.44" rerouteNo="0" devices="tripinfo_flow_route_75_duration_20250327_2220.0" vType="car" speedFactor="1.09" vaporized=""/>
    <tripinfo id="flow_route_75_duration_20250327_2220.2" depart="20.00" departLane="380593307#0_0" departPos="124.23" departSpeed="0.00" departDelay="0.00" arrival="124.00" arrivalLane="-138002002#2_1" arrivalPos="16.40" arrivalSpeed="9.22" duration="104.00" routeLength="95.93" waitingTime="80.00" waitingCount="1" stopTime="0.00" timeLoss="96.63" rerouteNo="0" devices="tripinfo_flow_route_75_duration_20250327_2220.2" vType="car" speedFactor="0.94" vaporized=""/>
    <tripinfo id="flow_route_73_duration_20250327_2220.0" depart="0.00" departLane="380593307#0_0" departPos="55.90" departSpeed="0.00" departDelay="0.00" arrival="132.00" arrivalLane="380585337#0_1" arrivalPos="13.23" arrivalSpeed="15.40" duration="132.00" routeLength="294.01" waitingTime="91.00" waitingCount="1" stopTime="0.00" timeLoss="112.53" rerouteNo="0" devices="tripinfo_flow_route_73_duration_20250327_2220.0" vType="car" speedFactor="0.94" vaporized=""/>
    <tripinfo id="flow_route_73_duration_20250327_2220.1" depart="30.00" departLane="380593307#0_0" departPos="14.93" departSpeed="0.00" departDelay="0.00" arrival="134.00" arrivalLane="380585337#0_1" arrivalPos="6.76" arrivalSpeed="13.61" duration="104.00" routeLength="328.51" waitingTime="59.00" waitingCount="1" stopTime="0.00" timeLoss="79.63" rerouteNo="0" devices="tripinfo_flow_route_73_duration_20250327_2220.1" vType="car" speedFactor="0.83" vaporized=""/>
    <tripinfo id="flow_route_74_duration_20250327_2220.1" depart="30.00" departLane="380593307#0_0" departPos="98.46" departSpeed="0.00" departDelay="0.00" arrival="134.00" arrivalLane="138002016#0_0" arrivalPos="174.06" arrivalSpeed="14.50" duration="104.00" routeLength="258.29" waitingTime="66.00" waitingCount="1" stopTime="0.00" timeLoss="84.81" rerouteNo="0" devices="tripinfo_flow_route_74_duration_20250327_2220.1" vType="car" speedFactor="0.87" vaporized=""/>
    <tripinfo id="flow_route_75_duration_20250327_2220.1" depart="12.00" departLane="380593307#0_0" departPos="22.46" departSpeed="0.00" departDelay="2.00" arrival="135.00" arrivalLane="-138002002#2_1" arrivalPos="140.83" arrivalSpeed="16.01" duration="123.00" routeLength="322.13" waitingTime="80.00" waitingCount="1" stopTime="0.00" timeLoss="102.97" rerouteNo="0" devices="tripinfo_flow_route_75_duration_20250327_2220.1" vType="car" speedFactor="1.05" vaporized=""/>
    <tripinfo id="flow_route_74_duration_20250327_2220.0" depart="0.00" departLane="380593307#0_0" departPos="118.68" departSpeed="0.00" departDelay="0.00" arrival="137.00" arrivalLane="138002016#0_0" arrivalPos="237.21" arrivalSpeed="14.20" duration="137.00" routeLength="301.22" waitingTime="97.00" waitingCount="1" stopTime="0.00" timeLoss="114.07" rerouteNo="0" devices="tripinfo_flow_route_74_duration_20250327_2220.0" vType="car" speedFactor="0.86" vaporized=""/>
    <tripinfo id="flow_route_75_duration_20250327_2220.4" depart="41.00" departLane="380593307#0_0" departPos="52.56" departSpeed="0.00" departDelay="1.00" arrival="137.00" arrivalLane="-138002002#2_1" arrivalPos="107.77" arrivalSpeed="16.41" duration="96.00" routeLength="258.97" waitingTime="57.00" waitingCount="1" stopTime="0.00" timeLoss="79.57" rerouteNo="0" devices="tripinfo_flow_route_75_duration_20250327_2220.4" vType="car" speedFactor="1.18" vaporized=""/>
    <tripinfo id="flow_route_75_duration_20250327_2220.5" depart="50.00" departLane="380593307#0_0" departPos="17.63" departSpeed="0.00" departDelay="0.00" arrival="137.00" arrivalLane="-138002002#2_1" arrivalPos="63.16" arrivalSpeed="13.38" duration="87.00" routeLength="249.29" waitingTime="46.00" waitingCount="1" stopTime="0.00" timeLoss="71.17" rerouteNo="0" devices="tripinfo_flow_route_75_duration_20250327_2220.5" vType="car" speedFactor="0.99" vaporized=""/>
    <tripinfo id="flow_route_75_duration_20250327_2220.3" depart="30.00" departLane="380593307#0_0" departPos="35.97" departSpeed="0.00" departDelay="0.00" arrival="139.00" arrivalLane="-138002002#2_1" arrivalPos="170.97" arrivalSpeed="14.84" duration="109.00" routeLength="338.76" waitingTime="64.00" waitingCount="1" stopTime="0.00" timeLoss="85.99" rerouteNo="0" devices="tripinfo_flow_route_75_duration_20250327_2220.3" vType="car" speedFactor="0.92" vaporized=""/>
    <tripinfo id="flow_route_72_duration_20250327_2220.2" depart="31.00" departLane="1369578052#0_0" departPos="8.63" departSpeed="0.00" departDelay="1.00" arrival="147.00" arrivalLane="133342692#0_0" arrivalPos="4.77" arrivalSpeed="7.18" duration="116.00" routeLength="196.22" waitingTime="84.00" waitingCount="1" stopTime="0.00" timeLoss="101.45" rerouteNo="0" devices="tripinfo_flow_route_72_duration_20250327_2220.2" vType="car" speedFactor="0.89" vaporized=""/>
    <tripinfo id="flow_route_72_duration_20250327_2220.1" depart="15.00" departLane="1369578052#0_0" departPos="41.13" departSpeed="0.00" departDelay="0.00" arrival="149.00" arrivalLane="133342692#0_0" arrivalPos="45.28" arrivalSpeed="9.65" duration="134.00" routeLength="204.23" waitingTime="100.00" waitingCount="1" stopTime="0.00" timeLoss="120.84" rerouteNo="0" devices="tripinfo_flow_route_72_duration_20250327_2220.1" vType="car" speedFactor="0.99" vaporized=""/>
    <tripinfo id="flow_route_71_duration_20250327_2220.1" depart="30.00" departLane="1369578052#0_0" departPos="57.85" departSpeed="0.00" departDelay="0.00" arrival="152.00" arrivalLane="138002016#0_1" arrivalPos="48.34" arrivalSpeed="10.69" duration="122.00" routeLength="208.16" waitingTime="87.00" waitingCount="1" stopTime="0.00" timeLoss="108.84" rerouteNo="0" devices="tripinfo_flow_route_71_duration_20250327_2220.1" vType="car" speedFactor="0.97" vaporized=""/>
    <tripinfo id="flow_route_72_duration_20250327_2220.3" depart="46.00" departLane="1369578052#0_0" departPos="84.01" departSpeed="0.00" departDelay="1.00" arrival="161.00" arrivalLane="133342692#0_0" arrivalPos="158.58" arrivalSpeed="16.28" duration="115.00" routeLength="274.64" waitingTime="77.00" waitingCount="1" stopTime="0.00" timeLoss="97.71" rerouteNo="0" devices="tripinfo_flow_route_72_duration_20250327_2220.3" vType="car" speedFactor="1.01" vaporized=""/>
</tripinfos>
