<?xml version="1.0" encoding="UTF-8"?>

<!-- generated on 2025-05-06 16:33:53 by Eclipse SUMO sumo Version 1.20.0
<configuration xmlns:xsi="http://www.w3.org/2001/XMLSchema-instance" xsi:noNamespaceSchemaLocation="http://sumo.dlr.de/xsd/sumoConfiguration.xsd">

    <input>
        <net-file value="osm.net.xml"/>
        <route-files value="xml/routes_ddpg_GS_cluster_4854142864_4854142865.rou.xml"/>
    </input>

    <output>
        <tripinfo-output value="xml/tripinfo_42364.xml"/>
    </output>

    <traci_server>
        <remote-port value="36349"/>
    </traci_server>

</configuration>
-->

<tripinfos xmlns:xsi="http://www.w3.org/2001/XMLSchema-instance" xsi:noNamespaceSchemaLocation="http://sumo.dlr.de/xsd/tripinfo_file.xsd">
    <tripinfo id="flow_route_43_duration_20250327_2040.0" depart="0.00" departLane="1328664744#0_0" departPos="1.34" departSpeed="0.00" departDelay="0.00" arrival="35.00" arrivalLane="134193294#0_3" arrivalPos="84.30" arrivalSpeed="14.51" duration="35.00" routeLength="323.03" waitingTime="0.00" waitingCount="0" stopTime="0.00" timeLoss="14.58" rerouteNo="0" devices="tripinfo_flow_route_43_duration_20250327_2040.0" vType="car" speedFactor="1.08" vaporized=""/>
    <tripinfo id="flow_route_45_duration_20250327_2040.0" depart="0.00" departLane="791826085_0" departPos="152.03" departSpeed="0.00" departDelay="0.00" arrival="44.00" arrivalLane="485211947#0_0" arrivalPos="8.08" arrivalSpeed="5.89" duration="44.00" routeLength="191.81" waitingTime="10.00" waitingCount="1" stopTime="0.00" timeLoss="29.08" rerouteNo="0" devices="tripinfo_flow_route_45_duration_20250327_2040.0" vType="car" speedFactor="0.83" vaporized=""/>
    <tripinfo id="flow_route_44_duration_20250327_2040.5" depart="15.00" departLane="791826085_0" departPos="311.97" departSpeed="0.00" departDelay="1.96" arrival="49.00" arrivalLane="134193294#0_0" arrivalPos="51.76" arrivalSpeed="10.94" duration="34.00" routeLength="94.16" waitingTime="13.00" waitingCount="1" stopTime="0.00" timeLoss="27.65" rerouteNo="0" devices="tripinfo_flow_route_44_duration_20250327_2040.5" vType="car" speedFactor="0.93" vaporized=""/>
    <tripinfo id="flow_route_44_duration_20250327_2040.1" depart="3.00" departLane="791826085_0" departPos="19.65" departSpeed="0.00" departDelay="0.39" arrival="50.00" arrivalLane="134193294#0_2" arrivalPos="45.37" arrivalSpeed="10.79" duration="47.00" routeLength="380.09" waitingTime="0.00" waitingCount="0" stopTime="0.00" timeLoss="21.09" rerouteNo="0" devices="tripinfo_flow_route_44_duration_20250327_2040.1" vType="car" speedFactor="0.89" vaporized=""/>
    <tripinfo id="flow_route_44_duration_20250327_2040.0" depart="0.00" departLane="791826085_0" departPos="219.49" departSpeed="0.00" departDelay="0.00" arrival="51.00" arrivalLane="134193294#0_1" arrivalPos="101.20" arrivalSpeed="14.32" duration="51.00" routeLength="236.08" waitingTime="12.00" waitingCount="1" stopTime="0.00" timeLoss="36.01" rerouteNo="0" devices="tripinfo_flow_route_44_duration_20250327_2040.0" vType="car" speedFactor="1.03" vaporized=""/>
    <tripinfo id="flow_route_44_duration_20250327_2040.3" depart="8.00" departLane="791826085_0" departPos="306.25" departSpeed="0.00" departDelay="0.18" arrival="51.00" arrivalLane="134193294#0_0" arrivalPos="108.67" arrivalSpeed="14.67" duration="43.00" routeLength="156.79" waitingTime="16.00" waitingCount="1" stopTime="0.00" timeLoss="33.02" rerouteNo="0" devices="tripinfo_flow_route_44_duration_20250327_2040.3" vType="car" speedFactor="1.03" vaporized=""/>
    <tripinfo id="flow_route_44_duration_20250327_2040.11" depart="36.00" departLane="791826085_0" departPos="269.23" departSpeed="0.00" departDelay="7.31" arrival="52.00" arrivalLane="134193294#0_1" arrivalPos="11.49" arrivalSpeed="11.58" duration="16.00" routeLength="96.63" waitingTime="0.00" waitingCount="0" stopTime="0.00" timeLoss="9.96" rerouteNo="0" devices="tripinfo_flow_route_44_duration_20250327_2040.11" vType="car" speedFactor="1.13" vaporized=""/>
    <tripinfo id="flow_route_46_duration_20250327_2040.1" depart="7.00" departLane="791826085_0" departPos="100.14" departSpeed="0.00" departDelay="0.33" arrival="53.00" arrivalLane="1328664748#0_1" arrivalPos="114.13" arrivalSpeed="14.35" duration="46.00" routeLength="362.78" waitingTime="0.00" waitingCount="0" stopTime="0.00" timeLoss="23.30" rerouteNo="0" devices="tripinfo_flow_route_46_duration_20250327_2040.1" vType="car" speedFactor="1.09" vaporized=""/>
    <tripinfo id="flow_route_46_duration_20250327_2040.0" depart="1.00" departLane="791826085_0" departPos="184.68" departSpeed="0.00" departDelay="1.00" arrival="54.00" arrivalLane="1328664748#0_1" arrivalPos="165.37" arrivalSpeed="16.58" duration="53.00" routeLength="329.48" waitingTime="11.00" waitingCount="1" stopTime="0.00" timeLoss="31.77" rerouteNo="0" devices="tripinfo_flow_route_46_duration_20250327_2040.0" vType="car" speedFactor="1.05" vaporized=""/>
    <tripinfo id="flow_route_44_duration_20250327_2040.4" depart="11.00" departLane="791826085_0" departPos="177.52" departSpeed="0.00" departDelay="0.57" arrival="54.00" arrivalLane="134193294#0_0" arrivalPos="68.03" arrivalSpeed="13.74" duration="43.00" routeLength="244.88" waitingTime="3.00" waitingCount="1" stopTime="0.00" timeLoss="27.85" rerouteNo="0" devices="tripinfo_flow_route_44_duration_20250327_2040.4" vType="car" speedFactor="1.12" vaporized=""/>
    <tripinfo id="flow_route_45_duration_20250327_2040.1" depart="6.00" departLane="791826085_0" departPos="15.07" departSpeed="0.00" departDelay="0.00" arrival="55.00" arrivalLane="485211947#0_0" arrivalPos="59.66" arrivalSpeed="10.94" duration="49.00" routeLength="380.35" waitingTime="0.00" waitingCount="0" stopTime="0.00" timeLoss="21.03" rerouteNo="0" devices="tripinfo_flow_route_45_duration_20250327_2040.1" vType="car" speedFactor="0.86" vaporized=""/>
    <tripinfo id="flow_route_44_duration_20250327_2040.2" depart="6.00" departLane="791826085_0" departPos="222.94" departSpeed="0.00" departDelay="0.78" arrival="56.00" arrivalLane="134193294#0_1" arrivalPos="150.20" arrivalSpeed="15.58" duration="50.00" routeLength="281.62" waitingTime="11.00" waitingCount="1" stopTime="0.00" timeLoss="31.12" rerouteNo="0" devices="tripinfo_flow_route_44_duration_20250327_2040.2" vType="car" speedFactor="0.94" vaporized=""/>
    <tripinfo id="flow_route_44_duration_20250327_2040.6" depart="20.00" departLane="791826085_0" departPos="264.72" departSpeed="0.00" departDelay="4.35" arrival="56.00" arrivalLane="134193294#0_1" arrivalPos="117.52" arrivalSpeed="15.45" duration="36.00" routeLength="207.17" waitingTime="2.00" waitingCount="1" stopTime="0.00" timeLoss="22.17" rerouteNo="0" devices="tripinfo_flow_route_44_duration_20250327_2040.6" vType="car" speedFactor="0.94" vaporized=""/>
    <tripinfo id="flow_route_46_duration_20250327_2040.3" depart="27.00" departLane="791826085_0" departPos="90.94" departSpeed="0.00" departDelay="7.00" arrival="61.00" arrivalLane="1328664748#0_1" arrivalPos="53.71" arrivalSpeed="13.82" duration="34.00" routeLength="311.56" waitingTime="0.00" waitingCount="0" stopTime="0.00" timeLoss="13.64" rerouteNo="0" devices="tripinfo_flow_route_46_duration_20250327_2040.3" vType="car" speedFactor="0.97" vaporized=""/>
    <tripinfo id="flow_route_45_duration_20250327_2040.4" depart="30.00" departLane="791826085_0" departPos="184.96" departSpeed="0.00" departDelay="6.00" arrival="62.00" arrivalLane="485211947#0_0" arrivalPos="91.27" arrivalSpeed="12.27" duration="32.00" routeLength="242.06" waitingTime="0.00" waitingCount="0" stopTime="0.00" timeLoss="14.18" rerouteNo="0" devices="tripinfo_flow_route_45_duration_20250327_2040.4" vType="car" speedFactor="0.87" vaporized=""/>
    <tripinfo id="flow_route_46_duration_20250327_2040.5" depart="39.00" departLane="791826085_0" departPos="285.54" departSpeed="0.00" departDelay="5.67" arrival="63.00" arrivalLane="1328664748#0_1" arrivalPos="151.00" arrivalSpeed="16.26" duration="24.00" routeLength="214.25" waitingTime="0.00" waitingCount="0" stopTime="0.00" timeLoss="10.71" rerouteNo="0" devices="tripinfo_flow_route_46_duration_20250327_2040.5" vType="car" speedFactor="1.17" vaporized=""/>
    <tripinfo id="flow_route_45_duration_20250327_2040.8" depart="55.00" departLane="791826085_0" departPos="319.92" departSpeed="0.00" departDelay="7.00" arrival="63.00" arrivalLane="485211947#0_0" arrivalPos="7.89" arrivalSpeed="6.38" duration="8.00" routeLength="23.73" waitingTime="0.00" waitingCount="0" stopTime="0.00" timeLoss="5.69" rerouteNo="0" devices="tripinfo_flow_route_45_duration_20250327_2040.8" vType="car" speedFactor="1.09" vaporized=""/>
    <tripinfo id="flow_route_44_duration_20250327_2040.10" depart="30.00" departLane="791826085_0" departPos="67.56" departSpeed="0.00" departDelay="3.92" arrival="64.00" arrivalLane="134193294#0_2" arrivalPos="31.45" arrivalSpeed="13.48" duration="34.00" routeLength="318.26" waitingTime="0.00" waitingCount="0" stopTime="0.00" timeLoss="12.58" rerouteNo="0" devices="tripinfo_flow_route_44_duration_20250327_2040.10" vType="car" speedFactor="0.92" vaporized=""/>
    <tripinfo id="flow_route_44_duration_20250327_2040.14" depart="44.00" departLane="791826085_0" departPos="254.71" departSpeed="0.00" departDelay="7.49" arrival="65.00" arrivalLane="134193294#0_1" arrivalPos="62.64" arrivalSpeed="14.89" duration="21.00" routeLength="162.30" waitingTime="0.00" waitingCount="0" stopTime="0.00" timeLoss="10.96" rerouteNo="0" devices="tripinfo_flow_route_44_duration_20250327_2040.14" vType="car" speedFactor="1.02" vaporized=""/>
    <tripinfo id="flow_route_46_duration_20250327_2040.2" depart="17.00" departLane="791826085_0" departPos="42.19" departSpeed="0.00" departDelay="3.67" arrival="67.00" arrivalLane="1328664748#0_1" arrivalPos="170.09" arrivalSpeed="14.16" duration="50.00" routeLength="476.69" waitingTime="0.00" waitingCount="0" stopTime="0.00" timeLoss="16.66" rerouteNo="0" devices="tripinfo_flow_route_46_duration_20250327_2040.2" vType="car" speedFactor="0.88" vaporized=""/>
    <tripinfo id="flow_route_44_duration_20250327_2040.7" depart="27.00" departLane="791826085_0" departPos="9.08" departSpeed="0.00" departDelay="8.74" arrival="68.00" arrivalLane="134193294#0_2" arrivalPos="45.30" arrivalSpeed="14.67" duration="41.00" routeLength="390.59" waitingTime="0.00" waitingCount="0" stopTime="0.00" timeLoss="17.31" rerouteNo="0" devices="tripinfo_flow_route_44_duration_20250327_2040.7" vType="car" speedFactor="1.16" vaporized=""/>
    <tripinfo id="flow_route_46_duration_20250327_2040.4" depart="34.00" departLane="791826085_0" departPos="138.02" departSpeed="0.00" departDelay="7.34" arrival="70.00" arrivalLane="1328664748#0_1" arrivalPos="142.76" arrivalSpeed="15.59" duration="36.00" routeLength="353.52" waitingTime="0.00" waitingCount="0" stopTime="0.00" timeLoss="12.26" rerouteNo="0" devices="tripinfo_flow_route_46_duration_20250327_2040.4" vType="car" speedFactor="0.95" vaporized=""/>
    <tripinfo id="flow_route_44_duration_20250327_2040.8" depart="30.00" departLane="791826085_0" departPos="110.56" departSpeed="0.00" departDelay="9.14" arrival="71.00" arrivalLane="134193294#0_2" arrivalPos="102.28" arrivalSpeed="14.49" duration="41.00" routeLength="346.08" waitingTime="0.00" waitingCount="0" stopTime="0.00" timeLoss="16.82" rerouteNo="0" devices="tripinfo_flow_route_44_duration_20250327_2040.8" vType="car" speedFactor="0.89" vaporized=""/>
    <tripinfo id="flow_route_45_duration_20250327_2040.2" depart="12.00" departLane="791826085_0" departPos="10.57" departSpeed="0.00" departDelay="0.00" arrival="73.00" arrivalLane="485211947#0_0" arrivalPos="43.86" arrivalSpeed="10.11" duration="61.00" routeLength="369.05" waitingTime="0.00" waitingCount="0" stopTime="0.00" timeLoss="37.97" rerouteNo="0" devices="tripinfo_flow_route_45_duration_20250327_2040.2" vType="car" speedFactor="0.99" vaporized=""/>
    <tripinfo id="flow_route_44_duration_20250327_2040.9" depart="30.00" departLane="791826085_0" departPos="28.05" departSpeed="0.00" departDelay="6.53" arrival="73.00" arrivalLane="134193294#0_1" arrivalPos="52.80" arrivalSpeed="12.73" duration="43.00" routeLength="379.11" waitingTime="0.00" waitingCount="0" stopTime="0.00" timeLoss="14.95" rerouteNo="0" devices="tripinfo_flow_route_44_duration_20250327_2040.9" vType="car" speedFactor="0.83" vaporized=""/>
    <tripinfo id="flow_route_45_duration_20250327_2040.5" depart="36.00" departLane="791826085_0" departPos="190.79" departSpeed="0.00" departDelay="6.00" arrival="73.00" arrivalLane="485211947#0_0" arrivalPos="58.16" arrivalSpeed="11.34" duration="37.00" routeLength="203.12" waitingTime="0.00" waitingCount="0" stopTime="0.00" timeLoss="23.41" rerouteNo="0" devices="tripinfo_flow_route_45_duration_20250327_2040.5" vType="car" speedFactor="1.18" vaporized=""/>
    <tripinfo id="flow_route_44_duration_20250327_2040.16" depart="50.00" departLane="791826085_0" departPos="294.96" departSpeed="0.00" departDelay="8.27" arrival="73.00" arrivalLane="134193294#0_1" arrivalPos="70.52" arrivalSpeed="12.71" duration="23.00" routeLength="129.93" waitingTime="0.00" waitingCount="0" stopTime="0.00" timeLoss="14.53" rerouteNo="0" devices="tripinfo_flow_route_44_duration_20250327_2040.16" vType="car" speedFactor="1.03" vaporized=""/>
    <tripinfo id="flow_route_45_duration_20250327_2040.6" depart="42.00" departLane="791826085_0" departPos="228.12" departSpeed="0.00" departDelay="6.00" arrival="74.00" arrivalLane="485211947#0_0" arrivalPos="95.02" arrivalSpeed="12.71" duration="32.00" routeLength="202.66" waitingTime="0.00" waitingCount="0" stopTime="0.00" timeLoss="18.45" rerouteNo="0" devices="tripinfo_flow_route_45_duration_20250327_2040.6" vType="car" speedFactor="0.99" vaporized=""/>
    <tripinfo id="flow_route_38_duration_20250327_2040.2" depart="20.00" departLane="133126030#0_0" departPos="123.80" departSpeed="0.00" departDelay="0.00" arrival="86.00" arrivalLane="134193294#0_0" arrivalPos="28.81" arrivalSpeed="8.84" duration="66.00" routeLength="99.89" waitingTime="42.00" waitingCount="1" stopTime="0.00" timeLoss="58.70" rerouteNo="0" devices="tripinfo_flow_route_38_duration_20250327_2040.2" vType="car" speedFactor="1.02" vaporized=""/>
    <tripinfo id="flow_route_38_duration_20250327_2040.1" depart="10.00" departLane="133126030#0_0" departPos="164.47" departSpeed="0.00" departDelay="0.00" arrival="91.00" arrivalLane="134193294#0_0" arrivalPos="141.40" arrivalSpeed="14.71" duration="81.00" routeLength="171.81" waitingTime="51.00" waitingCount="1" stopTime="0.00" timeLoss="70.02" rerouteNo="0" devices="tripinfo_flow_route_38_duration_20250327_2040.1" vType="car" speedFactor="1.05" vaporized=""/>
    <tripinfo id="flow_route_39_duration_20250327_2040.0" depart="0.00" departLane="133126030#0_0" departPos="101.03" departSpeed="0.00" departDelay="0.00" arrival="93.00" arrivalLane="1328664748#0_0" arrivalPos="158.52" arrivalSpeed="15.16" duration="93.00" routeLength="263.70" waitingTime="54.00" waitingCount="1" stopTime="0.00" timeLoss="75.31" rerouteNo="0" devices="tripinfo_flow_route_39_duration_20250327_2040.0" vType="car" speedFactor="0.94" vaporized=""/>
    <tripinfo id="flow_route_38_duration_20250327_2040.0" depart="0.00" departLane="133126030#0_0" departPos="45.86" departSpeed="0.00" departDelay="0.00" arrival="94.00" arrivalLane="134193294#0_0" arrivalPos="152.84" arrivalSpeed="16.39" duration="94.00" routeLength="301.86" waitingTime="50.00" waitingCount="1" stopTime="0.00" timeLoss="74.42" rerouteNo="0" devices="tripinfo_flow_route_38_duration_20250327_2040.0" vType="car" speedFactor="1.06" vaporized=""/>
    <tripinfo id="flow_route_38_duration_20250327_2040.4" depart="42.00" departLane="133126030#0_0" departPos="86.41" departSpeed="0.00" departDelay="2.00" arrival="98.00" arrivalLane="134193294#0_0" arrivalPos="158.66" arrivalSpeed="15.80" duration="56.00" routeLength="267.13" waitingTime="15.00" waitingCount="1" stopTime="0.00" timeLoss="38.15" rerouteNo="0" devices="tripinfo_flow_route_38_duration_20250327_2040.4" vType="car" speedFactor="0.97" vaporized=""/>
    <tripinfo id="flow_route_42_duration_20250327_2040.0" depart="0.00" departLane="1328664744#0_0" departPos="165.30" departSpeed="0.00" departDelay="0.00" arrival="99.00" arrivalLane="133126030#0_0" arrivalPos="8.43" arrivalSpeed="5.75" duration="99.00" routeLength="669.86" waitingTime="15.00" waitingCount="2" stopTime="0.00" timeLoss="56.24" rerouteNo="0" devices="tripinfo_flow_route_42_duration_20250327_2040.0" vType="car" speedFactor="1.01" vaporized=""/>
    <tripinfo id="flow_route_43_duration_20250327_2040.1" depart="20.00" departLane="1328664744#0_0" departPos="158.75" departSpeed="0.00" departDelay="0.00" arrival="104.00" arrivalLane="134193294#0_3" arrivalPos="98.05" arrivalSpeed="13.27" duration="84.00" routeLength="179.38" waitingTime="52.00" waitingCount="1" stopTime="0.00" timeLoss="71.86" rerouteNo="0" devices="tripinfo_flow_route_43_duration_20250327_2040.1" vType="car" speedFactor="1.01" vaporized=""/>
    <tripinfo id="flow_route_43_duration_20250327_2040.2" depart="40.00" departLane="1328664744#0_0" departPos="127.26" departSpeed="0.00" departDelay="0.00" arrival="105.00" arrivalLane="134193294#0_3" arrivalPos="84.51" arrivalSpeed="12.80" duration="65.00" routeLength="197.32" waitingTime="31.00" waitingCount="1" stopTime="0.00" timeLoss="52.27" rerouteNo="0" devices="tripinfo_flow_route_43_duration_20250327_2040.2" vType="car" speedFactor="1.18" vaporized=""/>
    <tripinfo id="flow_route_44_duration_20250327_2040.17" depart="54.00" departLane="791826085_0" departPos="209.09" departSpeed="0.00" departDelay="9.66" arrival="117.00" arrivalLane="134193294#0_0" arrivalPos="21.32" arrivalSpeed="9.62" duration="63.00" routeLength="166.60" waitingTime="32.00" waitingCount="1" stopTime="0.00" timeLoss="52.77" rerouteNo="0" devices="tripinfo_flow_route_44_duration_20250327_2040.17" vType="car" speedFactor="1.09" vaporized=""/>
    <tripinfo id="flow_route_45_duration_20250327_2040.3" depart="27.00" departLane="791826085_0" departPos="49.52" departSpeed="0.00" departDelay="9.00" arrival="119.00" arrivalLane="485211947#0_0" arrivalPos="76.22" arrivalSpeed="11.02" duration="92.00" routeLength="362.46" waitingTime="34.00" waitingCount="1" stopTime="0.00" timeLoss="67.80" rerouteNo="0" devices="tripinfo_flow_route_45_duration_20250327_2040.3" vType="car" speedFactor="0.94" vaporized=""/>
    <tripinfo id="flow_route_44_duration_20250327_2040.13" depart="39.00" departLane="791826085_0" departPos="34.15" departSpeed="0.00" departDelay="5.10" arrival="119.00" arrivalLane="134193294#0_2" arrivalPos="36.43" arrivalSpeed="10.46" duration="80.00" routeLength="356.65" waitingTime="29.00" waitingCount="1" stopTime="0.00" timeLoss="58.48" rerouteNo="0" devices="tripinfo_flow_route_44_duration_20250327_2040.13" vType="car" speedFactor="1.01" vaporized=""/>
    <tripinfo id="flow_route_44_duration_20250327_2040.15" depart="44.00" departLane="791826085_0" departPos="91.71" departSpeed="0.00" departDelay="4.88" arrival="120.00" arrivalLane="134193294#0_1" arrivalPos="72.92" arrivalSpeed="12.00" duration="76.00" routeLength="335.58" waitingTime="30.00" waitingCount="1" stopTime="0.00" timeLoss="55.72" rerouteNo="0" devices="tripinfo_flow_route_44_duration_20250327_2040.15" vType="car" speedFactor="1.10" vaporized=""/>
    <tripinfo id="flow_route_45_duration_20250327_2040.9" depart="64.00" departLane="791826085_0" departPos="158.63" departSpeed="0.00" departDelay="10.00" arrival="120.00" arrivalLane="485211947#0_0" arrivalPos="19.06" arrivalSpeed="7.59" duration="56.00" routeLength="196.19" waitingTime="22.00" waitingCount="1" stopTime="0.00" timeLoss="40.63" rerouteNo="0" devices="tripinfo_flow_route_45_duration_20250327_2040.9" vType="car" speedFactor="0.85" vaporized=""/>
    <tripinfo id="flow_route_45_duration_20250327_2040.7" depart="53.00" departLane="791826085_0" departPos="193.29" departSpeed="0.00" departDelay="11.00" arrival="121.00" arrivalLane="485211947#0_0" arrivalPos="63.53" arrivalSpeed="10.79" duration="68.00" routeLength="206.00" waitingTime="33.00" waitingCount="1" stopTime="0.00" timeLoss="54.57" rerouteNo="0" devices="tripinfo_flow_route_45_duration_20250327_2040.7" vType="car" speedFactor="0.96" vaporized=""/>
    <tripinfo id="flow_route_44_duration_20250327_2040.19" depart="58.00" departLane="791826085_0" departPos="112.79" departSpeed="0.00" departDelay="8.45" arrival="123.00" arrivalLane="134193294#0_1" arrivalPos="26.34" arrivalSpeed="11.04" duration="65.00" routeLength="267.93" waitingTime="24.00" waitingCount="1" stopTime="0.00" timeLoss="46.61" rerouteNo="0" devices="tripinfo_flow_route_44_duration_20250327_2040.19" vType="car" speedFactor="0.90" vaporized=""/>
    <tripinfo id="flow_route_46_duration_20250327_2040.7" depart="55.00" departLane="791826085_0" departPos="4.77" departSpeed="0.00" departDelay="8.34" arrival="124.00" arrivalLane="1328664748#0_1" arrivalPos="82.68" arrivalSpeed="13.20" duration="69.00" routeLength="426.70" waitingTime="21.00" waitingCount="1" stopTime="0.00" timeLoss="42.43" rerouteNo="0" devices="tripinfo_flow_route_46_duration_20250327_2040.7" vType="car" speedFactor="1.04" vaporized=""/>
    <tripinfo id="flow_route_44_duration_20250327_2040.22" depart="69.00" departLane="791826085_0" departPos="158.97" departSpeed="0.00" departDelay="11.62" arrival="124.00" arrivalLane="134193294#0_0" arrivalPos="28.73" arrivalSpeed="11.26" duration="55.00" routeLength="224.13" waitingTime="19.00" waitingCount="1" stopTime="0.00" timeLoss="41.24" rerouteNo="0" devices="tripinfo_flow_route_44_duration_20250327_2040.22" vType="car" speedFactor="1.02" vaporized=""/>
    <tripinfo id="flow_route_46_duration_20250327_2040.6" depart="48.00" departLane="791826085_0" departPos="127.41" departSpeed="0.00" departDelay="8.00" arrival="126.00" arrivalLane="1328664748#0_1" arrivalPos="158.13" arrivalSpeed="14.68" duration="78.00" routeLength="379.52" waitingTime="30.00" waitingCount="1" stopTime="0.00" timeLoss="51.23" rerouteNo="0" devices="tripinfo_flow_route_46_duration_20250327_2040.6" vType="car" speedFactor="0.90" vaporized=""/>
    <tripinfo id="flow_route_44_duration_20250327_2040.12" depart="38.00" departLane="791826085_0" departPos="7.78" departSpeed="0.00" departDelay="6.70" arrival="127.00" arrivalLane="134193294#0_1" arrivalPos="123.83" arrivalSpeed="15.77" duration="89.00" routeLength="470.42" waitingTime="30.00" waitingCount="1" stopTime="0.00" timeLoss="59.85" rerouteNo="0" devices="tripinfo_flow_route_44_duration_20250327_2040.12" vType="car" speedFactor="1.15" vaporized=""/>
    <tripinfo id="flow_route_44_duration_20250327_2040.20" depart="61.00" departLane="791826085_0" departPos="0.28" departSpeed="0.00" departDelay="8.84" arrival="129.00" arrivalLane="134193294#0_2" arrivalPos="116.79" arrivalSpeed="14.60" duration="68.00" routeLength="470.88" waitingTime="12.00" waitingCount="1" stopTime="0.00" timeLoss="35.58" rerouteNo="0" devices="tripinfo_flow_route_44_duration_20250327_2040.20" vType="car" speedFactor="0.88" vaporized=""/>
    <tripinfo id="flow_route_44_duration_20250327_2040.18" depart="55.00" departLane="791826085_0" departPos="179.12" departSpeed="0.00" departDelay="8.06" arrival="130.00" arrivalLane="134193294#0_1" arrivalPos="151.30" arrivalSpeed="16.19" duration="75.00" routeLength="326.54" waitingTime="28.00" waitingCount="1" stopTime="0.00" timeLoss="54.80" rerouteNo="0" devices="tripinfo_flow_route_44_duration_20250327_2040.18" vType="car" speedFactor="1.04" vaporized=""/>
    <tripinfo id="flow_route_44_duration_20250327_2040.21" depart="68.00" departLane="791826085_0" departPos="128.32" departSpeed="0.00" departDelay="13.23" arrival="135.00" arrivalLane="134193294#0_1" arrivalPos="162.07" arrivalSpeed="16.26" duration="67.00" routeLength="388.12" waitingTime="17.00" waitingCount="1" stopTime="0.00" timeLoss="42.89" rerouteNo="0" devices="tripinfo_flow_route_44_duration_20250327_2040.21" vType="car" speedFactor="1.17" vaporized=""/>
    <tripinfo id="flow_route_46_duration_20250327_2040.8" depart="66.00" departLane="791826085_0" departPos="37.29" departSpeed="0.00" departDelay="12.67" arrival="137.00" arrivalLane="1328664748#0_1" arrivalPos="190.58" arrivalSpeed="14.04" duration="71.00" routeLength="502.08" waitingTime="11.00" waitingCount="1" stopTime="0.00" timeLoss="34.25" rerouteNo="0" devices="tripinfo_flow_route_46_duration_20250327_2040.8" vType="car" speedFactor="0.85" vaporized=""/>
    <tripinfo id="flow_route_38_duration_20250327_2040.3" depart="30.00" departLane="133126030#0_0" departPos="8.68" departSpeed="0.00" departDelay="0.00" arrival="165.00" arrivalLane="134193294#0_0" arrivalPos="170.21" arrivalSpeed="15.51" duration="135.00" routeLength="356.41" waitingTime="72.00" waitingCount="2" stopTime="0.00" timeLoss="110.69" rerouteNo="0" devices="tripinfo_flow_route_38_duration_20250327_2040.3" vType="car" speedFactor="0.93" vaporized=""/>
    <tripinfo id="flow_route_38_duration_20250327_2040.5" depart="52.00" departLane="133126030#0_0" departPos="70.31" departSpeed="0.00" departDelay="2.00" arrival="166.00" arrivalLane="134193294#0_0" arrivalPos="145.03" arrivalSpeed="15.87" duration="114.00" routeLength="269.61" waitingTime="65.00" waitingCount="2" stopTime="0.00" timeLoss="96.01" rerouteNo="0" devices="tripinfo_flow_route_38_duration_20250327_2040.5" vType="car" speedFactor="1.00" vaporized=""/>
</tripinfos>
