<?xml version="1.0" encoding="UTF-8"?>

<!-- generated on 2025-05-06 21:01:13 by Eclipse SUMO sumo Version 1.20.0
<configuration xmlns:xsi="http://www.w3.org/2001/XMLSchema-instance" xsi:noNamespaceSchemaLocation="http://sumo.dlr.de/xsd/sumoConfiguration.xsd">

    <input>
        <net-file value="osm.net.xml"/>
        <route-files value="xml/routes_sac2_J7.rou.xml"/>
    </input>

    <output>
        <tripinfo-output value="xml/tripinfo_9776.xml"/>
    </output>

    <traci_server>
        <remote-port value="48869"/>
    </traci_server>

</configuration>
-->

<tripinfos xmlns:xsi="http://www.w3.org/2001/XMLSchema-instance" xsi:noNamespaceSchemaLocation="http://sumo.dlr.de/xsd/tripinfo_file.xsd">
    <tripinfo id="flow_route_131_duration_20250327_2100.0" depart="0.00" departLane="714011134#0_0" departPos="6.35" departSpeed="0.00" departDelay="0.00" arrival="26.00" arrivalLane="134194079#0_0" arrivalPos="73.02" arrivalSpeed="14.38" duration="26.00" routeLength="232.63" waitingTime="0.00" waitingCount="0" stopTime="0.00" timeLoss="9.41" rerouteNo="0" devices="tripinfo_flow_route_131_duration_20250327_2100.0" vType="car" speedFactor="0.89" vaporized=""/>
    <tripinfo id="flow_route_127_duration_20250327_2100.3" depart="14.00" departLane="-138000461_0" departPos="171.54" departSpeed="0.00" departDelay="2.75" arrival="30.00" arrivalLane="189240000#0-AddedOnRampEdge_0" arrivalPos="11.84" arrivalSpeed="11.76" duration="16.00" routeLength="99.41" waitingTime="0.00" waitingCount="0" stopTime="0.00" timeLoss="9.61" rerouteNo="0" devices="tripinfo_flow_route_127_duration_20250327_2100.3" vType="car" speedFactor="1.16" vaporized=""/>
    <tripinfo id="flow_route_132_duration_20250327_2100.0" depart="0.00" departLane="714011134#0_0" departPos="92.28" departSpeed="0.00" departDelay="0.00" arrival="35.00" arrivalLane="189240000#0-AddedOnRampEdge_1" arrivalPos="51.48" arrivalSpeed="15.31" duration="35.00" routeLength="375.34" waitingTime="0.00" waitingCount="0" stopTime="0.00" timeLoss="10.09" rerouteNo="0" devices="tripinfo_flow_route_132_duration_20250327_2100.0" vType="car" speedFactor="0.94" vaporized=""/>
    <tripinfo id="flow_route_127_duration_20250327_2100.4" depart="15.00" departLane="-138000461_0" departPos="141.19" departSpeed="0.00" departDelay="0.00" arrival="35.00" arrivalLane="189240000#0-AddedOnRampEdge_0" arrivalPos="8.40" arrivalSpeed="10.01" duration="20.00" routeLength="126.32" waitingTime="0.00" waitingCount="0" stopTime="0.00" timeLoss="11.55" rerouteNo="0" devices="tripinfo_flow_route_127_duration_20250327_2100.4" vType="car" speedFactor="1.02" vaporized=""/>
    <tripinfo id="flow_route_127_duration_20250327_2100.0" depart="0.00" departLane="-138000461_0" departPos="55.90" departSpeed="0.00" departDelay="0.00" arrival="37.00" arrivalLane="189240000#0-AddedOnRampEdge_0" arrivalPos="70.17" arrivalSpeed="14.27" duration="37.00" routeLength="273.38" waitingTime="0.00" waitingCount="0" stopTime="0.00" timeLoss="19.87" rerouteNo="0" devices="tripinfo_flow_route_127_duration_20250327_2100.0" vType="car" speedFactor="1.05" vaporized=""/>
    <tripinfo id="flow_route_116_duration_20250327_2100.0" depart="0.00" departLane="177211987#1_0" departPos="0.88" departSpeed="0.00" departDelay="0.00" arrival="38.00" arrivalLane="688883939#0_0" arrivalPos="93.94" arrivalSpeed="16.39" duration="38.00" routeLength="448.08" waitingTime="0.00" waitingCount="0" stopTime="0.00" timeLoss="10.59" rerouteNo="0" devices="tripinfo_flow_route_116_duration_20250327_2100.0" vType="car" speedFactor="1.06" vaporized=""/>
    <tripinfo id="flow_route_127_duration_20250327_2100.1" depart="7.00" departLane="-138000461_0" departPos="63.77" departSpeed="0.00" departDelay="3.25" arrival="40.00" arrivalLane="189240000#0-AddedOnRampEdge_0" arrivalPos="48.43" arrivalSpeed="12.70" duration="33.00" routeLength="243.77" waitingTime="0.00" waitingCount="0" stopTime="0.00" timeLoss="17.37" rerouteNo="0" devices="tripinfo_flow_route_127_duration_20250327_2100.1" vType="car" speedFactor="1.09" vaporized=""/>
    <tripinfo id="flow_route_127_duration_20250327_2100.2" depart="8.00" departLane="-138000461_0" departPos="33.62" departSpeed="0.00" departDelay="0.50" arrival="44.00" arrivalLane="189240000#0-AddedOnRampEdge_0" arrivalPos="72.18" arrivalSpeed="14.14" duration="36.00" routeLength="297.66" waitingTime="0.00" waitingCount="0" stopTime="0.00" timeLoss="17.17" rerouteNo="0" devices="tripinfo_flow_route_127_duration_20250327_2100.2" vType="car" speedFactor="0.99" vaporized=""/>
    <tripinfo id="flow_route_126_duration_20250327_2100.0" depart="0.00" departLane="-138000461_0" departPos="119.67" departSpeed="0.00" departDelay="0.00" arrival="52.00" arrivalLane="138000492#0_1" arrivalPos="18.35" arrivalSpeed="13.82" duration="52.00" routeLength="582.25" waitingTime="0.00" waitingCount="0" stopTime="0.00" timeLoss="9.46" rerouteNo="0" devices="tripinfo_flow_route_126_duration_20250327_2100.0" vType="car" speedFactor="0.83" vaporized=""/>
    <tripinfo id="flow_route_132_duration_20250327_2100.3" depart="18.00" departLane="714011134#0_0" departPos="101.17" departSpeed="0.00" departDelay="1.64" arrival="52.00" arrivalLane="189240000#0-AddedOnRampEdge_1" arrivalPos="67.56" arrivalSpeed="16.32" duration="34.00" routeLength="382.53" waitingTime="0.00" waitingCount="0" stopTime="0.00" timeLoss="10.22" rerouteNo="0" devices="tripinfo_flow_route_132_duration_20250327_2100.3" vType="car" speedFactor="1.01" vaporized=""/>
    <tripinfo id="flow_route_127_duration_20250327_2100.5" depart="19.00" departLane="-138000461_0" departPos="35.59" departSpeed="0.00" departDelay="0.25" arrival="53.00" arrivalLane="189240000#0-AddedOnRampEdge_0" arrivalPos="54.76" arrivalSpeed="11.98" duration="34.00" routeLength="278.29" waitingTime="0.00" waitingCount="0" stopTime="0.00" timeLoss="12.79" rerouteNo="0" devices="tripinfo_flow_route_127_duration_20250327_2100.5" vType="car" speedFactor="0.83" vaporized=""/>
    <tripinfo id="flow_route_132_duration_20250327_2100.1" depart="6.00" departLane="714011134#0_0" departPos="3.42" departSpeed="0.00" departDelay="0.55" arrival="54.00" arrivalLane="189240000#0-AddedOnRampEdge_1" arrivalPos="83.80" arrivalSpeed="16.49" duration="48.00" routeLength="496.52" waitingTime="0.00" waitingCount="0" stopTime="0.00" timeLoss="17.86" rerouteNo="0" devices="tripinfo_flow_route_132_duration_20250327_2100.1" vType="car" speedFactor="1.12" vaporized=""/>
    <tripinfo id="flow_route_132_duration_20250327_2100.2" depart="11.00" departLane="714011134#0_0" departPos="3.14" departSpeed="0.00" departDelay="0.09" arrival="58.00" arrivalLane="189240000#0-AddedOnRampEdge_1" arrivalPos="90.31" arrivalSpeed="15.35" duration="47.00" routeLength="503.31" waitingTime="0.00" waitingCount="0" stopTime="0.00" timeLoss="13.57" rerouteNo="0" devices="tripinfo_flow_route_132_duration_20250327_2100.2" vType="car" speedFactor="0.93" vaporized=""/>
    <tripinfo id="flow_route_133_duration_20250327_2100.0" depart="0.00" departLane="714011134#0_0" departPos="33.93" departSpeed="0.00" departDelay="0.00" arrival="59.00" arrivalLane="138000492#0_0" arrivalPos="313.58" arrivalSpeed="13.93" duration="59.00" routeLength="604.48" waitingTime="0.00" waitingCount="0" stopTime="0.00" timeLoss="15.70" rerouteNo="0" devices="tripinfo_flow_route_133_duration_20250327_2100.0" vType="car" speedFactor="0.86" vaporized=""/>
    <tripinfo id="flow_route_116_duration_20250327_2100.1" depart="30.00" departLane="177211987#1_0" departPos="120.83" departSpeed="0.00" departDelay="0.00" arrival="60.00" arrivalLane="688883939#0_0" arrivalPos="71.55" arrivalSpeed="16.44" duration="30.00" routeLength="305.74" waitingTime="0.00" waitingCount="0" stopTime="0.00" timeLoss="11.02" rerouteNo="0" devices="tripinfo_flow_route_116_duration_20250327_2100.1" vType="car" speedFactor="1.17" vaporized=""/>
    <tripinfo id="flow_route_127_duration_20250327_2100.11" depart="43.00" departLane="-138000461_0" departPos="178.68" departSpeed="0.00" departDelay="1.75" arrival="61.00" arrivalLane="189240000#0-AddedOnRampEdge_0" arrivalPos="35.08" arrivalSpeed="11.22" duration="18.00" routeLength="115.52" waitingTime="0.00" waitingCount="0" stopTime="0.00" timeLoss="9.67" rerouteNo="0" devices="tripinfo_flow_route_127_duration_20250327_2100.11" vType="car" speedFactor="0.88" vaporized=""/>
    <tripinfo id="flow_route_132_duration_20250327_2100.4" depart="23.00" departLane="714011134#0_0" departPos="29.39" departSpeed="0.00" departDelay="1.18" arrival="62.00" arrivalLane="189240000#0-AddedOnRampEdge_1" arrivalPos="60.58" arrivalSpeed="14.92" duration="39.00" routeLength="447.33" waitingTime="0.00" waitingCount="0" stopTime="0.00" timeLoss="9.05" rerouteNo="0" devices="tripinfo_flow_route_132_duration_20250327_2100.4" vType="car" speedFactor="0.92" vaporized=""/>
    <tripinfo id="flow_route_127_duration_20250327_2100.10" depart="39.00" departLane="-138000461_0" departPos="139.86" departSpeed="0.00" departDelay="1.50" arrival="62.00" arrivalLane="189240000#0-AddedOnRampEdge_0" arrivalPos="32.37" arrivalSpeed="11.36" duration="23.00" routeLength="151.62" waitingTime="0.00" waitingCount="0" stopTime="0.00" timeLoss="13.56" rerouteNo="0" devices="tripinfo_flow_route_127_duration_20250327_2100.10" vType="car" speedFactor="1.04" vaporized=""/>
    <tripinfo id="flow_route_117_duration_20250327_2100.0" depart="0.00" departLane="177211987#1_0" departPos="98.51" departSpeed="0.00" departDelay="0.00" arrival="63.00" arrivalLane="138000492#0_0" arrivalPos="299.85" arrivalSpeed="15.14" duration="63.00" routeLength="701.60" waitingTime="0.00" waitingCount="0" stopTime="0.00" timeLoss="17.11" rerouteNo="0" devices="tripinfo_flow_route_117_duration_20250327_2100.0" vType="car" speedFactor="0.94" vaporized=""/>
    <tripinfo id="flow_route_127_duration_20250327_2100.7" depart="29.00" departLane="-138000461_0" departPos="44.88" departSpeed="0.00" departDelay="2.75" arrival="64.00" arrivalLane="189240000#0-AddedOnRampEdge_0" arrivalPos="4.42" arrivalSpeed="9.54" duration="35.00" routeLength="218.65" waitingTime="0.00" waitingCount="0" stopTime="0.00" timeLoss="21.23" rerouteNo="0" devices="tripinfo_flow_route_127_duration_20250327_2100.7" vType="car" speedFactor="1.15" vaporized=""/>
    <tripinfo id="flow_route_127_duration_20250327_2100.6" depart="25.00" departLane="-138000461_0" departPos="18.18" departSpeed="0.00" departDelay="2.50" arrival="66.00" arrivalLane="189240000#0-AddedOnRampEdge_0" arrivalPos="2.63" arrivalSpeed="9.78" duration="41.00" routeLength="243.56" waitingTime="0.00" waitingCount="0" stopTime="0.00" timeLoss="24.74" rerouteNo="0" devices="tripinfo_flow_route_127_duration_20250327_2100.6" vType="car" speedFactor="0.95" vaporized=""/>
    <tripinfo id="flow_route_127_duration_20250327_2100.9" depart="34.00" departLane="-138000461_0" departPos="104.12" departSpeed="0.00" departDelay="0.25" arrival="69.00" arrivalLane="189240000#0-AddedOnRampEdge_0" arrivalPos="87.32" arrivalSpeed="14.50" duration="35.00" routeLength="242.31" waitingTime="0.00" waitingCount="0" stopTime="0.00" timeLoss="18.15" rerouteNo="0" devices="tripinfo_flow_route_127_duration_20250327_2100.9" vType="car" speedFactor="0.90" vaporized=""/>
    <tripinfo id="flow_route_132_duration_20250327_2100.6" depart="33.00" departLane="714011134#0_0" departPos="65.89" departSpeed="0.00" departDelay="0.28" arrival="70.00" arrivalLane="189240000#0-AddedOnRampEdge_1" arrivalPos="82.66" arrivalSpeed="16.52" duration="37.00" routeLength="432.91" waitingTime="0.00" waitingCount="0" stopTime="0.00" timeLoss="10.49" rerouteNo="0" devices="tripinfo_flow_route_132_duration_20250327_2100.6" vType="car" speedFactor="1.10" vaporized=""/>
    <tripinfo id="flow_route_132_duration_20250327_2100.5" depart="28.00" departLane="714011134#0_0" departPos="30.57" departSpeed="0.00" departDelay="0.73" arrival="71.00" arrivalLane="189240000#0-AddedOnRampEdge_1" arrivalPos="68.15" arrivalSpeed="16.25" duration="43.00" routeLength="453.73" waitingTime="0.00" waitingCount="0" stopTime="0.00" timeLoss="14.97" rerouteNo="0" devices="tripinfo_flow_route_132_duration_20250327_2100.5" vType="car" speedFactor="1.01" vaporized=""/>
    <tripinfo id="flow_route_127_duration_20250327_2100.8" depart="31.00" departLane="-138000461_0" departPos="5.04" departSpeed="0.00" departDelay="1.00" arrival="71.00" arrivalLane="189240000#0-AddedOnRampEdge_0" arrivalPos="48.42" arrivalSpeed="13.78" duration="40.00" routeLength="302.49" waitingTime="0.00" waitingCount="0" stopTime="0.00" timeLoss="21.24" rerouteNo="0" devices="tripinfo_flow_route_127_duration_20250327_2100.8" vType="car" speedFactor="1.18" vaporized=""/>
    <tripinfo id="flow_route_127_duration_20250327_2100.13" depart="49.00" departLane="-138000461_0" departPos="116.07" departSpeed="0.00" departDelay="0.25" arrival="76.00" arrivalLane="189240000#0-AddedOnRampEdge_0" arrivalPos="77.52" arrivalSpeed="13.89" duration="27.00" routeLength="220.56" waitingTime="0.00" waitingCount="0" stopTime="0.00" timeLoss="12.83" rerouteNo="0" devices="tripinfo_flow_route_127_duration_20250327_2100.13" vType="car" speedFactor="1.00" vaporized=""/>
    <tripinfo id="flow_route_127_duration_20250327_2100.12" depart="46.00" departLane="-138000461_0" departPos="80.19" departSpeed="0.00" departDelay="1.00" arrival="78.00" arrivalLane="189240000#0-AddedOnRampEdge_0" arrivalPos="62.62" arrivalSpeed="12.05" duration="32.00" routeLength="241.54" waitingTime="0.00" waitingCount="0" stopTime="0.00" timeLoss="14.95" rerouteNo="0" devices="tripinfo_flow_route_127_duration_20250327_2100.12" vType="car" speedFactor="0.85" vaporized=""/>
    <tripinfo id="flow_route_117_duration_20250327_2100.1" depart="13.00" departLane="177211987#1_0" departPos="24.58" departSpeed="0.00" departDelay="1.00" arrival="82.00" arrivalLane="138000492#0_2" arrivalPos="288.31" arrivalSpeed="14.41" duration="69.00" routeLength="763.98" waitingTime="0.00" waitingCount="0" stopTime="0.00" timeLoss="16.45" rerouteNo="0" devices="tripinfo_flow_route_117_duration_20250327_2100.1" vType="car" speedFactor="0.88" vaporized=""/>
    <tripinfo id="flow_route_132_duration_20250327_2100.9" depart="50.00" departLane="714011134#0_0" departPos="93.50" departSpeed="0.00" departDelay="0.91" arrival="82.00" arrivalLane="189240000#0-AddedOnRampEdge_1" arrivalPos="1.38" arrivalSpeed="16.23" duration="32.00" routeLength="324.02" waitingTime="0.00" waitingCount="0" stopTime="0.00" timeLoss="12.08" rerouteNo="0" devices="tripinfo_flow_route_132_duration_20250327_2100.9" vType="car" speedFactor="1.00" vaporized=""/>
    <tripinfo id="flow_route_127_duration_20250327_2100.15" depart="58.00" departLane="-138000461_0" departPos="87.04" departSpeed="0.00" departDelay="1.75" arrival="85.00" arrivalLane="189240000#0-AddedOnRampEdge_0" arrivalPos="45.92" arrivalSpeed="13.44" duration="27.00" routeLength="217.99" waitingTime="0.00" waitingCount="0" stopTime="0.00" timeLoss="13.20" rerouteNo="0" devices="tripinfo_flow_route_127_duration_20250327_2100.15" vType="car" speedFactor="1.08" vaporized=""/>
    <tripinfo id="flow_route_132_duration_20250327_2100.8" depart="44.00" departLane="714011134#0_0" departPos="36.31" departSpeed="0.00" departDelay="0.37" arrival="86.00" arrivalLane="189240000#0-AddedOnRampEdge_1" arrivalPos="14.50" arrivalSpeed="13.88" duration="42.00" routeLength="394.33" waitingTime="0.00" waitingCount="0" stopTime="0.00" timeLoss="14.03" rerouteNo="0" devices="tripinfo_flow_route_132_duration_20250327_2100.8" vType="car" speedFactor="0.85" vaporized=""/>
    <tripinfo id="flow_route_133_duration_20250327_2100.2" depart="42.00" departLane="714011134#0_0" departPos="50.59" departSpeed="0.00" departDelay="2.00" arrival="87.00" arrivalLane="138000492#0_1" arrivalPos="118.34" arrivalSpeed="15.07" duration="45.00" routeLength="392.59" waitingTime="0.00" waitingCount="0" stopTime="0.00" timeLoss="20.62" rerouteNo="0" devices="tripinfo_flow_route_133_duration_20250327_2100.2" vType="car" speedFactor="1.09" vaporized=""/>
    <tripinfo id="flow_route_132_duration_20250327_2100.7" depart="41.00" departLane="714011134#0_0" departPos="13.10" departSpeed="0.00" departDelay="2.82" arrival="88.00" arrivalLane="189240000#0-AddedOnRampEdge_2" arrivalPos="44.03" arrivalSpeed="16.57" duration="47.00" routeLength="447.07" waitingTime="0.00" waitingCount="0" stopTime="0.00" timeLoss="19.74" rerouteNo="0" devices="tripinfo_flow_route_132_duration_20250327_2100.7" vType="car" speedFactor="1.04" vaporized=""/>
    <tripinfo id="flow_route_133_duration_20250327_2100.1" depart="20.00" departLane="714011134#0_0" departPos="19.32" departSpeed="0.00" departDelay="0.00" arrival="89.00" arrivalLane="138000492#0_0" arrivalPos="401.86" arrivalSpeed="14.37" duration="69.00" routeLength="707.38" waitingTime="0.00" waitingCount="0" stopTime="0.00" timeLoss="19.20" rerouteNo="0" devices="tripinfo_flow_route_133_duration_20250327_2100.1" vType="car" speedFactor="0.87" vaporized=""/>
    <tripinfo id="flow_route_127_duration_20250327_2100.14" depart="53.00" departLane="-138000461_0" departPos="35.40" departSpeed="0.00" departDelay="0.50" arrival="92.00" arrivalLane="189240000#0-AddedOnRampEdge_0" arrivalPos="85.29" arrivalSpeed="14.23" duration="39.00" routeLength="309.00" waitingTime="0.00" waitingCount="0" stopTime="0.00" timeLoss="16.85" rerouteNo="0" devices="tripinfo_flow_route_127_duration_20250327_2100.14" vType="car" speedFactor="0.90" vaporized=""/>
    <tripinfo id="flow_route_132_duration_20250327_2100.10" depart="56.00" departLane="714011134#0_0" departPos="1.23" departSpeed="0.00" departDelay="1.46" arrival="93.00" arrivalLane="189240000#0-AddedOnRampEdge_1" arrivalPos="0.08" arrivalSpeed="15.83" duration="37.00" routeLength="414.99" waitingTime="0.00" waitingCount="0" stopTime="0.00" timeLoss="10.76" rerouteNo="0" devices="tripinfo_flow_route_132_duration_20250327_2100.10" vType="car" speedFactor="0.97" vaporized=""/>
    <tripinfo id="flow_route_117_duration_20250327_2100.2" depart="24.00" departLane="177211987#1_0" departPos="45.94" departSpeed="0.00" departDelay="0.00" arrival="95.00" arrivalLane="138000492#0_0" arrivalPos="390.58" arrivalSpeed="16.22" duration="71.00" routeLength="844.90" waitingTime="0.00" waitingCount="0" stopTime="0.00" timeLoss="20.09" rerouteNo="0" devices="tripinfo_flow_route_117_duration_20250327_2100.2" vType="car" speedFactor="1.13" vaporized=""/>
    <tripinfo id="flow_route_122_duration_20250327_2100.0" depart="1.00" departLane="799091563#0_0" departPos="17.54" departSpeed="0.00" departDelay="1.00" arrival="127.00" arrivalLane="688883939#0_2" arrivalPos="62.20" arrivalSpeed="13.52" duration="126.00" routeLength="483.30" waitingTime="73.00" waitingCount="1" stopTime="0.00" timeLoss="96.51" rerouteNo="0" devices="tripinfo_flow_route_122_duration_20250327_2100.0" vType="car" speedFactor="1.03" vaporized=""/>
    <tripinfo id="flow_route_122_duration_20250327_2100.1" depart="32.00" departLane="799091563#0_0" departPos="39.76" departSpeed="0.00" departDelay="2.00" arrival="127.00" arrivalLane="688883939#0_2" arrivalPos="41.09" arrivalSpeed="12.99" duration="95.00" routeLength="439.97" waitingTime="46.00" waitingCount="1" stopTime="0.00" timeLoss="67.64" rerouteNo="0" devices="tripinfo_flow_route_122_duration_20250327_2100.1" vType="car" speedFactor="0.97" vaporized=""/>
    <tripinfo id="flow_route_121_duration_20250327_2100.2" depart="13.00" departLane="799091563#0_0" departPos="217.05" departSpeed="0.00" departDelay="1.00" arrival="129.00" arrivalLane="134194079#0_0" arrivalPos="38.17" arrivalSpeed="8.36" duration="116.00" routeLength="210.28" waitingTime="76.00" waitingCount="1" stopTime="0.00" timeLoss="101.07" rerouteNo="0" devices="tripinfo_flow_route_121_duration_20250327_2100.2" vType="car" speedFactor="0.94" vaporized=""/>
    <tripinfo id="flow_route_120_duration_20250327_2100.0" depart="0.00" departLane="799091563#0_0" departPos="177.01" departSpeed="0.00" departDelay="0.00" arrival="136.00" arrivalLane="138000492#0_0" arrivalPos="19.14" arrivalSpeed="11.74" duration="136.00" routeLength="440.29" waitingTime="83.00" waitingCount="1" stopTime="0.00" timeLoss="109.30" rerouteNo="0" devices="tripinfo_flow_route_120_duration_20250327_2100.0" vType="car" speedFactor="1.01" vaporized=""/>
    <tripinfo id="flow_route_121_duration_20250327_2100.0" depart="1.00" departLane="799091563#0_0" departPos="259.58" departSpeed="0.00" departDelay="1.00" arrival="136.00" arrivalLane="134194079#0_0" arrivalPos="144.99" arrivalSpeed="15.60" duration="135.00" routeLength="274.57" waitingTime="90.00" waitingCount="1" stopTime="0.00" timeLoss="116.92" rerouteNo="0" devices="tripinfo_flow_route_121_duration_20250327_2100.0" vType="car" speedFactor="1.08" vaporized=""/>
    <tripinfo id="flow_route_121_duration_20250327_2100.4" depart="26.00" departLane="799091563#0_0" departPos="68.60" departSpeed="0.00" departDelay="2.00" arrival="143.00" arrivalLane="134194079#0_0" arrivalPos="52.80" arrivalSpeed="10.29" duration="117.00" routeLength="373.36" waitingTime="57.00" waitingCount="1" stopTime="0.00" timeLoss="93.96" rerouteNo="0" devices="tripinfo_flow_route_121_duration_20250327_2100.4" vType="car" speedFactor="1.18" vaporized=""/>
    <tripinfo id="flow_route_121_duration_20250327_2100.6" depart="38.00" departLane="799091563#0_0" departPos="265.61" departSpeed="0.00" departDelay="2.00" arrival="145.00" arrivalLane="134194079#0_0" arrivalPos="134.46" arrivalSpeed="14.78" duration="107.00" routeLength="258.02" waitingTime="61.00" waitingCount="1" stopTime="0.00" timeLoss="90.45" rerouteNo="0" devices="tripinfo_flow_route_121_duration_20250327_2100.6" vType="car" speedFactor="1.09" vaporized=""/>
    <tripinfo id="flow_route_121_duration_20250327_2100.1" depart="6.00" departLane="799091563#0_0" departPos="89.89" departSpeed="0.00" departDelay="0.00" arrival="150.00" arrivalLane="134194079#0_0" arrivalPos="243.19" arrivalSpeed="16.51" duration="144.00" routeLength="542.46" waitingTime="69.00" waitingCount="1" stopTime="0.00" timeLoss="109.41" rerouteNo="0" devices="tripinfo_flow_route_121_duration_20250327_2100.1" vType="car" speedFactor="1.05" vaporized=""/>
    <tripinfo id="flow_route_121_duration_20250327_2100.3" depart="18.00" departLane="799091563#0_0" departPos="187.04" departSpeed="0.00" departDelay="0.00" arrival="150.00" arrivalLane="134194079#0_0" arrivalPos="275.86" arrivalSpeed="14.69" duration="132.00" routeLength="477.98" waitingTime="69.00" waitingCount="1" stopTime="0.00" timeLoss="97.71" rerouteNo="0" devices="tripinfo_flow_route_121_duration_20250327_2100.3" vType="car" speedFactor="0.89" vaporized=""/>
    <tripinfo id="flow_route_121_duration_20250327_2100.5" depart="32.00" departLane="799091563#0_0" departPos="114.96" departSpeed="0.00" departDelay="2.00" arrival="151.00" arrivalLane="134194079#0_0" arrivalPos="181.47" arrivalSpeed="16.19" duration="119.00" routeLength="455.68" waitingTime="57.00" waitingCount="1" stopTime="0.00" timeLoss="89.39" rerouteNo="0" devices="tripinfo_flow_route_121_duration_20250327_2100.5" vType="car" speedFactor="1.02" vaporized=""/>
    <tripinfo id="flow_route_120_duration_20250327_2100.2" depart="12.00" departLane="799091563#0_0" departPos="366.26" departSpeed="0.00" departDelay="0.00" arrival="153.00" arrivalLane="138000492#0_1" arrivalPos="139.43" arrivalSpeed="15.21" duration="141.00" routeLength="371.33" waitingTime="91.00" waitingCount="2" stopTime="0.00" timeLoss="116.96" rerouteNo="0" devices="tripinfo_flow_route_120_duration_20250327_2100.2" vType="car" speedFactor="0.94" vaporized=""/>
    <tripinfo id="flow_route_120_duration_20250327_2100.4" depart="26.00" departLane="799091563#0_0" departPos="78.67" departSpeed="0.00" departDelay="2.00" arrival="154.00" arrivalLane="138000492#0_1" arrivalPos="28.19" arrivalSpeed="11.66" duration="128.00" routeLength="547.68" waitingTime="52.00" waitingCount="1" stopTime="0.00" timeLoss="92.26" rerouteNo="0" devices="tripinfo_flow_route_120_duration_20250327_2100.4" vType="car" speedFactor="0.93" vaporized=""/>
    <tripinfo id="flow_route_121_duration_20250327_2100.8" depart="51.00" departLane="799091563#0_0" departPos="183.29" departSpeed="0.00" departDelay="3.00" arrival="157.00" arrivalLane="134194079#0_0" arrivalPos="169.15" arrivalSpeed="16.53" duration="106.00" routeLength="375.02" waitingTime="49.00" waitingCount="1" stopTime="0.00" timeLoss="82.22" rerouteNo="0" devices="tripinfo_flow_route_121_duration_20250327_2100.8" vType="car" speedFactor="1.10" vaporized=""/>
    <tripinfo id="flow_route_121_duration_20250327_2100.9" depart="55.00" departLane="799091563#0_0" departPos="250.09" departSpeed="0.00" departDelay="1.00" arrival="159.00" arrivalLane="134194079#0_0" arrivalPos="235.41" arrivalSpeed="16.18" duration="104.00" routeLength="374.48" waitingTime="49.00" waitingCount="1" stopTime="0.00" timeLoss="79.67" rerouteNo="0" devices="tripinfo_flow_route_121_duration_20250327_2100.9" vType="car" speedFactor="1.02" vaporized=""/>
    <tripinfo id="flow_route_120_duration_20250327_2100.7" depart="42.00" departLane="799091563#0_0" departPos="16.17" departSpeed="0.00" departDelay="0.00" arrival="160.00" arrivalLane="138000492#0_1" arrivalPos="59.40" arrivalSpeed="13.65" duration="118.00" routeLength="641.39" waitingTime="42.00" waitingCount="1" stopTime="0.00" timeLoss="78.53" rerouteNo="0" devices="tripinfo_flow_route_120_duration_20250327_2100.7" vType="car" speedFactor="1.00" vaporized=""/>
    <tripinfo id="flow_route_120_duration_20250327_2100.5" depart="31.00" departLane="799091563#0_0" departPos="138.66" departSpeed="0.00" departDelay="1.00" arrival="164.00" arrivalLane="138000492#0_2" arrivalPos="178.11" arrivalSpeed="15.94" duration="133.00" routeLength="637.60" waitingTime="53.00" waitingCount="1" stopTime="0.00" timeLoss="94.15" rerouteNo="0" devices="tripinfo_flow_route_120_duration_20250327_2100.5" vType="car" speedFactor="0.99" vaporized=""/>
    <tripinfo id="flow_route_121_duration_20250327_2100.7" depart="46.00" departLane="799091563#0_0" departPos="105.29" departSpeed="0.00" departDelay="4.00" arrival="167.00" arrivalLane="134194079#0_0" arrivalPos="260.21" arrivalSpeed="14.61" duration="121.00" routeLength="544.08" waitingTime="44.00" waitingCount="1" stopTime="0.00" timeLoss="82.96" rerouteNo="0" devices="tripinfo_flow_route_121_duration_20250327_2100.7" vType="car" speedFactor="0.90" vaporized=""/>
    <tripinfo id="flow_route_120_duration_20250327_2100.8" depart="48.00" departLane="799091563#0_0" departPos="325.25" departSpeed="0.00" departDelay="0.00" arrival="167.00" arrivalLane="138000492#0_1" arrivalPos="249.43" arrivalSpeed="16.57" duration="119.00" routeLength="522.33" waitingTime="54.00" waitingCount="1" stopTime="0.00" timeLoss="86.74" rerouteNo="0" devices="tripinfo_flow_route_120_duration_20250327_2100.8" vType="car" speedFactor="1.02" vaporized=""/>
    <tripinfo id="flow_route_120_duration_20250327_2100.3" depart="18.00" departLane="799091563#0_0" departPos="116.87" departSpeed="0.00" departDelay="0.00" arrival="168.00" arrivalLane="138000492#0_0" arrivalPos="291.06" arrivalSpeed="16.15" duration="150.00" routeLength="772.34" waitingTime="66.00" waitingCount="1" stopTime="0.00" timeLoss="101.76" rerouteNo="0" devices="tripinfo_flow_route_120_duration_20250327_2100.3" vType="car" speedFactor="0.97" vaporized=""/>
    <tripinfo id="flow_route_120_duration_20250327_2100.9" depart="54.00" departLane="799091563#0_0" departPos="178.58" departSpeed="0.00" departDelay="0.00" arrival="168.00" arrivalLane="138000492#0_2" arrivalPos="145.54" arrivalSpeed="16.09" duration="114.00" routeLength="565.12" waitingTime="41.00" waitingCount="1" stopTime="0.00" timeLoss="79.54" rerouteNo="0" devices="tripinfo_flow_route_120_duration_20250327_2100.9" vType="car" speedFactor="1.14" vaporized=""/>
    <tripinfo id="flow_route_120_duration_20250327_2100.6" depart="36.00" departLane="799091563#0_0" departPos="217.83" departSpeed="0.00" departDelay="0.00" arrival="170.00" arrivalLane="138000492#0_2" arrivalPos="299.11" arrivalSpeed="15.58" duration="134.00" routeLength="679.44" waitingTime="53.00" waitingCount="1" stopTime="0.00" timeLoss="91.23" rerouteNo="0" devices="tripinfo_flow_route_120_duration_20250327_2100.6" vType="car" speedFactor="0.96" vaporized=""/>
    <tripinfo id="flow_route_120_duration_20250327_2100.1" depart="6.00" departLane="799091563#0_0" departPos="206.69" departSpeed="0.00" departDelay="0.00" arrival="172.00" arrivalLane="138000492#0_2" arrivalPos="395.19" arrivalSpeed="16.40" duration="166.00" routeLength="786.66" waitingTime="82.00" waitingCount="1" stopTime="0.00" timeLoss="117.54" rerouteNo="0" devices="tripinfo_flow_route_120_duration_20250327_2100.1" vType="car" speedFactor="1.03" vaporized=""/>
    <tripinfo id="flow_route_117_duration_20250327_2100.3" depart="37.00" departLane="177211987#1_0" departPos="43.37" departSpeed="0.00" departDelay="1.00" arrival="227.00" arrivalLane="138000492#0_1" arrivalPos="178.90" arrivalSpeed="16.29" duration="190.00" routeLength="635.79" waitingTime="122.00" waitingCount="1" stopTime="0.00" timeLoss="151.42" rerouteNo="0" devices="tripinfo_flow_route_117_duration_20250327_2100.3" vType="car" speedFactor="1.03" vaporized=""/>
    <tripinfo id="flow_route_117_duration_20250327_2100.4" depart="48.00" departLane="177211987#1_0" departPos="15.06" departSpeed="0.00" departDelay="0.00" arrival="234.00" arrivalLane="138000492#0_2" arrivalPos="286.53" arrivalSpeed="16.33" duration="186.00" routeLength="771.73" waitingTime="112.00" waitingCount="1" stopTime="0.00" timeLoss="139.32" rerouteNo="0" devices="tripinfo_flow_route_117_duration_20250327_2100.4" vType="car" speedFactor="1.17" vaporized=""/>
</tripinfos>
