<?xml version="1.0" encoding="UTF-8"?>

<!-- generated on 2025-05-06 21:01:16 by Eclipse SUMO sumo Version 1.20.0
<configuration xmlns:xsi="http://www.w3.org/2001/XMLSchema-instance" xsi:noNamespaceSchemaLocation="http://sumo.dlr.de/xsd/sumoConfiguration.xsd">

    <input>
        <net-file value="osm.net.xml"/>
        <route-files value="xml/routes_sac2_cluster_11644940323_11644940324_3828703845.rou.xml"/>
    </input>

    <output>
        <tripinfo-output value="xml/tripinfo_9781.xml"/>
    </output>

    <traci_server>
        <remote-port value="51493"/>
    </traci_server>

</configuration>
-->

<tripinfos xmlns:xsi="http://www.w3.org/2001/XMLSchema-instance" xsi:noNamespaceSchemaLocation="http://sumo.dlr.de/xsd/tripinfo_file.xsd">
    <tripinfo id="flow_route_3_duration_20250327_2210.0" depart="0.00" departLane="1318793173#0_0" departPos="80.53" departSpeed="0.00" departDelay="0.00" arrival="19.00" arrivalLane="291974733#0_1" arrivalPos="66.76" arrivalSpeed="13.99" duration="19.00" routeLength="123.20" waitingTime="0.00" waitingCount="0" stopTime="0.00" timeLoss="10.27" rerouteNo="0" devices="tripinfo_flow_route_3_duration_20250327_2210.0" vType="car" speedFactor="0.94" vaporized=""/>
    <tripinfo id="flow_route_2_duration_20250327_2210.0" depart="0.00" departLane="1318793173#0_0" departPos="58.93" departSpeed="0.00" departDelay="0.00" arrival="20.00" arrivalLane="189835257_0" arrivalPos="46.92" arrivalSpeed="15.92" duration="20.00" routeLength="167.93" waitingTime="0.00" waitingCount="0" stopTime="0.00" timeLoss="9.23" rerouteNo="0" devices="tripinfo_flow_route_2_duration_20250327_2210.0" vType="car" speedFactor="1.06" vaporized=""/>
    <tripinfo id="flow_route_16_duration_20250327_2210.0" depart="0.00" departLane="137406408#0_0" departPos="52.27" departSpeed="0.00" departDelay="0.00" arrival="20.00" arrivalLane="133126040#0_0" arrivalPos="80.39" arrivalSpeed="14.47" duration="20.00" routeLength="149.31" waitingTime="0.00" waitingCount="0" stopTime="0.00" timeLoss="10.92" rerouteNo="0" devices="tripinfo_flow_route_16_duration_20250327_2210.0" vType="car" speedFactor="1.05" vaporized=""/>
    <tripinfo id="flow_route_17_duration_20250327_2210.0" depart="0.00" departLane="137406408#0_0" departPos="24.41" departSpeed="0.00" departDelay="0.00" arrival="22.00" arrivalLane="1254771874#0_0" arrivalPos="63.27" arrivalSpeed="16.22" duration="22.00" routeLength="182.06" waitingTime="0.00" waitingCount="0" stopTime="0.00" timeLoss="9.94" rerouteNo="0" devices="tripinfo_flow_route_17_duration_20250327_2210.0" vType="car" speedFactor="0.89" vaporized=""/>
    <tripinfo id="flow_route_9_duration_20250327_2210.0" depart="0.00" departLane="1318793173#0_0" departPos="0.65" departSpeed="0.00" departDelay="0.00" arrival="24.00" arrivalLane="1254771874#0_1" arrivalPos="11.63" arrivalSpeed="11.06" duration="24.00" routeLength="169.44" waitingTime="0.00" waitingCount="0" stopTime="0.00" timeLoss="12.41" rerouteNo="0" devices="tripinfo_flow_route_9_duration_20250327_2210.0" vType="car" speedFactor="1.01" vaporized=""/>
    <tripinfo id="flow_route_2_duration_20250327_2210.1" depart="8.00" departLane="1318793173#0_0" departPos="34.79" departSpeed="0.00" departDelay="0.50" arrival="33.00" arrivalLane="189835257_0" arrivalPos="46.11" arrivalSpeed="15.28" duration="25.00" routeLength="191.25" waitingTime="0.00" waitingCount="0" stopTime="0.00" timeLoss="11.61" rerouteNo="0" devices="tripinfo_flow_route_2_duration_20250327_2210.1" vType="car" speedFactor="0.94" vaporized=""/>
    <tripinfo id="flow_route_2_duration_20250327_2210.3" depart="23.00" departLane="1318793173#0_0" departPos="95.93" departSpeed="0.00" departDelay="0.50" arrival="41.00" arrivalLane="189835257_0" arrivalPos="43.41" arrivalSpeed="13.94" duration="18.00" routeLength="127.42" waitingTime="0.00" waitingCount="0" stopTime="0.00" timeLoss="9.59" rerouteNo="0" devices="tripinfo_flow_route_2_duration_20250327_2210.3" vType="car" speedFactor="1.05" vaporized=""/>
    <tripinfo id="flow_route_2_duration_20250327_2210.2" depart="15.00" departLane="1318793173#0_0" departPos="4.99" departSpeed="0.00" departDelay="0.00" arrival="42.00" arrivalLane="189835257_0" arrivalPos="36.00" arrivalSpeed="13.82" duration="27.00" routeLength="210.95" waitingTime="0.00" waitingCount="0" stopTime="0.00" timeLoss="11.33" rerouteNo="0" devices="tripinfo_flow_route_2_duration_20250327_2210.2" vType="car" speedFactor="0.86" vaporized=""/>
    <tripinfo id="flow_route_9_duration_20250327_2210.1" depart="20.00" departLane="1318793173#0_0" departPos="68.46" departSpeed="0.00" departDelay="0.00" arrival="45.00" arrivalLane="1254771874#0_1" arrivalPos="131.12" arrivalSpeed="16.18" duration="25.00" routeLength="221.13" waitingTime="0.00" waitingCount="0" stopTime="0.00" timeLoss="10.02" rerouteNo="0" devices="tripinfo_flow_route_9_duration_20250327_2210.1" vType="car" speedFactor="1.09" vaporized=""/>
    <tripinfo id="flow_route_2_duration_20250327_2210.5" depart="38.00" departLane="1318793173#0_0" departPos="103.38" departSpeed="0.00" departDelay="0.50" arrival="52.00" arrivalLane="189835257_0" arrivalPos="8.38" arrivalSpeed="11.64" duration="14.00" routeLength="84.94" waitingTime="0.00" waitingCount="0" stopTime="0.00" timeLoss="7.46" rerouteNo="0" devices="tripinfo_flow_route_2_duration_20250327_2210.5" vType="car" speedFactor="0.88" vaporized=""/>
    <tripinfo id="flow_route_2_duration_20250327_2210.4" depart="30.00" departLane="1318793173#0_0" departPos="3.50" departSpeed="0.00" departDelay="0.00" arrival="55.00" arrivalLane="189835257_0" arrivalPos="20.88" arrivalSpeed="13.07" duration="25.00" routeLength="197.32" waitingTime="0.00" waitingCount="0" stopTime="0.00" timeLoss="12.53" rerouteNo="0" devices="tripinfo_flow_route_2_duration_20250327_2210.4" vType="car" speedFactor="1.12" vaporized=""/>
    <tripinfo id="flow_route_9_duration_20250327_2210.2" depart="40.00" departLane="1318793173#0_0" departPos="35.80" departSpeed="0.00" departDelay="0.00" arrival="61.00" arrivalLane="1254771874#0_1" arrivalPos="7.62" arrivalSpeed="10.72" duration="21.00" routeLength="130.29" waitingTime="0.00" waitingCount="0" stopTime="0.00" timeLoss="11.07" rerouteNo="0" devices="tripinfo_flow_route_9_duration_20250327_2210.2" vType="car" speedFactor="0.94" vaporized=""/>
    <tripinfo id="flow_route_2_duration_20250327_2210.6" depart="45.00" departLane="1318793173#0_0" departPos="44.45" departSpeed="0.00" departDelay="0.00" arrival="65.00" arrivalLane="189835257_0" arrivalPos="6.60" arrivalSpeed="14.44" duration="20.00" routeLength="142.09" waitingTime="0.00" waitingCount="0" stopTime="0.00" timeLoss="10.29" rerouteNo="0" devices="tripinfo_flow_route_2_duration_20250327_2210.6" vType="car" speedFactor="1.16" vaporized=""/>
    <tripinfo id="flow_route_13_duration_20250327_2210.0" depart="0.00" departLane="1252820503#0_0" departPos="99.64" departSpeed="0.00" departDelay="0.00" arrival="71.00" arrivalLane="291974733#0_0" arrivalPos="46.05" arrivalSpeed="9.67" duration="71.00" routeLength="103.57" waitingTime="47.00" waitingCount="1" stopTime="0.00" timeLoss="63.62" rerouteNo="0" devices="tripinfo_flow_route_13_duration_20250327_2210.0" vType="car" speedFactor="1.08" vaporized=""/>
    <tripinfo id="flow_route_15_duration_20250327_2210.0" depart="1.00" departLane="1252820503#0_0" departPos="8.92" departSpeed="0.00" departDelay="1.00" arrival="72.00" arrivalLane="133126040#0_1" arrivalPos="4.72" arrivalSpeed="8.03" duration="71.00" routeLength="174.98" waitingTime="38.00" waitingCount="1" stopTime="0.00" timeLoss="59.41" rerouteNo="0" devices="tripinfo_flow_route_15_duration_20250327_2210.0" vType="car" speedFactor="0.83" vaporized=""/>
    <tripinfo id="flow_route_13_duration_20250327_2210.1" depart="30.00" departLane="1252820503#0_0" departPos="44.68" departSpeed="0.00" departDelay="0.00" arrival="74.00" arrivalLane="291974733#0_0" arrivalPos="51.00" arrivalSpeed="10.18" duration="44.00" routeLength="163.49" waitingTime="13.00" waitingCount="1" stopTime="0.00" timeLoss="32.66" rerouteNo="0" devices="tripinfo_flow_route_13_duration_20250327_2210.1" vType="car" speedFactor="0.99" vaporized=""/>
    <tripinfo id="flow_route_2_duration_20250327_2210.7" depart="53.00" departLane="1318793173#0_0" departPos="28.54" departSpeed="0.00" departDelay="0.50" arrival="78.00" arrivalLane="189835257_0" arrivalPos="50.79" arrivalSpeed="16.26" duration="25.00" routeLength="202.19" waitingTime="0.00" waitingCount="0" stopTime="0.00" timeLoss="11.50" rerouteNo="0" devices="tripinfo_flow_route_2_duration_20250327_2210.7" vType="car" speedFactor="1.02" vaporized=""/>
    <tripinfo id="flow_route_14_duration_20250327_2210.0" depart="0.00" departLane="1252820503#0_0" departPos="69.02" departSpeed="0.00" departDelay="0.00" arrival="84.00" arrivalLane="1254771874#0_0" arrivalPos="150.80" arrivalSpeed="16.12" duration="84.00" routeLength="291.67" waitingTime="43.00" waitingCount="1" stopTime="0.00" timeLoss="65.56" rerouteNo="0" devices="tripinfo_flow_route_14_duration_20250327_2210.0" vType="car" speedFactor="1.03" vaporized=""/>
    <tripinfo id="flow_route_16_duration_20250327_2210.1" depart="30.00" departLane="137406408#0_0" departPos="70.56" departSpeed="0.00" departDelay="0.00" arrival="133.00" arrivalLane="133126040#0_1" arrivalPos="25.60" arrivalSpeed="8.91" duration="103.00" routeLength="76.23" waitingTime="82.00" waitingCount="1" stopTime="0.00" timeLoss="97.76" rerouteNo="0" devices="tripinfo_flow_route_16_duration_20250327_2210.1" vType="car" speedFactor="0.93" vaporized=""/>
    <tripinfo id="flow_route_17_duration_20250327_2210.1" depart="20.00" departLane="137406408#0_0" departPos="86.67" departSpeed="0.00" departDelay="0.00" arrival="139.00" arrivalLane="1254771874#0_0" arrivalPos="78.49" arrivalSpeed="14.03" duration="119.00" routeLength="135.03" waitingTime="98.00" waitingCount="1" stopTime="0.00" timeLoss="110.56" rerouteNo="0" devices="tripinfo_flow_route_17_duration_20250327_2210.1" vType="car" speedFactor="1.03" vaporized=""/>
    <tripinfo id="flow_route_17_duration_20250327_2210.2" depart="40.00" departLane="137406408#0_0" departPos="11.94" departSpeed="0.00" departDelay="0.00" arrival="148.00" arrivalLane="1254771874#0_0" arrivalPos="175.12" arrivalSpeed="16.25" duration="108.00" routeLength="306.39" waitingTime="66.00" waitingCount="1" stopTime="0.00" timeLoss="87.91" rerouteNo="0" devices="tripinfo_flow_route_17_duration_20250327_2210.2" vType="car" speedFactor="0.94" vaporized=""/>
</tripinfos>
