<?xml version="1.0" encoding="UTF-8"?>

<!-- generated on 2025-05-06 21:09:03 by Eclipse SUMO sumo Version 1.20.0
<configuration xmlns:xsi="http://www.w3.org/2001/XMLSchema-instance" xsi:noNamespaceSchemaLocation="http://sumo.dlr.de/xsd/sumoConfiguration.xsd">

    <input>
        <net-file value="osm.net.xml"/>
        <route-files value="xml/route_rl_cluster_356722183_3828703848_8.rou.xml"/>
    </input>

    <output>
        <tripinfo-output value="xml/tripinfo_rl_cluster_356722183_3828703848_8.xml"/>
    </output>

    <traci_server>
        <remote-port value="52247"/>
    </traci_server>

</configuration>
-->

<tripinfos xmlns:xsi="http://www.w3.org/2001/XMLSchema-instance" xsi:noNamespaceSchemaLocation="http://sumo.dlr.de/xsd/tripinfo_file.xsd">
    <tripinfo id="flow_route_18_duration_20250327_1920.0" depart="0.00" departLane="133126040#0_0" departPos="80.59" departSpeed="0.00" departDelay="0.00" arrival="12.00" arrivalLane="1318893695#0_0" arrivalPos="9.11" arrivalSpeed="9.51" duration="12.00" routeLength="59.37" waitingTime="0.00" waitingCount="0" stopTime="0.00" timeLoss="8.38" rerouteNo="0" devices="tripinfo_flow_route_18_duration_20250327_1920.0" vType="car" speedFactor="1.01" vaporized=""/>
    <tripinfo id="flow_route_1_duration_20250327_1920.0" depart="4.00" departLane="1318793176#1_0" departPos="0.92" departSpeed="0.00" departDelay="4.00" arrival="28.00" arrivalLane="1318793173#0_1" arrivalPos="77.00" arrivalSpeed="15.24" duration="24.00" routeLength="199.98" waitingTime="0.00" waitingCount="0" stopTime="0.00" timeLoss="10.58" rerouteNo="0" devices="tripinfo_flow_route_1_duration_20250327_1920.0" vType="car" speedFactor="0.94" vaporized=""/>
    <tripinfo id="flow_route_0_duration_20250327_1920.0" depart="0.00" departLane="1318793176#1_0" departPos="2.64" departSpeed="0.00" departDelay="0.00" arrival="36.00" arrivalLane="133126031#0_0" arrivalPos="296.30" arrivalSpeed="16.39" duration="36.00" routeLength="414.08" waitingTime="0.00" waitingCount="0" stopTime="0.00" timeLoss="10.37" rerouteNo="0" devices="tripinfo_flow_route_0_duration_20250327_1920.0" vType="car" speedFactor="1.06" vaporized=""/>
    <tripinfo id="flow_route_0_duration_20250327_1920.1" depart="10.00" departLane="1318793176#1_0" departPos="4.77" departSpeed="0.00" departDelay="9.89" arrival="39.00" arrivalLane="133126031#0_0" arrivalPos="150.35" arrivalSpeed="16.20" duration="29.00" routeLength="266.00" waitingTime="0.00" waitingCount="0" stopTime="0.00" timeLoss="10.96" rerouteNo="0" devices="tripinfo_flow_route_0_duration_20250327_1920.1" vType="car" speedFactor="0.89" vaporized=""/>
    <tripinfo id="flow_route_19_duration_20250327_1920.3" depart="10.00" departLane="133126040#0_0" departPos="48.09" departSpeed="0.00" departDelay="0.53" arrival="42.00" arrivalLane="133126031#0_1" arrivalPos="69.01" arrivalSpeed="12.46" duration="32.00" routeLength="149.79" waitingTime="0.00" waitingCount="0" stopTime="0.00" timeLoss="21.78" rerouteNo="0" devices="tripinfo_flow_route_19_duration_20250327_1920.3" vType="car" speedFactor="1.16" vaporized=""/>
    <tripinfo id="flow_route_0_duration_20250327_1920.4" depart="24.00" departLane="1318793176#1_0" departPos="2.03" departSpeed="0.00" departDelay="23.54" arrival="44.00" arrivalLane="133126031#0_0" arrivalPos="20.04" arrivalSpeed="14.48" duration="20.00" routeLength="138.43" waitingTime="0.00" waitingCount="0" stopTime="0.00" timeLoss="10.39" rerouteNo="0" devices="tripinfo_flow_route_0_duration_20250327_1920.4" vType="car" speedFactor="1.09" vaporized=""/>
    <tripinfo id="flow_route_19_duration_20250327_1920.0" depart="0.00" departLane="133126040#0_0" departPos="0.65" departSpeed="0.00" departDelay="0.00" arrival="45.00" arrivalLane="133126031#0_1" arrivalPos="163.43" arrivalSpeed="16.43" duration="45.00" routeLength="291.65" waitingTime="3.00" waitingCount="1" stopTime="0.00" timeLoss="25.50" rerouteNo="0" devices="tripinfo_flow_route_19_duration_20250327_1920.0" vType="car" speedFactor="1.08" vaporized=""/>
    <tripinfo id="flow_route_0_duration_20250327_1920.2" depart="14.00" departLane="1318793176#1_0" departPos="0.14" departSpeed="0.00" departDelay="13.77" arrival="45.00" arrivalLane="133126031#0_0" arrivalPos="188.31" arrivalSpeed="16.12" duration="31.00" routeLength="308.59" waitingTime="0.00" waitingCount="0" stopTime="0.00" timeLoss="10.86" rerouteNo="0" devices="tripinfo_flow_route_0_duration_20250327_1920.2" vType="car" speedFactor="0.94" vaporized=""/>
    <tripinfo id="flow_route_0_duration_20250327_1920.3" depart="20.00" departLane="1318793176#1_0" departPos="4.52" departSpeed="0.00" departDelay="19.66" arrival="45.00" arrivalLane="133126031#0_0" arrivalPos="87.96" arrivalSpeed="15.53" duration="25.00" routeLength="203.87" waitingTime="0.00" waitingCount="0" stopTime="0.00" timeLoss="10.34" rerouteNo="0" devices="tripinfo_flow_route_0_duration_20250327_1920.3" vType="car" speedFactor="0.86" vaporized=""/>
    <tripinfo id="flow_route_19_duration_20250327_1920.2" depart="8.00" departLane="133126040#0_0" departPos="59.41" departSpeed="0.00" departDelay="1.69" arrival="46.00" arrivalLane="133126031#0_1" arrivalPos="159.63" arrivalSpeed="16.58" duration="38.00" routeLength="229.10" waitingTime="2.00" waitingCount="1" stopTime="0.00" timeLoss="22.69" rerouteNo="0" devices="tripinfo_flow_route_19_duration_20250327_1920.2" vType="car" speedFactor="1.10" vaporized=""/>
    <tripinfo id="flow_route_19_duration_20250327_1920.4" depart="13.00" departLane="133126040#0_0" departPos="24.00" departSpeed="0.00" departDelay="0.37" arrival="53.00" arrivalLane="133126031#0_1" arrivalPos="76.60" arrivalSpeed="12.61" duration="40.00" routeLength="181.47" waitingTime="0.00" waitingCount="0" stopTime="0.00" timeLoss="27.51" rerouteNo="0" devices="tripinfo_flow_route_19_duration_20250327_1920.4" vType="car" speedFactor="0.94" vaporized=""/>
    <tripinfo id="flow_route_19_duration_20250327_1920.5" depart="16.00" departLane="133126040#0_0" departPos="83.75" departSpeed="0.00" departDelay="0.22" arrival="55.00" arrivalLane="133126031#0_1" arrivalPos="245.87" arrivalSpeed="16.49" duration="39.00" routeLength="290.99" waitingTime="2.00" waitingCount="2" stopTime="0.00" timeLoss="20.43" rerouteNo="0" devices="tripinfo_flow_route_19_duration_20250327_1920.5" vType="car" speedFactor="1.24" vaporized=""/>
    <tripinfo id="flow_route_19_duration_20250327_1920.10" depart="32.00" departLane="133126040#0_0" departPos="50.12" departSpeed="0.00" departDelay="0.43" arrival="56.00" arrivalLane="133126031#0_1" arrivalPos="26.40" arrivalSpeed="9.54" duration="24.00" routeLength="105.16" waitingTime="3.00" waitingCount="1" stopTime="0.00" timeLoss="15.16" rerouteNo="0" devices="tripinfo_flow_route_19_duration_20250327_1920.10" vType="car" speedFactor="0.88" vaporized=""/>
    <tripinfo id="flow_route_0_duration_20250327_1920.6" depart="34.00" departLane="1318793176#1_0" departPos="3.20" departSpeed="0.00" departDelay="33.31" arrival="58.00" arrivalLane="133126031#0_0" arrivalPos="107.07" arrivalSpeed="16.38" duration="24.00" routeLength="224.29" waitingTime="0.00" waitingCount="0" stopTime="0.00" timeLoss="10.15" rerouteNo="0" devices="tripinfo_flow_route_0_duration_20250327_1920.6" vType="car" speedFactor="1.05" vaporized=""/>
    <tripinfo id="flow_route_19_duration_20250327_1920.8" depart="26.00" departLane="133126040#0_0" departPos="55.08" departSpeed="0.00" departDelay="0.74" arrival="59.00" arrivalLane="133126031#0_1" arrivalPos="132.61" arrivalSpeed="16.37" duration="33.00" routeLength="206.39" waitingTime="0.00" waitingCount="0" stopTime="0.00" timeLoss="18.69" rerouteNo="0" devices="tripinfo_flow_route_19_duration_20250327_1920.8" vType="car" speedFactor="1.12" vaporized=""/>
    <tripinfo id="flow_route_0_duration_20250327_1920.8" depart="44.00" departLane="1318793176#1_0" departPos="2.94" departSpeed="0.00" departDelay="43.08" arrival="63.00" arrivalLane="133126031#0_0" arrivalPos="15.36" arrivalSpeed="12.03" duration="19.00" routeLength="132.84" waitingTime="0.00" waitingCount="0" stopTime="0.00" timeLoss="10.00" rerouteNo="0" devices="tripinfo_flow_route_0_duration_20250327_1920.8" vType="car" speedFactor="0.99" vaporized=""/>
    <tripinfo id="flow_route_0_duration_20250327_1920.5" depart="28.00" departLane="1318793176#1_0" departPos="0.19" departSpeed="0.00" departDelay="27.43" arrival="64.00" arrivalLane="133126031#0_0" arrivalPos="291.18" arrivalSpeed="16.48" duration="36.00" routeLength="411.40" waitingTime="0.00" waitingCount="0" stopTime="0.00" timeLoss="10.63" rerouteNo="0" devices="tripinfo_flow_route_0_duration_20250327_1920.5" vType="car" speedFactor="1.03" vaporized=""/>
    <tripinfo id="flow_route_19_duration_20250327_1920.1" depart="4.00" departLane="133126040#0_0" departPos="5.07" departSpeed="0.00" departDelay="0.84" arrival="64.00" arrivalLane="133126031#0_1" arrivalPos="329.98" arrivalSpeed="16.42" duration="60.00" routeLength="453.78" waitingTime="0.00" waitingCount="0" stopTime="0.00" timeLoss="31.56" rerouteNo="0" devices="tripinfo_flow_route_19_duration_20250327_1920.1" vType="car" speedFactor="1.14" vaporized=""/>
    <tripinfo id="flow_route_19_duration_20250327_1920.6" depart="19.00" departLane="133126040#0_0" departPos="64.47" departSpeed="0.00" departDelay="0.06" arrival="64.00" arrivalLane="133126031#0_1" arrivalPos="296.75" arrivalSpeed="16.38" duration="45.00" routeLength="361.16" waitingTime="1.00" waitingCount="1" stopTime="0.00" timeLoss="21.33" rerouteNo="0" devices="tripinfo_flow_route_19_duration_20250327_1920.6" vType="car" speedFactor="0.96" vaporized=""/>
    <tripinfo id="flow_route_19_duration_20250327_1920.7" depart="23.00" departLane="133126040#0_0" departPos="8.92" departSpeed="0.00" departDelay="0.90" arrival="66.00" arrivalLane="133126031#0_1" arrivalPos="181.00" arrivalSpeed="16.18" duration="43.00" routeLength="300.95" waitingTime="0.00" waitingCount="0" stopTime="0.00" timeLoss="21.21" rerouteNo="0" devices="tripinfo_flow_route_19_duration_20250327_1920.7" vType="car" speedFactor="0.82" vaporized=""/>
    <tripinfo id="flow_route_19_duration_20250327_1920.9" depart="29.00" departLane="133126040#0_0" departPos="3.51" departSpeed="0.00" departDelay="0.59" arrival="68.00" arrivalLane="133126031#0_1" arrivalPos="53.06" arrivalSpeed="11.27" duration="39.00" routeLength="178.42" waitingTime="1.00" waitingCount="1" stopTime="0.00" timeLoss="26.23" rerouteNo="0" devices="tripinfo_flow_route_19_duration_20250327_1920.9" vType="car" speedFactor="0.96" vaporized=""/>
    <tripinfo id="flow_route_0_duration_20250327_1920.7" depart="39.00" departLane="1318793176#1_0" departPos="0.64" departSpeed="0.00" departDelay="38.20" arrival="70.00" arrivalLane="133126031#0_0" arrivalPos="227.33" arrivalSpeed="16.51" duration="31.00" routeLength="347.11" waitingTime="0.00" waitingCount="0" stopTime="0.00" timeLoss="9.58" rerouteNo="0" devices="tripinfo_flow_route_0_duration_20250327_1920.7" vType="car" speedFactor="1.12" vaporized=""/>
    <tripinfo id="flow_route_19_duration_20250327_1920.11" depart="35.00" departLane="133126040#0_0" departPos="2.71" departSpeed="0.00" departDelay="0.27" arrival="81.00" arrivalLane="133126031#0_1" arrivalPos="111.96" arrivalSpeed="14.94" duration="46.00" routeLength="238.11" waitingTime="3.00" waitingCount="1" stopTime="0.00" timeLoss="30.35" rerouteNo="0" devices="tripinfo_flow_route_19_duration_20250327_1920.11" vType="car" speedFactor="1.08" vaporized=""/>
    <tripinfo id="flow_route_19_duration_20250327_1920.12" depart="38.00" departLane="133126040#0_0" departPos="14.29" departSpeed="0.00" departDelay="0.12" arrival="82.00" arrivalLane="133126031#0_1" arrivalPos="175.68" arrivalSpeed="16.56" duration="44.00" routeLength="290.26" waitingTime="0.00" waitingCount="0" stopTime="0.00" timeLoss="25.03" rerouteNo="0" devices="tripinfo_flow_route_19_duration_20250327_1920.12" vType="car" speedFactor="1.02" vaporized=""/>
    <tripinfo id="flow_route_19_duration_20250327_1920.14" depart="45.00" departLane="133126040#0_0" departPos="100.15" departSpeed="0.00" departDelay="0.80" arrival="82.00" arrivalLane="133126031#0_0" arrivalPos="288.49" arrivalSpeed="16.32" duration="37.00" routeLength="317.21" waitingTime="2.00" waitingCount="2" stopTime="0.00" timeLoss="15.69" rerouteNo="0" devices="tripinfo_flow_route_19_duration_20250327_1920.14" vType="car" speedFactor="0.93" vaporized=""/>
    <tripinfo id="flow_route_19_duration_20250327_1920.16" depart="51.00" departLane="133126040#0_0" departPos="40.84" departSpeed="0.00" departDelay="0.49" arrival="82.00" arrivalLane="133126031#0_1" arrivalPos="96.80" arrivalSpeed="14.15" duration="31.00" routeLength="184.82" waitingTime="0.00" waitingCount="0" stopTime="0.00" timeLoss="18.09" rerouteNo="0" devices="tripinfo_flow_route_19_duration_20250327_1920.16" vType="car" speedFactor="1.01" vaporized=""/>
    <tripinfo id="flow_route_19_duration_20250327_1920.13" depart="42.00" departLane="133126040#0_0" departPos="48.50" departSpeed="0.00" departDelay="0.96" arrival="83.00" arrivalLane="133126031#0_0" arrivalPos="204.84" arrivalSpeed="16.43" duration="41.00" routeLength="285.20" waitingTime="0.00" waitingCount="0" stopTime="0.00" timeLoss="22.02" rerouteNo="0" devices="tripinfo_flow_route_19_duration_20250327_1920.13" vType="car" speedFactor="1.01" vaporized=""/>
    <tripinfo id="flow_route_19_duration_20250327_1920.15" depart="48.00" departLane="133126040#0_0" departPos="80.76" departSpeed="0.00" departDelay="0.65" arrival="84.00" arrivalLane="133126031#0_0" arrivalPos="284.92" arrivalSpeed="16.13" duration="36.00" routeLength="333.03" waitingTime="0.00" waitingCount="0" stopTime="0.00" timeLoss="14.87" rerouteNo="0" devices="tripinfo_flow_route_19_duration_20250327_1920.15" vType="car" speedFactor="1.14" vaporized=""/>
    <tripinfo id="flow_route_48_duration_20250327_1920.0" depart="4.00" departLane="380351865#0_0" departPos="9.68" departSpeed="0.00" departDelay="4.00" arrival="85.00" arrivalLane="133126031#0_0" arrivalPos="14.50" arrivalSpeed="8.10" duration="81.00" routeLength="171.99" waitingTime="48.00" waitingCount="1" stopTime="0.00" timeLoss="64.02" rerouteNo="0" devices="tripinfo_flow_route_48_duration_20250327_1920.0" vType="car" speedFactor="0.83" vaporized=""/>
    <tripinfo id="flow_route_47_duration_20250327_1920.0" depart="0.00" departLane="380351865#0_0" departPos="11.49" departSpeed="0.00" departDelay="0.00" arrival="89.00" arrivalLane="1318793173#0_1" arrivalPos="63.76" arrivalSpeed="11.10" duration="89.00" routeLength="213.71" waitingTime="54.00" waitingCount="1" stopTime="0.00" timeLoss="71.99" rerouteNo="0" devices="tripinfo_flow_route_47_duration_20250327_1920.0" vType="car" speedFactor="1.03" vaporized=""/>
    <tripinfo id="flow_route_48_duration_20250327_1920.2" depart="20.00" departLane="380351865#0_0" departPos="16.64" departSpeed="0.00" departDelay="18.44" arrival="91.00" arrivalLane="133126031#0_0" arrivalPos="41.70" arrivalSpeed="11.29" duration="71.00" routeLength="192.23" waitingTime="38.00" waitingCount="1" stopTime="0.00" timeLoss="57.26" rerouteNo="0" devices="tripinfo_flow_route_48_duration_20250327_1920.2" vType="car" speedFactor="1.15" vaporized=""/>
    <tripinfo id="flow_route_47_duration_20250327_1920.1" depart="20.00" departLane="380351865#0_0" departPos="1.03" departSpeed="0.00" departDelay="17.00" arrival="95.00" arrivalLane="1318793173#0_1" arrivalPos="103.74" arrivalSpeed="15.78" duration="75.00" routeLength="264.15" waitingTime="34.00" waitingCount="1" stopTime="0.00" timeLoss="54.47" rerouteNo="0" devices="tripinfo_flow_route_47_duration_20250327_1920.1" vType="car" speedFactor="1.04" vaporized=""/>
    <tripinfo id="flow_route_49_duration_20250327_1920.0" depart="9.00" departLane="380351865#0_0" departPos="8.30" departSpeed="0.00" departDelay="9.00" arrival="96.00" arrivalLane="1318893695#0_0" arrivalPos="148.83" arrivalSpeed="15.55" duration="87.00" routeLength="284.41" waitingTime="46.00" waitingCount="1" stopTime="0.00" timeLoss="64.72" rerouteNo="0" devices="tripinfo_flow_route_49_duration_20250327_1920.0" vType="car" speedFactor="1.05" vaporized=""/>
    <tripinfo id="flow_route_47_duration_20250327_1920.2" depart="43.00" departLane="380351865#0_0" departPos="2.91" departSpeed="0.00" departDelay="37.00" arrival="96.00" arrivalLane="1318793173#0_1" arrivalPos="32.02" arrivalSpeed="12.34" duration="53.00" routeLength="190.55" waitingTime="19.00" waitingCount="1" stopTime="0.00" timeLoss="36.71" rerouteNo="0" devices="tripinfo_flow_route_47_duration_20250327_1920.2" vType="car" speedFactor="1.00" vaporized=""/>
    <tripinfo id="flow_route_48_duration_20250327_1920.4" depart="30.00" departLane="380351865#0_0" departPos="0.21" departSpeed="0.00" departDelay="26.88" arrival="97.00" arrivalLane="133126031#0_1" arrivalPos="104.37" arrivalSpeed="15.58" duration="67.00" routeLength="271.33" waitingTime="27.00" waitingCount="1" stopTime="0.00" timeLoss="46.45" rerouteNo="0" devices="tripinfo_flow_route_48_duration_20250327_1920.4" vType="car" speedFactor="1.02" vaporized=""/>
    <tripinfo id="flow_route_48_duration_20250327_1920.8" depart="54.00" departLane="380351865#0_0" departPos="6.10" departSpeed="0.00" departDelay="47.77" arrival="97.00" arrivalLane="133126031#0_0" arrivalPos="14.16" arrivalSpeed="10.66" duration="43.00" routeLength="175.24" waitingTime="10.00" waitingCount="1" stopTime="0.00" timeLoss="29.45" rerouteNo="0" devices="tripinfo_flow_route_48_duration_20250327_1920.8" vType="car" speedFactor="1.06" vaporized=""/>
    <tripinfo id="flow_route_48_duration_20250327_1920.3" depart="26.00" departLane="380351865#0_0" departPos="5.78" departSpeed="0.00" departDelay="23.66" arrival="98.00" arrivalLane="133126031#0_0" arrivalPos="102.35" arrivalSpeed="15.77" duration="72.00" routeLength="263.74" waitingTime="31.00" waitingCount="1" stopTime="0.00" timeLoss="52.43" rerouteNo="0" devices="tripinfo_flow_route_48_duration_20250327_1920.3" vType="car" speedFactor="1.09" vaporized=""/>
    <tripinfo id="flow_route_48_duration_20250327_1920.9" depart="58.00" departLane="380351865#0_0" departPos="0.29" departSpeed="0.00" departDelay="50.99" arrival="98.00" arrivalLane="133126031#0_1" arrivalPos="34.21" arrivalSpeed="12.75" duration="40.00" routeLength="201.09" waitingTime="3.00" waitingCount="1" stopTime="0.00" timeLoss="23.84" rerouteNo="0" devices="tripinfo_flow_route_48_duration_20250327_1920.9" vType="car" speedFactor="1.01" vaporized=""/>
    <tripinfo id="flow_route_48_duration_20250327_1920.11" depart="77.00" departLane="380351865#0_0" departPos="8.87" departSpeed="0.00" departDelay="68.43" arrival="99.00" arrivalLane="133126031#0_1" arrivalPos="3.88" arrivalSpeed="12.96" duration="22.00" routeLength="162.18" waitingTime="0.00" waitingCount="0" stopTime="0.00" timeLoss="8.31" rerouteNo="0" devices="tripinfo_flow_route_48_duration_20250327_1920.11" vType="car" speedFactor="1.01" vaporized=""/>
    <tripinfo id="flow_route_48_duration_20250327_1920.5" depart="37.00" departLane="380351865#0_0" departPos="14.92" departSpeed="0.00" departDelay="33.11" arrival="100.00" arrivalLane="133126031#0_0" arrivalPos="112.74" arrivalSpeed="16.24" duration="63.00" routeLength="264.99" waitingTime="24.00" waitingCount="1" stopTime="0.00" timeLoss="42.60" rerouteNo="0" devices="tripinfo_flow_route_48_duration_20250327_1920.5" vType="car" speedFactor="0.97" vaporized=""/>
    <tripinfo id="flow_route_48_duration_20250327_1920.6" depart="37.00" departLane="380351865#0_0" departPos="3.72" departSpeed="0.00" departDelay="32.33" arrival="101.00" arrivalLane="133126031#0_1" arrivalPos="138.73" arrivalSpeed="16.26" duration="64.00" routeLength="302.18" waitingTime="20.00" waitingCount="1" stopTime="0.00" timeLoss="40.94" rerouteNo="0" devices="tripinfo_flow_route_48_duration_20250327_1920.6" vType="car" speedFactor="0.94" vaporized=""/>
    <tripinfo id="flow_route_47_duration_20250327_1920.3" depart="72.00" departLane="380351865#0_0" departPos="1.02" departSpeed="0.00" departDelay="63.00" arrival="104.00" arrivalLane="1318793173#0_1" arrivalPos="99.28" arrivalSpeed="16.19" duration="32.00" routeLength="259.70" waitingTime="0.00" waitingCount="0" stopTime="0.00" timeLoss="12.84" rerouteNo="0" devices="tripinfo_flow_route_47_duration_20250327_1920.3" vType="car" speedFactor="1.12" vaporized=""/>
    <tripinfo id="flow_route_48_duration_20250327_1920.1" depart="12.00" departLane="380351865#0_0" departPos="0.13" departSpeed="0.00" departDelay="11.22" arrival="105.00" arrivalLane="133126031#0_1" arrivalPos="312.28" arrivalSpeed="16.19" duration="93.00" routeLength="479.32" waitingTime="41.00" waitingCount="1" stopTime="0.00" timeLoss="59.11" rerouteNo="0" devices="tripinfo_flow_route_48_duration_20250327_1920.1" vType="car" speedFactor="0.94" vaporized=""/>
    <tripinfo id="flow_route_48_duration_20250327_1920.7" depart="48.00" departLane="380351865#0_0" departPos="6.69" departSpeed="0.00" departDelay="42.55" arrival="105.00" arrivalLane="133126031#0_0" arrivalPos="136.70" arrivalSpeed="16.39" duration="57.00" routeLength="297.19" waitingTime="13.00" waitingCount="1" stopTime="0.00" timeLoss="35.01" rerouteNo="0" devices="tripinfo_flow_route_48_duration_20250327_1920.7" vType="car" speedFactor="1.04" vaporized=""/>
    <tripinfo id="flow_route_48_duration_20250327_1920.12" depart="82.00" departLane="380351865#0_0" departPos="8.72" departSpeed="0.00" departDelay="72.65" arrival="108.00" arrivalLane="133126031#0_1" arrivalPos="51.00" arrivalSpeed="15.04" duration="26.00" routeLength="209.44" waitingTime="0.00" waitingCount="0" stopTime="0.00" timeLoss="8.13" rerouteNo="0" devices="tripinfo_flow_route_48_duration_20250327_1920.12" vType="car" speedFactor="0.94" vaporized=""/>
    <tripinfo id="flow_route_49_duration_20250327_1920.1" depart="67.00" departLane="380351865#0_0" departPos="1.78" departSpeed="0.00" departDelay="59.50" arrival="112.00" arrivalLane="1318893695#0_0" arrivalPos="128.38" arrivalSpeed="14.61" duration="45.00" routeLength="270.48" waitingTime="0.00" waitingCount="0" stopTime="0.00" timeLoss="21.78" rerouteNo="0" devices="tripinfo_flow_route_49_duration_20250327_1920.1" vType="car" speedFactor="0.92" vaporized=""/>
    <tripinfo id="flow_route_48_duration_20250327_1920.13" depart="85.00" departLane="380351865#0_0" departPos="1.76" departSpeed="0.00" departDelay="74.87" arrival="114.00" arrivalLane="133126031#0_1" arrivalPos="106.69" arrivalSpeed="16.47" duration="29.00" routeLength="272.10" waitingTime="0.00" waitingCount="0" stopTime="0.00" timeLoss="9.64" rerouteNo="0" devices="tripinfo_flow_route_48_duration_20250327_1920.13" vType="car" speedFactor="1.12" vaporized=""/>
    <tripinfo id="flow_route_0_duration_20250327_1920.12" depart="79.00" departLane="1318793176#1_0" departPos="4.25" departSpeed="0.00" departDelay="77.62" arrival="115.00" arrivalLane="133126031#0_0" arrivalPos="10.78" arrivalSpeed="8.36" duration="36.00" routeLength="126.95" waitingTime="7.00" waitingCount="1" stopTime="0.00" timeLoss="27.58" rerouteNo="0" devices="tripinfo_flow_route_0_duration_20250327_1920.12" vType="car" speedFactor="0.97" vaporized=""/>
    <tripinfo id="flow_route_0_duration_20250327_1920.9" depart="62.00" departLane="1318793176#1_0" departPos="2.45" departSpeed="0.00" departDelay="60.97" arrival="118.00" arrivalLane="133126031#0_0" arrivalPos="131.88" arrivalSpeed="14.63" duration="56.00" routeLength="249.85" waitingTime="17.00" waitingCount="2" stopTime="0.00" timeLoss="40.43" rerouteNo="0" devices="tripinfo_flow_route_0_duration_20250327_1920.9" vType="car" speedFactor="1.16" vaporized=""/>
    <tripinfo id="flow_route_0_duration_20250327_1920.11" depart="73.00" departLane="1318793176#1_0" departPos="2.60" departSpeed="0.00" departDelay="71.74" arrival="118.00" arrivalLane="133126031#0_0" arrivalPos="78.72" arrivalSpeed="13.44" duration="45.00" routeLength="196.55" waitingTime="11.00" waitingCount="1" stopTime="0.00" timeLoss="32.39" rerouteNo="0" devices="tripinfo_flow_route_0_duration_20250327_1920.11" vType="car" speedFactor="1.01" vaporized=""/>
    <tripinfo id="flow_route_48_duration_20250327_1920.10" depart="63.00" departLane="380351865#0_0" departPos="3.36" departSpeed="0.00" departDelay="55.21" arrival="119.00" arrivalLane="133126031#0_0" arrivalPos="284.85" arrivalSpeed="16.17" duration="56.00" routeLength="448.66" waitingTime="3.00" waitingCount="1" stopTime="0.00" timeLoss="25.62" rerouteNo="0" devices="tripinfo_flow_route_48_duration_20250327_1920.10" vType="car" speedFactor="1.10" vaporized=""/>
    <tripinfo id="flow_route_1_duration_20250327_1920.2" depart="55.00" departLane="1318793176#1_0" departPos="8.44" departSpeed="0.00" departDelay="54.37" arrival="123.00" arrivalLane="1318793173#0_2" arrivalPos="33.18" arrivalSpeed="9.58" duration="68.00" routeLength="148.64" waitingTime="39.00" waitingCount="1" stopTime="0.00" timeLoss="57.32" rerouteNo="0" devices="tripinfo_flow_route_1_duration_20250327_1920.2" vType="car" speedFactor="0.88" vaporized=""/>
    <tripinfo id="flow_route_0_duration_20250327_1920.10" depart="68.00" departLane="1318793176#1_0" departPos="4.08" departSpeed="0.00" departDelay="66.85" arrival="123.00" arrivalLane="133126031#0_0" arrivalPos="181.01" arrivalSpeed="16.24" duration="55.00" routeLength="297.35" waitingTime="14.00" waitingCount="1" stopTime="0.00" timeLoss="36.02" rerouteNo="0" devices="tripinfo_flow_route_0_duration_20250327_1920.10" vType="car" speedFactor="1.02" vaporized=""/>
    <tripinfo id="flow_route_1_duration_20250327_1920.1" depart="49.00" departLane="1318793176#1_0" departPos="7.56" departSpeed="0.00" departDelay="48.69" arrival="124.00" arrivalLane="1318793173#0_1" arrivalPos="55.44" arrivalSpeed="11.26" duration="75.00" routeLength="171.77" waitingTime="44.00" waitingCount="1" stopTime="0.00" timeLoss="63.65" rerouteNo="0" devices="tripinfo_flow_route_1_duration_20250327_1920.1" vType="car" speedFactor="0.93" vaporized=""/>
    <tripinfo id="flow_route_0_duration_20250327_1920.13" depart="83.00" departLane="1318793176#1_0" departPos="2.17" departSpeed="0.00" departDelay="81.51" arrival="125.00" arrivalLane="133126031#0_0" arrivalPos="100.35" arrivalSpeed="14.87" duration="42.00" routeLength="218.60" waitingTime="5.00" waitingCount="1" stopTime="0.00" timeLoss="26.66" rerouteNo="0" devices="tripinfo_flow_route_0_duration_20250327_1920.13" vType="car" speedFactor="0.89" vaporized=""/>
    <tripinfo id="flow_route_0_duration_20250327_1920.15" depart="93.00" departLane="1318793176#1_0" departPos="6.32" departSpeed="0.00" departDelay="91.28" arrival="125.00" arrivalLane="133126031#0_0" arrivalPos="52.91" arrivalSpeed="13.40" duration="32.00" routeLength="167.01" waitingTime="0.00" waitingCount="0" stopTime="0.00" timeLoss="19.52" rerouteNo="0" devices="tripinfo_flow_route_0_duration_20250327_1920.15" vType="car" speedFactor="0.87" vaporized=""/>
    <tripinfo id="flow_route_0_duration_20250327_1920.17" depart="100.00" departLane="1318793176#1_0" departPos="0.34" departSpeed="0.00" departDelay="98.05" arrival="126.00" arrivalLane="133126031#0_0" arrivalPos="9.92" arrivalSpeed="10.75" duration="26.00" routeLength="130.00" waitingTime="0.00" waitingCount="0" stopTime="0.00" timeLoss="16.98" rerouteNo="0" devices="tripinfo_flow_route_0_duration_20250327_1920.17" vType="car" speedFactor="0.95" vaporized=""/>
    <tripinfo id="flow_route_1_duration_20250327_1920.6" depart="110.00" departLane="1318793176#1_0" departPos="9.89" departSpeed="0.00" departDelay="108.11" arrival="128.00" arrivalLane="1318793173#0_1" arrivalPos="13.98" arrivalSpeed="13.97" duration="18.00" routeLength="127.99" waitingTime="0.00" waitingCount="0" stopTime="0.00" timeLoss="10.01" rerouteNo="0" devices="tripinfo_flow_route_1_duration_20250327_1920.6" vType="car" speedFactor="1.18" vaporized=""/>
    <tripinfo id="flow_route_1_duration_20250327_1920.3" depart="58.00" departLane="1318793176#1_0" departPos="1.13" departSpeed="0.00" departDelay="57.06" arrival="129.00" arrivalLane="1318793173#0_1" arrivalPos="68.46" arrivalSpeed="11.90" duration="71.00" routeLength="191.23" waitingTime="37.00" waitingCount="1" stopTime="0.00" timeLoss="58.12" rerouteNo="0" devices="tripinfo_flow_route_1_duration_20250327_1920.3" vType="car" speedFactor="0.94" vaporized=""/>
    <tripinfo id="flow_route_1_duration_20250327_1920.4" depart="105.00" departLane="1318793176#1_0" departPos="1.21" departSpeed="0.00" departDelay="103.74" arrival="131.00" arrivalLane="1318793173#0_1" arrivalPos="74.04" arrivalSpeed="12.62" duration="26.00" routeLength="196.73" waitingTime="0.00" waitingCount="0" stopTime="0.00" timeLoss="13.57" rerouteNo="0" devices="tripinfo_flow_route_1_duration_20250327_1920.4" vType="car" speedFactor="1.13" vaporized=""/>
    <tripinfo id="flow_route_1_duration_20250327_1920.5" depart="110.00" departLane="1318793176#1_0" departPos="2.25" departSpeed="0.00" departDelay="108.43" arrival="132.00" arrivalLane="1318793173#0_1" arrivalPos="35.80" arrivalSpeed="15.49" duration="22.00" routeLength="157.46" waitingTime="0.00" waitingCount="0" stopTime="0.00" timeLoss="11.56" rerouteNo="0" devices="tripinfo_flow_route_1_duration_20250327_1920.5" vType="car" speedFactor="0.93" vaporized=""/>
    <tripinfo id="flow_route_0_duration_20250327_1920.14" depart="87.00" departLane="1318793176#1_0" departPos="0.00" departSpeed="0.00" departDelay="85.39" arrival="136.00" arrivalLane="133126031#0_0" arrivalPos="254.24" arrivalSpeed="16.54" duration="49.00" routeLength="374.65" waitingTime="3.00" waitingCount="1" stopTime="0.00" timeLoss="23.61" rerouteNo="0" devices="tripinfo_flow_route_0_duration_20250327_1920.14" vType="car" speedFactor="0.83" vaporized=""/>