<?xml version="1.0" encoding="UTF-8"?>

<!-- generated on 2025-05-06 21:08:02 by Eclipse SUMO sumo Version 1.20.0
<configuration xmlns:xsi="http://www.w3.org/2001/XMLSchema-instance" xsi:noNamespaceSchemaLocation="http://sumo.dlr.de/xsd/sumoConfiguration.xsd">

    <input>
        <net-file value="osm.net.xml"/>
        <route-files value="xml/route_rl_cluster_11648561428_407729599_2.rou.xml"/>
    </input>

    <output>
        <tripinfo-output value="xml/tripinfo_rl_cluster_11648561428_407729599_2.xml"/>
    </output>

    <traci_server>
        <remote-port value="36341"/>
    </traci_server>

</configuration>
-->

<tripinfos xmlns:xsi="http://www.w3.org/2001/XMLSchema-instance" xsi:noNamespaceSchemaLocation="http://sumo.dlr.de/xsd/tripinfo_file.xsd">
    <tripinfo id="flow_route_106_duration_20250327_1950.0" depart="0.00" departLane="1254519229#0_0" departPos="19.69" departSpeed="0.00" departDelay="0.00" arrival="17.00" arrivalLane="430416184_1" arrivalPos="13.15" arrivalSpeed="8.79" duration="17.00" routeLength="94.14" waitingTime="0.00" waitingCount="0" stopTime="0.00" timeLoss="10.66" rerouteNo="0" devices="tripinfo_flow_route_106_duration_20250327_1950.0" vType="car" speedFactor="1.01" vaporized=""/>
    <tripinfo id="flow_route_107_duration_20250327_1950.0" depart="0.00" departLane="1254519229#0_0" departPos="43.39" departSpeed="0.00" departDelay="0.00" arrival="21.00" arrivalLane="1342963997_1" arrivalPos="88.24" arrivalSpeed="14.70" duration="21.00" routeLength="145.44" waitingTime="0.00" waitingCount="0" stopTime="0.00" timeLoss="11.68" rerouteNo="0" devices="tripinfo_flow_route_107_duration_20250327_1950.0" vType="car" speedFactor="1.08" vaporized=""/>
    <tripinfo id="flow_route_107_duration_20250327_1950.1" depart="5.00" departLane="1254519229#0_0" departPos="69.67" departSpeed="0.00" departDelay="0.72" arrival="22.00" arrivalLane="1342963997_0" arrivalPos="81.18" arrivalSpeed="13.35" duration="17.00" routeLength="112.09" waitingTime="0.00" waitingCount="0" stopTime="0.00" timeLoss="9.87" rerouteNo="0" devices="tripinfo_flow_route_107_duration_20250327_1950.1" vType="car" speedFactor="0.94" vaporized=""/>
    <tripinfo id="flow_route_100_duration_20250327_1950.1" depart="5.00" departLane="186409193_0" departPos="33.08" departSpeed="0.00" departDelay="0.00" arrival="32.00" arrivalLane="1254519229#0_1" arrivalPos="0.48" arrivalSpeed="4.13" duration="27.00" routeLength="199.02" waitingTime="0.00" waitingCount="0" stopTime="0.00" timeLoss="11.72" rerouteNo="0" devices="tripinfo_flow_route_100_duration_20250327_1950.1" vType="car" speedFactor="0.83" vaporized=""/>
    <tripinfo id="flow_route_101_duration_20250327_1950.0" depart="0.00" departLane="186409193_0" departPos="43.42" departSpeed="0.00" departDelay="0.00" arrival="34.00" arrivalLane="430416184_0" arrivalPos="206.05" arrivalSpeed="16.40" duration="34.00" routeLength="297.12" waitingTime="0.00" waitingCount="0" stopTime="0.00" timeLoss="14.88" rerouteNo="0" devices="tripinfo_flow_route_101_duration_20250327_1950.0" vType="car" speedFactor="0.94" vaporized=""/>
    <tripinfo id="flow_route_107_duration_20250327_1950.3" depart="16.00" departLane="1254519229#0_0" departPos="7.08" departSpeed="0.00" departDelay="3.15" arrival="36.00" arrivalLane="1342963997_0" arrivalPos="59.49" arrivalSpeed="15.28" duration="20.00" routeLength="152.99" waitingTime="0.00" waitingCount="0" stopTime="0.00" timeLoss="10.45" rerouteNo="0" devices="tripinfo_flow_route_107_duration_20250327_1950.3" vType="car" speedFactor="0.88" vaporized=""/>
    <tripinfo id="flow_route_107_duration_20250327_1950.2" depart="10.00" departLane="1254519229#0_0" departPos="2.58" departSpeed="0.00" departDelay="1.43" arrival="38.00" arrivalLane="1342963997_0" arrivalPos="168.61" arrivalSpeed="16.15" duration="28.00" routeLength="266.61" waitingTime="0.00" waitingCount="0" stopTime="0.00" timeLoss="11.31" rerouteNo="0" devices="tripinfo_flow_route_107_duration_20250327_1950.2" vType="car" speedFactor="1.03" vaporized=""/>
    <tripinfo id="flow_route_100_duration_20250327_1950.0" depart="0.00" departLane="186409193_0" departPos="2.55" departSpeed="0.00" departDelay="0.00" arrival="41.00" arrivalLane="1254519229#0_1" arrivalPos="70.90" arrivalSpeed="0.85" duration="41.00" routeLength="299.97" waitingTime="3.00" waitingCount="1" stopTime="0.00" timeLoss="22.23" rerouteNo="0" devices="tripinfo_flow_route_100_duration_20250327_1950.0" vType="car" speedFactor="1.06" vaporized=""/>
    <tripinfo id="flow_route_101_duration_20250327_1950.1" depart="8.00" departLane="186409193_0" departPos="17.94" departSpeed="0.00" departDelay="3.72" arrival="42.00" arrivalLane="430416184_0" arrivalPos="194.63" arrivalSpeed="16.12" duration="34.00" routeLength="311.19" waitingTime="0.00" waitingCount="0" stopTime="0.00" timeLoss="14.63" rerouteNo="0" devices="tripinfo_flow_route_101_duration_20250327_1950.1" vType="car" speedFactor="1.05" vaporized=""/>
    <tripinfo id="flow_route_106_duration_20250327_1950.1" depart="5.00" departLane="1254519229#0_0" departPos="4.79" departSpeed="0.00" departDelay="0.39" arrival="43.00" arrivalLane="430416184_1" arrivalPos="134.81" arrivalSpeed="14.93" duration="38.00" routeLength="230.70" waitingTime="2.00" waitingCount="1" stopTime="0.00" timeLoss="22.79" rerouteNo="0" devices="tripinfo_flow_route_106_duration_20250327_1950.1" vType="car" speedFactor="0.89" vaporized=""/>
    <tripinfo id="flow_route_107_duration_20250327_1950.4" depart="21.00" departLane="1254519229#0_0" departPos="5.33" departSpeed="0.00" departDelay="3.86" arrival="47.00" arrivalLane="1342963997_0" arrivalPos="167.90" arrivalSpeed="16.16" duration="26.00" routeLength="263.15" waitingTime="0.00" waitingCount="0" stopTime="0.00" timeLoss="9.88" rerouteNo="0" devices="tripinfo_flow_route_107_duration_20250327_1950.4" vType="car" speedFactor="1.02" vaporized=""/>
    <tripinfo id="flow_route_107_duration_20250327_1950.5" depart="31.00" departLane="1254519229#0_0" departPos="32.71" departSpeed="0.00" departDelay="9.58" arrival="49.00" arrivalLane="1342963997_0" arrivalPos="56.36" arrivalSpeed="13.40" duration="18.00" routeLength="124.23" waitingTime="0.00" waitingCount="0" stopTime="0.00" timeLoss="10.31" rerouteNo="0" devices="tripinfo_flow_route_107_duration_20250327_1950.5" vType="car" speedFactor="0.87" vaporized=""/>
    <tripinfo id="flow_route_101_duration_20250327_1950.3" depart="19.00" departLane="186409193_0" departPos="55.79" departSpeed="0.00" departDelay="6.15" arrival="52.00" arrivalLane="430416184_0" arrivalPos="198.12" arrivalSpeed="16.53" duration="33.00" routeLength="276.83" waitingTime="0.00" waitingCount="0" stopTime="0.00" timeLoss="14.70" rerouteNo="0" devices="tripinfo_flow_route_101_duration_20250327_1950.3" vType="car" speedFactor="0.93" vaporized=""/>
    <tripinfo id="flow_route_106_duration_20250327_1950.5" depart="33.00" departLane="1254519229#0_0" departPos="56.67" departSpeed="0.00" departDelay="9.93" arrival="55.00" arrivalLane="430416184_1" arrivalPos="23.14" arrivalSpeed="8.98" duration="22.00" routeLength="67.14" waitingTime="3.00" waitingCount="1" stopTime="0.00" timeLoss="16.95" rerouteNo="0" devices="tripinfo_flow_route_106_duration_20250327_1950.5" vType="car" speedFactor="0.92" vaporized=""/>
    <tripinfo id="flow_route_100_duration_20250327_1950.2" depart="17.00" departLane="186409193_0" departPos="41.80" departSpeed="0.00" departDelay="7.00" arrival="56.00" arrivalLane="1254519229#0_1" arrivalPos="31.56" arrivalSpeed="1.95" duration="39.00" routeLength="221.37" waitingTime="3.00" waitingCount="1" stopTime="0.00" timeLoss="24.90" rerouteNo="0" devices="tripinfo_flow_route_100_duration_20250327_1950.2" vType="car" speedFactor="1.05" vaporized=""/>
    <tripinfo id="flow_route_106_duration_20250327_1950.6" depart="35.00" departLane="1254519229#0_0" departPos="77.84" departSpeed="0.00" departDelay="7.31" arrival="56.00" arrivalLane="430416184_1" arrivalPos="87.55" arrivalSpeed="13.03" duration="21.00" routeLength="110.39" waitingTime="3.00" waitingCount="1" stopTime="0.00" timeLoss="13.27" rerouteNo="0" devices="tripinfo_flow_route_106_duration_20250327_1950.6" vType="car" speedFactor="1.15" vaporized=""/>
    <tripinfo id="flow_route_106_duration_20250327_1950.2" depart="10.00" departLane="1254519229#0_0" departPos="24.01" departSpeed="0.00" departDelay="0.77" arrival="57.00" arrivalLane="430416184_1" arrivalPos="157.41" arrivalSpeed="16.14" duration="47.00" routeLength="234.08" waitingTime="4.00" waitingCount="1" stopTime="0.00" timeLoss="32.23" rerouteNo="0" devices="tripinfo_flow_route_106_duration_20250327_1950.2" vType="car" speedFactor="1.12" vaporized=""/>
    <tripinfo id="flow_route_106_duration_20250327_1950.4" depart="28.00" departLane="1254519229#0_0" departPos="8.33" departSpeed="0.00" departDelay="9.54" arrival="59.00" arrivalLane="430416184_1" arrivalPos="48.70" arrivalSpeed="11.02" duration="31.00" routeLength="141.05" waitingTime="2.00" waitingCount="1" stopTime="0.00" timeLoss="21.87" rerouteNo="0" devices="tripinfo_flow_route_106_duration_20250327_1950.4" vType="car" speedFactor="0.97" vaporized=""/>
    <tripinfo id="flow_route_106_duration_20250327_1950.3" depart="16.00" departLane="1254519229#0_0" departPos="53.16" departSpeed="0.00" departDelay="2.16" arrival="63.00" arrivalLane="430416184_1" arrivalPos="278.94" arrivalSpeed="16.17" duration="47.00" routeLength="326.45" waitingTime="5.00" waitingCount="1" stopTime="0.00" timeLoss="26.15" rerouteNo="0" devices="tripinfo_flow_route_106_duration_20250327_1950.3" vType="car" speedFactor="0.94" vaporized=""/>
    <tripinfo id="flow_route_107_duration_20250327_1950.7" depart="37.00" departLane="1254519229#0_0" departPos="30.19" departSpeed="0.00" departDelay="7.01" arrival="63.00" arrivalLane="1342963997_0" arrivalPos="81.84" arrivalSpeed="13.57" duration="26.00" routeLength="152.23" waitingTime="0.00" waitingCount="0" stopTime="0.00" timeLoss="16.31" rerouteNo="0" devices="tripinfo_flow_route_107_duration_20250327_1950.7" vType="car" speedFactor="0.99" vaporized=""/>
    <tripinfo id="flow_route_107_duration_20250327_1950.8" depart="44.00" departLane="1254519229#0_0" departPos="72.34" departSpeed="0.00" departDelay="9.72" arrival="64.00" arrivalLane="1342963997_0" arrivalPos="121.26" arrivalSpeed="15.06" duration="20.00" routeLength="149.50" waitingTime="0.00" waitingCount="0" stopTime="0.00" timeLoss="10.23" rerouteNo="0" devices="tripinfo_flow_route_107_duration_20250327_1950.8" vType="car" speedFactor="0.90" vaporized=""/>
    <tripinfo id="flow_route_107_duration_20250327_1950.6" depart="33.00" departLane="1254519229#0_0" departPos="9.89" departSpeed="0.00" departDelay="7.29" arrival="65.00" arrivalLane="1342963997_1" arrivalPos="92.08" arrivalSpeed="14.19" duration="32.00" routeLength="182.77" waitingTime="0.00" waitingCount="0" stopTime="0.00" timeLoss="20.45" rerouteNo="0" devices="tripinfo_flow_route_107_duration_20250327_1950.6" vType="car" speedFactor="1.18" vaporized=""/>
    <tripinfo id="flow_route_107_duration_20250327_1950.9" depart="48.00" departLane="1254519229#0_0" departPos="57.54" departSpeed="0.00" departDelay="9.44" arrival="75.00" arrivalLane="1342963997_0" arrivalPos="153.80" arrivalSpeed="16.13" duration="27.00" routeLength="196.84" waitingTime="0.00" waitingCount="0" stopTime="0.00" timeLoss="14.23" rerouteNo="0" devices="tripinfo_flow_route_107_duration_20250327_1950.9" vType="car" speedFactor="1.04" vaporized=""/>
    <tripinfo id="flow_route_107_duration_20250327_1950.11" depart="51.00" departLane="1254519229#0_0" departPos="25.53" departSpeed="0.00" departDelay="3.87" arrival="76.00" arrivalLane="1342963997_0" arrivalPos="37.26" arrivalSpeed="11.98" duration="25.00" routeLength="112.31" waitingTime="0.00" waitingCount="0" stopTime="0.00" timeLoss="17.54" rerouteNo="0" devices="tripinfo_flow_route_107_duration_20250327_1950.11" vType="car" speedFactor="1.02" vaporized=""/>
    <tripinfo id="flow_route_106_duration_20250327_1950.8" depart="44.00" departLane="1254519229#0_0" departPos="32.77" departSpeed="0.00" departDelay="7.08" arrival="78.00" arrivalLane="430416184_1" arrivalPos="170.36" arrivalSpeed="16.47" duration="34.00" routeLength="238.27" waitingTime="0.00" waitingCount="0" stopTime="0.00" timeLoss="18.97" rerouteNo="0" devices="tripinfo_flow_route_106_duration_20250327_1950.8" vType="car" speedFactor="0.96" vaporized=""/>
    <tripinfo id="flow_route_106_duration_20250327_1950.10" depart="51.00" departLane="1254519229#0_0" departPos="73.17" departSpeed="0.00" departDelay="4.85" arrival="79.00" arrivalLane="430416184_1" arrivalPos="226.74" arrivalSpeed="16.53" duration="28.00" routeLength="254.25" waitingTime="1.00" waitingCount="1" stopTime="0.00" timeLoss="11.64" rerouteNo="0" devices="tripinfo_flow_route_106_duration_20250327_1950.10" vType="car" speedFactor="0.85" vaporized=""/>
    <tripinfo id="flow_route_106_duration_20250327_1950.11" depart="55.00" departLane="1254519229#0_0" departPos="58.97" departSpeed="0.00" departDelay="4.24" arrival="80.00" arrivalLane="430416184_1" arrivalPos="65.86" arrivalSpeed="12.00" duration="25.00" routeLength="107.57" waitingTime="4.00" waitingCount="2" stopTime="0.00" timeLoss="17.77" rerouteNo="0" devices="tripinfo_flow_route_106_duration_20250327_1950.11" vType="car" speedFactor="1.00" vaporized=""/>
    <tripinfo id="flow_route_106_duration_20250327_1950.12" depart="62.00" departLane="1254519229#0_0" departPos="72.00" departSpeed="0.00" departDelay="6.62" arrival="83.00" arrivalLane="430416184_1" arrivalPos="131.79" arrivalSpeed="15.30" duration="21.00" routeLength="160.47" waitingTime="0.00" waitingCount="0" stopTime="0.00" timeLoss="10.20" rerouteNo="0" devices="tripinfo_flow_route_106_duration_20250327_1950.12" vType="car" speedFactor="1.12" vaporized=""/>
    <tripinfo id="flow_route_106_duration_20250327_1950.9" depart="48.00" departLane="1254519229#0_0" departPos="35.38" departSpeed="0.00" departDelay="6.47" arrival="86.00" arrivalLane="430416184_1" arrivalPos="261.24" arrivalSpeed="16.57" duration="38.00" routeLength="326.55" waitingTime="0.00" waitingCount="0" stopTime="0.00" timeLoss="17.45" rerouteNo="0" devices="tripinfo_flow_route_106_duration_20250327_1950.9" vType="car" speedFactor="1.09" vaporized=""/>
    <tripinfo id="flow_route_149_duration_20250327_1950.2" depart="12.00" departLane="186410975#0_0" departPos="7.70" departSpeed="0.00" departDelay="0.00" arrival="96.00" arrivalLane="430416184_1" arrivalPos="46.01" arrivalSpeed="11.96" duration="84.00" routeLength="583.98" waitingTime="15.00" waitingCount="1" stopTime="0.00" timeLoss="38.34" rerouteNo="0" devices="tripinfo_flow_route_149_duration_20250327_1950.2" vType="car" speedFactor="0.99" vaporized=""/>
    <tripinfo id="flow_route_149_duration_20250327_1950.0" depart="0.00" departLane="186410975#0_0" departPos="192.32" departSpeed="0.00" departDelay="0.00" arrival="97.00" arrivalLane="430416184_1" arrivalPos="170.61" arrivalSpeed="16.28" duration="97.00" routeLength="523.96" waitingTime="40.00" waitingCount="1" stopTime="0.00" timeLoss="60.61" rerouteNo="0" devices="tripinfo_flow_route_149_duration_20250327_1950.0" vType="car" speedFactor="1.03" vaporized=""/>
    <tripinfo id="flow_route_149_duration_20250327_1950.1" depart="6.00" departLane="186410975#0_0" departPos="11.92" departSpeed="0.00" departDelay="0.00" arrival="98.00" arrivalLane="430416184_1" arrivalPos="93.11" arrivalSpeed="14.09" duration="92.00" routeLength="626.85" waitingTime="15.00" waitingCount="1" stopTime="0.00" timeLoss="39.07" rerouteNo="0" devices="tripinfo_flow_route_149_duration_20250327_1950.1" vType="car" speedFactor="0.86" vaporized=""/>
    <tripinfo id="flow_route_149_duration_20250327_1950.8" depart="48.00" departLane="186410975#0_0" departPos="206.94" departSpeed="0.00" departDelay="0.00" arrival="98.00" arrivalLane="430416184_1" arrivalPos="44.35" arrivalSpeed="12.86" duration="50.00" routeLength="383.08" waitingTime="1.00" waitingCount="1" stopTime="0.00" timeLoss="23.39" rerouteNo="0" devices="tripinfo_flow_route_149_duration_20250327_1950.8" vType="car" speedFactor="1.10" vaporized=""/>
    <tripinfo id="flow_route_149_duration_20250327_1950.4" depart="27.00" departLane="186410975#0_0" departPos="252.13" departSpeed="0.00" departDelay="3.00" arrival="101.00" arrivalLane="430416184_1" arrivalPos="208.76" arrivalSpeed="16.22" duration="74.00" routeLength="502.30" waitingTime="18.00" waitingCount="1" stopTime="0.00" timeLoss="40.09" rerouteNo="0" devices="tripinfo_flow_route_149_duration_20250327_1950.4" vType="car" speedFactor="0.95" vaporized=""/>
    <tripinfo id="flow_route_149_duration_20250327_1950.7" depart="42.00" departLane="186410975#0_0" departPos="87.46" departSpeed="0.00" departDelay="0.00" arrival="103.00" arrivalLane="430416184_1" arrivalPos="48.44" arrivalSpeed="13.47" duration="61.00" routeLength="506.65" waitingTime="0.00" waitingCount="0" stopTime="0.00" timeLoss="22.60" rerouteNo="0" devices="tripinfo_flow_route_149_duration_20250327_1950.7" vType="car" speedFactor="1.00" vaporized=""/>
    <tripinfo id="flow_route_149_duration_20250327_1950.3" depart="18.00" departLane="186410975#0_0" departPos="149.72" departSpeed="0.00" departDelay="0.00" arrival="108.00" arrivalLane="430416184_1" arrivalPos="277.61" arrivalSpeed="16.12" duration="90.00" routeLength="673.55" waitingTime="18.00" waitingCount="1" stopTime="0.00" timeLoss="42.88" rerouteNo="0" devices="tripinfo_flow_route_149_duration_20250327_1950.3" vType="car" speedFactor="1.01" vaporized=""/>
    <tripinfo id="flow_route_149_duration_20250327_1950.6" depart="36.00" departLane="186410975#0_0" departPos="111.21" departSpeed="0.00" departDelay="0.00" arrival="113.00" arrivalLane="430416184_1" arrivalPos="261.55" arrivalSpeed="16.60" duration="77.00" routeLength="696.01" waitingTime="0.00" waitingCount="0" stopTime="0.00" timeLoss="28.74" rerouteNo="0" devices="tripinfo_flow_route_149_duration_20250327_1950.6" vType="car" speedFactor="1.03" vaporized=""/>
    <tripinfo id="flow_route_149_duration_20250327_1950.5" depart="30.00" departLane="186410975#0_0" departPos="76.48" departSpeed="0.00" departDelay="0.00" arrival="114.00" arrivalLane="430416184_1" arrivalPos="252.70" arrivalSpeed="16.12" duration="84.00" routeLength="721.89" waitingTime="0.00" waitingCount="0" stopTime="0.00" timeLoss="33.06" rerouteNo="0" devices="tripinfo_flow_route_149_duration_20250327_1950.5" vType="car" speedFactor="1.02" vaporized=""/>
    <tripinfo id="flow_route_149_duration_20250327_1950.9" depart="54.00" departLane="186410975#0_0" departPos="21.83" departSpeed="0.00" departDelay="0.00" arrival="114.00" arrivalLane="430416184_1" arrivalPos="164.43" arrivalSpeed="16.53" duration="60.00" routeLength="688.27" waitingTime="0.00" waitingCount="0" stopTime="0.00" timeLoss="9.46" rerouteNo="0" devices="tripinfo_flow_route_149_duration_20250327_1950.9" vType="car" speedFactor="1.02" vaporized=""/>
    <tripinfo id="flow_route_107_duration_20250327_1950.13" depart="64.00" departLane="1254519229#0_0" departPos="35.56" departSpeed="0.00" departDelay="8.30" arrival="122.00" arrivalLane="1342963997_0" arrivalPos="1.32" arrivalSpeed="6.70" duration="58.00" routeLength="66.33" waitingTime="36.00" waitingCount="1" stopTime="0.00" timeLoss="53.79" rerouteNo="0" devices="tripinfo_flow_route_107_duration_20250327_1950.13" vType="car" speedFactor="1.02" vaporized=""/>
    <tripinfo id="flow_route_107_duration_20250327_1950.10" depart="49.00" departLane="1254519229#0_0" departPos="10.30" departSpeed="0.00" departDelay="6.15" arrival="130.00" arrivalLane="1342963997_0" arrivalPos="118.26" arrivalSpeed="15.92" duration="81.00" routeLength="208.54" waitingTime="38.00" waitingCount="1" stopTime="0.00" timeLoss="67.55" rerouteNo="0" devices="tripinfo_flow_route_107_duration_20250327_1950.10" vType="car" speedFactor="0.88" vaporized=""/>
    <tripinfo id="flow_route_101_duration_20250327_1950.2" depart="13.00" departLane="186409193_0" departPos="7.56" departSpeed="0.00" departDelay="4.43" arrival="134.00" arrivalLane="430416184_0" arrivalPos="183.20" arrivalSpeed="16.35" duration="121.00" routeLength="310.14" waitingTime="74.00" waitingCount="1" stopTime="0.00" timeLoss="101.08" rerouteNo="0" devices="tripinfo_flow_route_101_duration_20250327_1950.2" vType="car" speedFactor="1.09" vaporized=""/>
    <tripinfo id="flow_route_101_duration_20250327_1950.6" depart="31.00" departLane="186409193_0" departPos="5.93" departSpeed="0.00" departDelay="5.29" arrival="136.00" arrivalLane="430416184_0" arrivalPos="112.71" arrivalSpeed="13.51" duration="105.00" routeLength="241.28" waitingTime="63.00" waitingCount="1" stopTime="0.00" timeLoss="88.70" rerouteNo="0" devices="tripinfo_flow_route_101_duration_20250327_1950.6" vType="car" speedFactor="0.93" vaporized=""/>
    <tripinfo id="flow_route_101_duration_20250327_1950.9" depart="49.00" departLane="186409193_0" departPos="9.21" departSpeed="0.00" departDelay="10.44" arrival="136.00" arrivalLane="430416184_0" arrivalPos="29.75" arrivalSpeed="9.22" duration="87.00" routeLength="155.04" waitingTime="51.00" waitingCount="1" stopTime="0.00" timeLoss="76.05" rerouteNo="0" devices="tripinfo_flow_route_101_duration_20250327_1950.9" vType="car" speedFactor="1.09" vaporized=""/>
    <tripinfo id="flow_route_101_duration_20250327_1950.10" depart="55.00" departLane="186409193_0" departPos="2.02" departSpeed="0.00" departDelay="12.15" arrival="137.00" arrivalLane="430416184_0" arrivalPos="0.25" arrivalSpeed="4.94" duration="82.00" routeLength="132.72" waitingTime="45.00" waitingCount="1" stopTime="0.00" timeLoss="71.70" rerouteNo="0" devices="tripinfo_flow_route_101_duration_20250327_1950.10" vType="car" speedFactor="0.90" vaporized=""/>
    <tripinfo id="flow_route_101_duration_20250327_1950.4" depart="23.00" departLane="186409193_0" departPos="33.13" departSpeed="0.00" departDelay="5.86" arrival="138.00" arrivalLane="430416184_0" arrivalPos="200.01" arrivalSpeed="16.17" duration="115.00" routeLength="301.37" waitingTime="72.00" waitingCount="1" stopTime="0.00" timeLoss="94.96" rerouteNo="0" devices="tripinfo_flow_route_101_duration_20250327_1950.4" vType="car" speedFactor="1.16" vaporized=""/>
    <tripinfo id="flow_route_100_duration_20250327_1950.3" depart="19.00" departLane="186409193_0" departPos="10.71" departSpeed="0.00" departDelay="4.00" arrival="140.00" arrivalLane="1254519229#0_1" arrivalPos="13.36" arrivalSpeed="5.78" duration="121.00" routeLength="234.27" waitingTime="78.00" waitingCount="2" stopTime="0.00" timeLoss="104.96" rerouteNo="0" devices="tripinfo_flow_route_100_duration_20250327_1950.3" vType="car" speedFactor="0.94" vaporized=""/>
    <tripinfo id="flow_route_101_duration_20250327_1950.8" depart="48.00" departLane="186409193_0" departPos="26.09" departSpeed="0.00" departDelay="13.72" arrival="140.00" arrivalLane="430416184_0" arrivalPos="112.98" arrivalSpeed="14.59" duration="92.00" routeLength="221.39" waitingTime="51.00" waitingCount="1" stopTime="0.00" timeLoss="77.83" rerouteNo="0" devices="tripinfo_flow_route_101_duration_20250327_1950.8" vType="car" speedFactor="1.10" vaporized=""/>
    <tripinfo id="flow_route_100_duration_20250327_1950.4" depart="23.00" departLane="186409193_0" departPos="10.55" departSpeed="0.00" departDelay="3.00" arrival="141.00" arrivalLane="1254519229#0_1" arrivalPos="2.22" arrivalSpeed="3.81" duration="118.00" routeLength="223.28" waitingTime="73.00" waitingCount="2" stopTime="0.00" timeLoss="101.45" rerouteNo="0" devices="tripinfo_flow_route_100_duration_20250327_1950.4" vType="car" speedFactor="0.89" vaporized=""/>
    <tripinfo id="flow_route_101_duration_20250327_1950.11" depart="61.00" departLane="186409193_0" departPos="33.84" departSpeed="0.00" departDelay="13.87" arrival="143.00" arrivalLane="430416184_0" arrivalPos="96.25" arrivalSpeed="13.42" duration="82.00" routeLength="196.92" waitingTime="47.00" waitingCount="1" stopTime="0.00" timeLoss="69.48" rerouteNo="0" devices="tripinfo_flow_route_101_duration_20250327_1950.11" vType="car" speedFactor="1.17" vaporized=""/>
    <tripinfo id="flow_route_101_duration_20250327_1950.7" depart="42.00" departLane="186409193_0" departPos="20.20" departSpeed="0.00" departDelay="12.01" arrival="144.00" arrivalLane="430416184_0" arrivalPos="205.54" arrivalSpeed="16.28" duration="102.00" routeLength="319.84" waitingTime="57.00" waitingCount="1" stopTime="0.00" timeLoss="81.63" rerouteNo="0" devices="tripinfo_flow_route_101_duration_20250327_1950.7" vType="car" speedFactor="1.17" vaporized=""/>
    <tripinfo id="flow_route_107_duration_20250327_1950.12" depart="56.00" departLane="1254519229#0_0" departPos="6.77" departSpeed="0.00" departDelay="4.58" arrival="144.00" arrivalLane="1342963997_0" arrivalPos="83.64" arrivalSpeed="12.80" duration="88.00" routeLength="177.46" waitingTime="44.00" waitingCount="2" stopTime="0.00" timeLoss="76.61" rerouteNo="0" devices="tripinfo_flow_route_107_duration_20250327_1950.12" vType="car" speedFactor="1.14" vaporized=""/>
    <tripinfo id="flow_route_101_duration_20250327_1950.5" depart="23.00" departLane="186409193_0" departPos="2.74" departSpeed="0.00" departDelay="1.58" arrival="145.00" arrivalLane="430416184_0" arrivalPos="286.95" arrivalSpeed="16.54" duration="122.00" routeLength="418.72" waitingTime="64.00" waitingCount="1" stopTime="0.00" timeLoss="93.94" rerouteNo="0" devices="tripinfo_flow_route_101_duration_20250327_1950.5" vType="car" speedFactor="0.83" vaporized=""/>
    <tripinfo id="flow_route_101_duration_20250327_1950.13" depart="70.00" departLane="186409193_0" departPos="0.78" departSpeed="0.00" departDelay="14.30" arrival="146.00" arrivalLane="430416184_0" arrivalPos="34.54" arrivalSpeed="9.05" duration="76.00" routeLength="168.26" waitingTime="41.00" waitingCount="1" stopTime="0.00" timeLoss="64.71" rerouteNo="0" devices="tripinfo_flow_route_101_duration_20250327_1950.13" vType="car" speedFactor="1.08" vaporized=""/>
    <tripinfo id="flow_route_100_duration_20250327_1950.5" depart="31.00" departLane="186409193_0" departPos="40.86" departSpeed="0.00" departDelay="6.00" arrival="147.00" arrivalLane="1254519229#0_1" arrivalPos="16.90" arrivalSpeed="7.20" duration="116.00" routeLength="207.65" waitingTime="68.00" waitingCount="2" stopTime="0.00" timeLoss="101.73" rerouteNo="0" devices="tripinfo_flow_route_100_duration_20250327_1950.5" vType="car" speedFactor="1.13" vaporized=""/>
    <tripinfo id="flow_route_100_duration_20250327_1950.7" depart="45.00" departLane="186409193_0" departPos="47.87" departSpeed="0.00" departDelay="10.00" arrival="150.00" arrivalLane="1254519229#0_1" arrivalPos="3.39" arrivalSpeed="5.29" duration="105.00" routeLength="187.14" waitingTime="59.00" waitingCount="2" stopTime="0.00" timeLoss="93.03" rerouteNo="0" devices="tripinfo_flow_route_100_duration_20250327_1950.7" vType="car" speedFactor="1.18" vaporized=""/>
    <tripinfo id="flow_route_100_duration_20250327_1950.6" depart="34.00" departLane="186409193_0" departPos="21.71" departSpeed="0.00" departDelay="4.00" arrival="153.00" arrivalLane="1254519229#0_1" arrivalPos="33.83" arrivalSpeed="8.15" duration="119.00" routeLength="243.74" waitingTime="65.00" waitingCount="2" stopTime="0.00" timeLoss="102.51" rerouteNo="0" devices="tripinfo_flow_route_100_duration_20250327_1950.6" vType="car" speedFactor="1.01" vaporized=""/>
    <tripinfo id="flow_route_106_duration_20250327_1950.7" depart="40.00" departLane="1254519229#0_0" departPos="1.16" departSpeed="0.00" departDelay="7.70" arrival="153.00" arrivalLane="430416184_1" arrivalPos="81.32" arrivalSpeed="12.18" duration="113.00" routeLength="180.84" waitingTime="62.00" waitingCount="4" stopTime="0.00" timeLoss="100.85" rerouteNo="0" devices="tripinfo_flow_route_106_duration_20250327_1950.7" vType="car" speedFactor="0.97" vaporized=""/>
    <tripinfo id="flow_route_100_duration_20250327_1950.10" depart="63.00" departLane="186409193_0" departPos="53.49" departSpeed="0.00" departDelay="13.00" arrival="157.00" arrivalLane="1254519229#0_1" arrivalPos="9.12" arrivalSpeed="5.45" duration="94.00" routeLength="187.25" waitingTime="46.00" waitingCount="1" stopTime="0.00" timeLoss="81.90" rerouteNo="0" devices="tripinfo_flow_route_100_duration_20250327_1950.10" vType="car" speedFactor="1.00" vaporized=""/>
    <tripinfo id="flow_route_101_duration_20250327_1950.12" depart="63.00" departLane="186409193_0" departPos="13.49" departSpeed="0.00" departDelay="11.58" arrival="159.00" arrivalLane="430416184_0" arrivalPos="246.03" arrivalSpeed="16.39" duration="96.00" routeLength="367.04" waitingTime="45.00" waitingCount="1" stopTime="0.00" timeLoss="72.41" rerouteNo="0" devices="tripinfo_flow_route_101_duration_20250327_1950.12" vType="car" speedFactor="0.90" vaporized=""/>
    <tripinfo id="flow_route_100_duration_20250327_1950.8" depart="53.00" departLane="186409193_0" departPos="54.96" departSpeed="0.00" departDelay="13.00" arrival="162.00" arrivalLane="1254519229#0_1" arrivalPos="75.18" arrivalSpeed="11.09" duration="109.00" routeLength="251.84" waitingTime="53.00" waitingCount="2" stopTime="0.00" timeLoss="92.74" rerouteNo="0" devices="tripinfo_flow_route_100_duration_20250327_1950.8" vType="car" speedFactor="1.04" vaporized=""/>
    <tripinfo id="flow_route_100_duration_20250327_1950.9" depart="61.00" departLane="186409193_0" departPos="0.68" departSpeed="0.00" departDelay="16.00" arrival="168.00" arrivalLane="1254519229#0_1" arrivalPos="67.74" arrivalSpeed="10.30" duration="107.00" routeLength="298.68" waitingTime="43.00" waitingCount="1" stopTime="0.00" timeLoss="84.98" rerouteNo="0" devices="tripinfo_flow_route_100_duration_20250327_1950.9" vType="car" speedFactor="0.85" vaporized=""/>