<?xml version="1.0" encoding="UTF-8"?>

<!-- generated on 2025-05-06 21:01:09 by Eclipse SUMO sumo Version 1.20.0
<configuration xmlns:xsi="http://www.w3.org/2001/XMLSchema-instance" xsi:noNamespaceSchemaLocation="http://sumo.dlr.de/xsd/sumoConfiguration.xsd">

    <input>
        <net-file value="osm.net.xml"/>
        <route-files value="xml/routes_sac2_cluster_11648561419_11648561420_2271142975_4854142869.rou.xml"/>
    </input>

    <output>
        <tripinfo-output value="xml/tripinfo_9782.xml"/>
    </output>

    <traci_server>
        <remote-port value="43071"/>
    </traci_server>

</configuration>
-->

<tripinfos xmlns:xsi="http://www.w3.org/2001/XMLSchema-instance" xsi:noNamespaceSchemaLocation="http://sumo.dlr.de/xsd/tripinfo_file.xsd">
    <tripinfo id="flow_route_97_duration_20250327_2020.0" depart="0.00" departLane="1328664748#0_0" departPos="149.74" departSpeed="0.00" departDelay="0.00" arrival="27.00" arrivalLane="135474719#0_0" arrivalPos="137.46" arrivalSpeed="15.89" duration="27.00" routeLength="222.45" waitingTime="0.00" waitingCount="0" stopTime="0.00" timeLoss="12.51" rerouteNo="0" devices="tripinfo_flow_route_97_duration_20250327_2020.0" vType="car" speedFactor="1.06" vaporized=""/>
    <tripinfo id="flow_route_98_duration_20250327_2020.0" depart="0.00" departLane="1328664748#0_0" departPos="103.72" departSpeed="0.00" departDelay="0.00" arrival="28.00" arrivalLane="177211987#1_0" arrivalPos="104.29" arrivalSpeed="15.41" duration="28.00" routeLength="249.04" waitingTime="0.00" waitingCount="0" stopTime="0.00" timeLoss="11.13" rerouteNo="0" devices="tripinfo_flow_route_98_duration_20250327_2020.0" vType="car" speedFactor="0.94" vaporized=""/>
    <tripinfo id="flow_route_118_duration_20250327_2020.1" depart="2.00" departLane="134194079#0_0" departPos="243.19" departSpeed="0.00" departDelay="0.87" arrival="28.00" arrivalLane="1328664744#0_0" arrivalPos="140.54" arrivalSpeed="16.55" duration="26.00" routeLength="218.50" waitingTime="0.00" waitingCount="0" stopTime="0.00" timeLoss="11.92" rerouteNo="0" devices="tripinfo_flow_route_118_duration_20250327_2020.1" vType="car" speedFactor="1.03" vaporized=""/>
    <tripinfo id="flow_route_118_duration_20250327_2020.9" depart="13.00" departLane="134194079#0_0" departPos="258.30" departSpeed="0.00" departDelay="2.81" arrival="28.00" arrivalLane="1328664744#0_0" arrivalPos="10.39" arrivalSpeed="8.97" duration="15.00" routeLength="73.24" waitingTime="0.00" waitingCount="0" stopTime="0.00" timeLoss="10.32" rerouteNo="0" devices="tripinfo_flow_route_118_duration_20250327_2020.9" vType="car" speedFactor="1.02" vaporized=""/>
    <tripinfo id="flow_route_118_duration_20250327_2020.5" depart="7.00" departLane="134194079#0_0" departPos="197.11" departSpeed="0.00" departDelay="1.34" arrival="29.00" arrivalLane="1328664744#0_1" arrivalPos="49.50" arrivalSpeed="15.90" duration="22.00" routeLength="173.54" waitingTime="0.00" waitingCount="0" stopTime="0.00" timeLoss="10.73" rerouteNo="0" devices="tripinfo_flow_route_118_duration_20250327_2020.5" vType="car" speedFactor="1.02" vaporized=""/>
    <tripinfo id="flow_route_119_duration_20250327_2020.0" depart="0.00" departLane="134194079#0_0" departPos="151.34" departSpeed="0.00" departDelay="0.00" arrival="31.00" arrivalLane="1253188486#8_0" arrivalPos="1.48" arrivalSpeed="8.72" duration="31.00" routeLength="161.10" waitingTime="0.00" waitingCount="0" stopTime="0.00" timeLoss="20.16" rerouteNo="0" devices="tripinfo_flow_route_119_duration_20250327_2020.0" vType="car" speedFactor="1.09" vaporized=""/>
    <tripinfo id="flow_route_119_duration_20250327_2020.1" depart="2.00" departLane="134194079#0_0" departPos="261.87" departSpeed="0.00" departDelay="0.07" arrival="31.00" arrivalLane="1253188486#8_0" arrivalPos="230.38" arrivalSpeed="16.26" duration="29.00" routeLength="279.47" waitingTime="0.00" waitingCount="0" stopTime="0.00" timeLoss="10.85" rerouteNo="0" devices="tripinfo_flow_route_119_duration_20250327_2020.1" vType="car" speedFactor="1.05" vaporized=""/>
    <tripinfo id="flow_route_119_duration_20250327_2020.3" depart="7.00" departLane="134194079#0_0" departPos="211.10" departSpeed="0.00" departDelay="1.20" arrival="33.00" arrivalLane="1253188486#8_0" arrivalPos="41.21" arrivalSpeed="11.54" duration="26.00" routeLength="141.05" waitingTime="0.00" waitingCount="0" stopTime="0.00" timeLoss="16.16" rerouteNo="0" devices="tripinfo_flow_route_119_duration_20250327_2020.3" vType="car" speedFactor="1.01" vaporized=""/>
    <tripinfo id="flow_route_118_duration_20250327_2020.4" depart="5.00" departLane="134194079#0_0" departPos="77.91" departSpeed="0.00" departDelay="0.47" arrival="35.00" arrivalLane="1328664744#0_1" arrivalPos="73.50" arrivalSpeed="16.40" duration="30.00" routeLength="316.74" waitingTime="0.00" waitingCount="0" stopTime="0.00" timeLoss="10.53" rerouteNo="0" devices="tripinfo_flow_route_118_duration_20250327_2020.4" vType="car" speedFactor="1.16" vaporized=""/>
    <tripinfo id="flow_route_119_duration_20250327_2020.5" depart="12.00" departLane="134194079#0_0" departPos="172.59" departSpeed="0.00" departDelay="2.33" arrival="35.00" arrivalLane="1253188486#8_0" arrivalPos="16.43" arrivalSpeed="10.37" duration="23.00" routeLength="154.79" waitingTime="0.00" waitingCount="0" stopTime="0.00" timeLoss="12.87" rerouteNo="0" devices="tripinfo_flow_route_119_duration_20250327_2020.5" vType="car" speedFactor="1.17" vaporized=""/>
    <tripinfo id="flow_route_97_duration_20250327_2020.1" depart="10.00" departLane="1328664748#0_0" departPos="19.14" departSpeed="0.00" departDelay="0.00" arrival="36.00" arrivalLane="135474719#0_0" arrivalPos="4.29" arrivalSpeed="6.54" duration="26.00" routeLength="219.88" waitingTime="0.00" waitingCount="0" stopTime="0.00" timeLoss="10.60" rerouteNo="0" devices="tripinfo_flow_route_97_duration_20250327_2020.1" vType="car" speedFactor="0.93" vaporized=""/>
    <tripinfo id="flow_route_118_duration_20250327_2020.10" depart="15.00" departLane="134194079#0_0" departPos="286.61" departSpeed="0.00" departDelay="3.68" arrival="37.00" arrivalLane="1328664744#0_0" arrivalPos="150.56" arrivalSpeed="16.14" duration="22.00" routeLength="185.11" waitingTime="0.00" waitingCount="0" stopTime="0.00" timeLoss="10.44" rerouteNo="0" devices="tripinfo_flow_route_118_duration_20250327_2020.10" vType="car" speedFactor="1.10" vaporized=""/>
    <tripinfo id="flow_route_118_duration_20250327_2020.7" depart="12.00" departLane="134194079#0_0" departPos="181.47" departSpeed="0.00" departDelay="4.08" arrival="38.00" arrivalLane="1328664744#0_1" arrivalPos="68.28" arrivalSpeed="14.96" duration="26.00" routeLength="207.96" waitingTime="0.00" waitingCount="0" stopTime="0.00" timeLoss="12.25" rerouteNo="0" devices="tripinfo_flow_route_118_duration_20250327_2020.7" vType="car" speedFactor="0.92" vaporized=""/>
    <tripinfo id="flow_route_119_duration_20250327_2020.2" depart="5.00" departLane="134194079#0_0" departPos="121.36" departSpeed="0.00" departDelay="1.13" arrival="41.00" arrivalLane="1253188486#8_0" arrivalPos="39.04" arrivalSpeed="10.98" duration="36.00" routeLength="228.63" waitingTime="0.00" waitingCount="0" stopTime="0.00" timeLoss="19.95" rerouteNo="0" devices="tripinfo_flow_route_119_duration_20250327_2020.2" vType="car" speedFactor="0.94" vaporized=""/>
    <tripinfo id="flow_route_118_duration_20250327_2020.8" depart="12.00" departLane="134194079#0_0" departPos="243.55" departSpeed="0.00" departDelay="2.94" arrival="41.00" arrivalLane="1328664744#0_1" arrivalPos="205.90" arrivalSpeed="16.15" duration="29.00" routeLength="283.50" waitingTime="0.00" waitingCount="0" stopTime="0.00" timeLoss="11.91" rerouteNo="0" devices="tripinfo_flow_route_118_duration_20250327_2020.8" vType="car" speedFactor="1.01" vaporized=""/>
    <tripinfo id="flow_route_118_duration_20250327_2020.2" depart="3.00" departLane="134194079#0_0" departPos="9.56" departSpeed="0.00" departDelay="0.74" arrival="43.00" arrivalLane="1328664744#0_1" arrivalPos="120.76" arrivalSpeed="16.13" duration="40.00" routeLength="432.34" waitingTime="0.00" waitingCount="0" stopTime="0.00" timeLoss="13.51" rerouteNo="0" devices="tripinfo_flow_route_118_duration_20250327_2020.2" vType="car" speedFactor="0.99" vaporized=""/>
    <tripinfo id="flow_route_118_duration_20250327_2020.0" depart="0.00" departLane="134194079#0_0" departPos="13.63" departSpeed="0.00" departDelay="0.00" arrival="44.00" arrivalLane="1328664744#0_2" arrivalPos="165.30" arrivalSpeed="13.98" duration="44.00" routeLength="472.83" waitingTime="0.00" waitingCount="0" stopTime="0.00" timeLoss="10.83" rerouteNo="0" devices="tripinfo_flow_route_118_duration_20250327_2020.0" vType="car" speedFactor="0.86" vaporized=""/>
    <tripinfo id="flow_route_118_duration_20250327_2020.6" depart="11.00" departLane="134194079#0_0" departPos="23.60" departSpeed="0.00" departDelay="4.21" arrival="44.00" arrivalLane="1328664744#0_1" arrivalPos="19.75" arrivalSpeed="14.58" duration="33.00" routeLength="317.30" waitingTime="0.00" waitingCount="0" stopTime="0.00" timeLoss="11.21" rerouteNo="0" devices="tripinfo_flow_route_118_duration_20250327_2020.6" vType="car" speedFactor="0.89" vaporized=""/>
    <tripinfo id="flow_route_97_duration_20250327_2020.2" depart="21.00" departLane="1328664748#0_0" departPos="190.58" departSpeed="0.00" departDelay="1.00" arrival="45.00" arrivalLane="135474719#0_0" arrivalPos="150.92" arrivalSpeed="16.45" duration="24.00" routeLength="195.06" waitingTime="0.00" waitingCount="0" stopTime="0.00" timeLoss="11.29" rerouteNo="0" devices="tripinfo_flow_route_97_duration_20250327_2020.2" vType="car" speedFactor="1.00" vaporized=""/>
    <tripinfo id="flow_route_118_duration_20250327_2020.3" depart="5.00" departLane="134194079#0_0" departPos="36.99" departSpeed="0.00" departDelay="1.60" arrival="49.00" arrivalLane="1328664744#0_1" arrivalPos="169.60" arrivalSpeed="14.51" duration="44.00" routeLength="453.76" waitingTime="0.00" waitingCount="0" stopTime="0.00" timeLoss="12.84" rerouteNo="0" devices="tripinfo_flow_route_118_duration_20250327_2020.3" vType="car" speedFactor="0.88" vaporized=""/>
    <tripinfo id="flow_route_119_duration_20250327_2020.4" depart="12.00" departLane="134194079#0_0" departPos="114.98" departSpeed="0.00" departDelay="4.26" arrival="49.00" arrivalLane="1253188486#8_0" arrivalPos="120.85" arrivalSpeed="15.47" duration="37.00" routeLength="316.81" waitingTime="0.00" waitingCount="0" stopTime="0.00" timeLoss="15.54" rerouteNo="0" devices="tripinfo_flow_route_119_duration_20250327_2020.4" vType="car" speedFactor="0.95" vaporized=""/>
    <tripinfo id="flow_route_118_duration_20250327_2020.11" depart="25.00" departLane="134194079#0_0" departPos="116.08" departSpeed="0.00" departDelay="12.55" arrival="52.00" arrivalLane="1328664744#0_1" arrivalPos="23.23" arrivalSpeed="15.82" duration="27.00" routeLength="228.30" waitingTime="0.00" waitingCount="0" stopTime="0.00" timeLoss="12.17" rerouteNo="0" devices="tripinfo_flow_route_118_duration_20250327_2020.11" vType="car" speedFactor="0.96" vaporized=""/>
    <tripinfo id="flow_route_97_duration_20250327_2020.3" depart="30.00" departLane="1328664748#0_0" departPos="126.51" departSpeed="0.00" departDelay="0.00" arrival="53.00" arrivalLane="135474719#0_0" arrivalPos="49.50" arrivalSpeed="10.86" duration="23.00" routeLength="157.71" waitingTime="0.00" waitingCount="0" stopTime="0.00" timeLoss="12.37" rerouteNo="0" devices="tripinfo_flow_route_97_duration_20250327_2020.3" vType="car" speedFactor="1.02" vaporized=""/>
    <tripinfo id="flow_route_118_duration_20250327_2020.14" depart="27.00" departLane="134194079#0_0" departPos="95.42" departSpeed="0.00" departDelay="11.15" arrival="55.00" arrivalLane="1328664744#0_1" arrivalPos="22.52" arrivalSpeed="14.36" duration="28.00" routeLength="248.26" waitingTime="0.00" waitingCount="0" stopTime="0.00" timeLoss="10.10" rerouteNo="0" devices="tripinfo_flow_route_118_duration_20250327_2020.14" vType="car" speedFactor="0.88" vaporized=""/>
    <tripinfo id="flow_route_98_duration_20250327_2020.1" depart="31.00" departLane="1328664748#0_0" departPos="26.57" departSpeed="0.00" departDelay="1.00" arrival="58.00" arrivalLane="177211987#1_0" arrivalPos="36.67" arrivalSpeed="15.82" duration="27.00" routeLength="258.56" waitingTime="0.00" waitingCount="0" stopTime="0.00" timeLoss="10.79" rerouteNo="0" devices="tripinfo_flow_route_98_duration_20250327_2020.1" vType="car" speedFactor="0.97" vaporized=""/>
    <tripinfo id="flow_route_118_duration_20250327_2020.13" depart="27.00" departLane="134194079#0_0" departPos="131.74" departSpeed="0.00" departDelay="12.28" arrival="60.00" arrivalLane="1328664744#0_0" arrivalPos="127.26" arrivalSpeed="16.28" duration="33.00" routeLength="316.68" waitingTime="0.00" waitingCount="0" stopTime="0.00" timeLoss="13.62" rerouteNo="0" devices="tripinfo_flow_route_118_duration_20250327_2020.13" vType="car" speedFactor="1.00" vaporized=""/>
    <tripinfo id="flow_route_119_duration_20250327_2020.8" depart="31.00" departLane="134194079#0_0" departPos="221.14" departSpeed="0.00" departDelay="15.52" arrival="60.00" arrivalLane="1253188486#8_0" arrivalPos="114.41" arrivalSpeed="14.96" duration="29.00" routeLength="204.22" waitingTime="0.00" waitingCount="0" stopTime="0.00" timeLoss="14.12" rerouteNo="0" devices="tripinfo_flow_route_119_duration_20250327_2020.8" vType="car" speedFactor="0.85" vaporized=""/>
    <tripinfo id="flow_route_118_duration_20250327_2020.12" depart="27.00" departLane="134194079#0_0" departPos="61.22" departSpeed="0.00" departDelay="13.42" arrival="62.00" arrivalLane="1328664744#0_1" arrivalPos="109.30" arrivalSpeed="16.18" duration="35.00" routeLength="369.23" waitingTime="0.00" waitingCount="0" stopTime="0.00" timeLoss="11.85" rerouteNo="0" devices="tripinfo_flow_route_118_duration_20250327_2020.12" vType="car" speedFactor="1.09" vaporized=""/>
    <tripinfo id="flow_route_119_duration_20250327_2020.6" depart="23.00" departLane="134194079#0_0" departPos="102.03" departSpeed="0.00" departDelay="11.39" arrival="63.00" arrivalLane="1253188486#8_0" arrivalPos="103.83" arrivalSpeed="14.11" duration="40.00" routeLength="312.76" waitingTime="0.00" waitingCount="0" stopTime="0.00" timeLoss="18.48" rerouteNo="0" devices="tripinfo_flow_route_119_duration_20250327_2020.6" vType="car" speedFactor="0.90" vaporized=""/>
    <tripinfo id="flow_route_119_duration_20250327_2020.9" depart="37.00" departLane="134194079#0_0" departPos="276.58" departSpeed="0.00" departDelay="19.59" arrival="63.00" arrivalLane="1253188486#8_0" arrivalPos="216.39" arrivalSpeed="16.50" duration="26.00" routeLength="250.76" waitingTime="0.00" waitingCount="0" stopTime="0.00" timeLoss="9.84" rerouteNo="0" devices="tripinfo_flow_route_119_duration_20250327_2020.9" vType="car" speedFactor="1.02" vaporized=""/>
    <tripinfo id="flow_route_119_duration_20250327_2020.7" depart="27.00" departLane="134194079#0_0" departPos="45.24" departSpeed="0.00" departDelay="13.46" arrival="66.00" arrivalLane="1253188486#8_0" arrivalPos="104.29" arrivalSpeed="15.86" duration="39.00" routeLength="370.00" waitingTime="0.00" waitingCount="0" stopTime="0.00" timeLoss="15.59" rerouteNo="0" devices="tripinfo_flow_route_119_duration_20250327_2020.7" vType="car" speedFactor="1.04" vaporized=""/>
    <tripinfo id="flow_route_99_duration_20250327_2020.0" depart="1.00" departLane="1328664748#0_0" departPos="68.32" departSpeed="0.00" departDelay="1.00" arrival="67.00" arrivalLane="1253188486#8_2" arrivalPos="11.16" arrivalSpeed="7.18" duration="66.00" routeLength="200.71" waitingTime="33.00" waitingCount="1" stopTime="0.00" timeLoss="53.30" rerouteNo="0" devices="tripinfo_flow_route_99_duration_20250327_2020.0" vType="car" speedFactor="1.01" vaporized=""/>
    <tripinfo id="flow_route_97_duration_20250327_2020.4" depart="40.00" departLane="1328664748#0_0" departPos="34.17" departSpeed="0.00" departDelay="0.00" arrival="72.00" arrivalLane="135474719#0_0" arrivalPos="73.48" arrivalSpeed="11.84" duration="32.00" routeLength="274.03" waitingTime="0.00" waitingCount="0" stopTime="0.00" timeLoss="13.70" rerouteNo="0" devices="tripinfo_flow_route_97_duration_20250327_2020.4" vType="car" speedFactor="0.93" vaporized=""/>
    <tripinfo id="flow_route_99_duration_20250327_2020.1" depart="10.00" departLane="1328664748#0_0" departPos="126.18" departSpeed="0.00" departDelay="0.00" arrival="76.00" arrivalLane="1253188486#8_2" arrivalPos="68.41" arrivalSpeed="11.99" duration="66.00" routeLength="200.10" waitingTime="30.00" waitingCount="1" stopTime="0.00" timeLoss="53.09" rerouteNo="0" devices="tripinfo_flow_route_99_duration_20250327_2020.1" vType="car" speedFactor="1.18" vaporized=""/>
    <tripinfo id="flow_route_99_duration_20250327_2020.5" depart="51.00" departLane="1328664748#0_0" departPos="151.07" departSpeed="0.00" departDelay="1.00" arrival="78.00" arrivalLane="1253188486#8_2" arrivalPos="35.31" arrivalSpeed="10.81" duration="27.00" routeLength="142.11" waitingTime="0.00" waitingCount="0" stopTime="0.00" timeLoss="17.53" rerouteNo="0" devices="tripinfo_flow_route_99_duration_20250327_2020.5" vType="car" speedFactor="1.00" vaporized=""/>
    <tripinfo id="flow_route_97_duration_20250327_2020.5" depart="51.00" departLane="1328664748#0_0" departPos="58.14" departSpeed="0.00" departDelay="1.00" arrival="85.00" arrivalLane="135474719#0_0" arrivalPos="131.96" arrivalSpeed="16.10" duration="34.00" routeLength="308.54" waitingTime="0.00" waitingCount="0" stopTime="0.00" timeLoss="14.16" rerouteNo="0" devices="tripinfo_flow_route_97_duration_20250327_2020.5" vType="car" speedFactor="1.02" vaporized=""/>
    <tripinfo id="flow_route_99_duration_20250327_2020.2" depart="21.00" departLane="1328664748#0_0" departPos="142.64" departSpeed="0.00" departDelay="1.00" arrival="87.00" arrivalLane="1253188486#8_2" arrivalPos="207.43" arrivalSpeed="16.39" duration="66.00" routeLength="322.66" waitingTime="24.00" waitingCount="1" stopTime="0.00" timeLoss="44.29" rerouteNo="0" devices="tripinfo_flow_route_99_duration_20250327_2020.2" vType="car" speedFactor="0.90" vaporized=""/>
    <tripinfo id="flow_route_99_duration_20250327_2020.3" depart="31.00" departLane="1328664748#0_0" departPos="101.39" departSpeed="0.00" departDelay="1.00" arrival="88.00" arrivalLane="1253188486#8_2" arrivalPos="208.73" arrivalSpeed="16.26" duration="57.00" routeLength="365.21" waitingTime="12.00" waitingCount="1" stopTime="0.00" timeLoss="34.63" rerouteNo="0" devices="tripinfo_flow_route_99_duration_20250327_2020.3" vType="car" speedFactor="1.15" vaporized=""/>
    <tripinfo id="flow_route_99_duration_20250327_2020.4" depart="40.00" departLane="1328664748#0_0" departPos="48.05" departSpeed="0.00" departDelay="0.00" arrival="91.00" arrivalLane="1253188486#8_2" arrivalPos="172.77" arrivalSpeed="16.31" duration="51.00" routeLength="382.58" waitingTime="0.00" waitingCount="0" stopTime="0.00" timeLoss="24.54" rerouteNo="0" devices="tripinfo_flow_route_99_duration_20250327_2020.4" vType="car" speedFactor="0.87" vaporized=""/>
    <tripinfo id="flow_route_110_duration_20250327_2020.0" depart="0.00" departLane="1254519225#0.109_0" departPos="3.76" departSpeed="0.00" departDelay="0.00" arrival="107.00" arrivalLane="177211987#1_2" arrivalPos="6.38" arrivalSpeed="7.95" duration="107.00" routeLength="190.24" waitingTime="74.00" waitingCount="1" stopTime="0.00" timeLoss="91.84" rerouteNo="0" devices="tripinfo_flow_route_110_duration_20250327_2020.0" vType="car" speedFactor="0.83" vaporized=""/>
    <tripinfo id="flow_route_108_duration_20250327_2020.0" depart="0.00" departLane="1254519225#0.109_0" departPos="35.33" departSpeed="0.00" departDelay="0.00" arrival="114.00" arrivalLane="135474719#0_0" arrivalPos="75.82" arrivalSpeed="14.25" duration="114.00" routeLength="240.24" waitingTime="77.00" waitingCount="1" stopTime="0.00" timeLoss="98.69" rerouteNo="0" devices="tripinfo_flow_route_108_duration_20250327_2020.0" vType="car" speedFactor="1.08" vaporized=""/>
    <tripinfo id="flow_route_110_duration_20250327_2020.1" depart="12.00" departLane="1254519225#0.109_0" departPos="60.94" departSpeed="0.00" departDelay="0.00" arrival="115.00" arrivalLane="177211987#1_2" arrivalPos="42.45" arrivalSpeed="11.30" duration="103.00" routeLength="169.13" waitingTime="65.00" waitingCount="2" stopTime="0.00" timeLoss="91.40" rerouteNo="0" devices="tripinfo_flow_route_110_duration_20250327_2020.1" vType="car" speedFactor="0.97" vaporized=""/>
    <tripinfo id="flow_route_108_duration_20250327_2020.2" depart="20.00" departLane="1254519225#0.109_0" departPos="23.67" departSpeed="0.00" departDelay="0.00" arrival="116.00" arrivalLane="135474719#0_2" arrivalPos="23.69" arrivalSpeed="11.23" duration="96.00" routeLength="199.77" waitingTime="61.00" waitingCount="1" stopTime="0.00" timeLoss="83.78" rerouteNo="0" devices="tripinfo_flow_route_108_duration_20250327_2020.2" vType="car" speedFactor="1.14" vaporized=""/>
    <tripinfo id="flow_route_109_duration_20250327_2020.0" depart="0.00" departLane="1254519225#0.109_0" departPos="16.50" departSpeed="0.00" departDelay="0.00" arrival="117.00" arrivalLane="1328664744#0_0" arrivalPos="130.88" arrivalSpeed="15.76" duration="117.00" routeLength="288.61" waitingTime="75.00" waitingCount="1" stopTime="0.00" timeLoss="98.73" rerouteNo="0" devices="tripinfo_flow_route_109_duration_20250327_2020.0" vType="car" speedFactor="1.03" vaporized=""/>
    <tripinfo id="flow_route_108_duration_20250327_2020.1" depart="10.00" departLane="1254519225#0.109_0" departPos="12.93" departSpeed="0.00" departDelay="0.00" arrival="117.00" arrivalLane="135474719#0_2" arrivalPos="84.36" arrivalSpeed="14.29" duration="107.00" routeLength="271.18" waitingTime="67.00" waitingCount="1" stopTime="0.00" timeLoss="90.11" rerouteNo="0" devices="tripinfo_flow_route_108_duration_20250327_2020.1" vType="car" speedFactor="1.15" vaporized=""/>
    <tripinfo id="flow_route_109_duration_20250327_2020.2" depart="15.00" departLane="1254519225#0.109_0" departPos="25.65" departSpeed="0.00" departDelay="0.00" arrival="119.00" arrivalLane="1328664744#0_0" arrivalPos="101.11" arrivalSpeed="13.95" duration="104.00" routeLength="249.70" waitingTime="65.00" waitingCount="1" stopTime="0.00" timeLoss="88.20" rerouteNo="0" devices="tripinfo_flow_route_109_duration_20250327_2020.2" vType="car" speedFactor="1.04" vaporized=""/>
    <tripinfo id="flow_route_109_duration_20250327_2020.4" depart="30.00" departLane="1254519225#0.109_0" departPos="5.28" departSpeed="0.00" departDelay="0.00" arrival="119.00" arrivalLane="1328664744#0_0" arrivalPos="42.27" arrivalSpeed="12.08" duration="89.00" routeLength="211.22" waitingTime="49.00" waitingCount="1" stopTime="0.00" timeLoss="74.77" rerouteNo="0" devices="tripinfo_flow_route_109_duration_20250327_2020.4" vType="car" speedFactor="1.00" vaporized=""/>
    <tripinfo id="flow_route_109_duration_20250327_2020.5" depart="38.00" departLane="1254519225#0.109_0" departPos="17.77" departSpeed="0.00" departDelay="0.50" arrival="120.00" arrivalLane="1328664744#0_0" arrivalPos="7.00" arrivalSpeed="10.78" duration="82.00" routeLength="163.46" waitingTime="43.00" waitingCount="1" stopTime="0.00" timeLoss="71.13" rerouteNo="0" devices="tripinfo_flow_route_109_duration_20250327_2020.5" vType="car" speedFactor="1.07" vaporized=""/>
    <tripinfo id="flow_route_109_duration_20250327_2020.3" depart="23.00" departLane="1254519225#0.109_0" departPos="21.14" departSpeed="0.00" departDelay="0.50" arrival="122.00" arrivalLane="1328664744#0_0" arrivalPos="107.09" arrivalSpeed="14.34" duration="99.00" routeLength="260.17" waitingTime="60.00" waitingCount="1" stopTime="0.00" timeLoss="79.75" rerouteNo="0" devices="tripinfo_flow_route_109_duration_20250327_2020.3" vType="car" speedFactor="0.88" vaporized=""/>
    <tripinfo id="flow_route_110_duration_20250327_2020.2" depart="24.00" departLane="1254519225#0.109_0" departPos="25.70" departSpeed="0.00" departDelay="0.00" arrival="123.00" arrivalLane="177211987#1_2" arrivalPos="96.40" arrivalSpeed="14.99" duration="99.00" routeLength="258.33" waitingTime="55.00" waitingCount="2" stopTime="0.00" timeLoss="82.76" rerouteNo="0" devices="tripinfo_flow_route_110_duration_20250327_2020.2" vType="car" speedFactor="1.04" vaporized=""/>
    <tripinfo id="flow_route_109_duration_20250327_2020.6" depart="45.00" departLane="1254519225#0.109_0" departPos="57.76" departSpeed="0.00" departDelay="0.00" arrival="124.00" arrivalLane="1328664744#0_0" arrivalPos="88.01" arrivalSpeed="14.68" duration="79.00" routeLength="204.48" waitingTime="43.00" waitingCount="1" stopTime="0.00" timeLoss="65.78" rerouteNo="0" devices="tripinfo_flow_route_109_duration_20250327_2020.6" vType="car" speedFactor="1.06" vaporized=""/>
    <tripinfo id="flow_route_108_duration_20250327_2020.5" depart="50.00" departLane="1254519225#0.109_0" departPos="55.67" departSpeed="0.00" departDelay="0.00" arrival="124.00" arrivalLane="135474719#0_0" arrivalPos="8.77" arrivalSpeed="13.73" duration="74.00" routeLength="152.84" waitingTime="41.00" waitingCount="3" stopTime="0.00" timeLoss="63.84" rerouteNo="0" devices="tripinfo_flow_route_108_duration_20250327_2020.5" vType="car" speedFactor="0.95" vaporized=""/>
    <tripinfo id="flow_route_109_duration_20250327_2020.1" depart="8.00" departLane="1254519225#0.109_0" departPos="59.58" departSpeed="0.00" departDelay="0.50" arrival="125.00" arrivalLane="1328664744#0_0" arrivalPos="207.44" arrivalSpeed="13.59" duration="117.00" routeLength="322.09" waitingTime="70.00" waitingCount="2" stopTime="0.00" timeLoss="92.54" rerouteNo="0" devices="tripinfo_flow_route_109_duration_20250327_2020.1" vType="car" speedFactor="0.83" vaporized=""/>
    <tripinfo id="flow_route_108_duration_20250327_2020.3" depart="30.00" departLane="1254519225#0.109_0" departPos="25.16" departSpeed="0.00" departDelay="0.00" arrival="125.00" arrivalLane="135474719#0_2" arrivalPos="71.87" arrivalSpeed="15.45" duration="95.00" routeLength="246.45" waitingTime="53.00" waitingCount="1" stopTime="0.00" timeLoss="78.93" rerouteNo="0" devices="tripinfo_flow_route_108_duration_20250327_2020.3" vType="car" speedFactor="0.98" vaporized=""/>
    <tripinfo id="flow_route_110_duration_20250327_2020.3" depart="36.00" departLane="1254519225#0.109_0" departPos="47.48" departSpeed="0.00" departDelay="0.00" arrival="131.00" arrivalLane="177211987#1_2" arrivalPos="132.44" arrivalSpeed="16.11" duration="95.00" routeLength="272.58" waitingTime="53.00" waitingCount="1" stopTime="0.00" timeLoss="77.49" rerouteNo="0" devices="tripinfo_flow_route_110_duration_20250327_2020.3" vType="car" speedFactor="1.10" vaporized=""/>
    <tripinfo id="flow_route_108_duration_20250327_2020.4" depart="40.00" departLane="1254519225#0.109_0" departPos="19.91" departSpeed="0.00" departDelay="0.00" arrival="132.00" arrivalLane="135474719#0_2" arrivalPos="122.88" arrivalSpeed="16.53" duration="92.00" routeLength="302.73" waitingTime="44.00" waitingCount="2" stopTime="0.00" timeLoss="73.60" rerouteNo="0" devices="tripinfo_flow_route_108_duration_20250327_2020.4" vType="car" speedFactor="1.10" vaporized=""/>
    <tripinfo id="flow_route_109_duration_20250327_2020.7" depart="53.00" departLane="1254519225#0.109_0" departPos="33.10" departSpeed="0.00" departDelay="0.50" arrival="132.00" arrivalLane="1328664744#0_0" arrivalPos="93.81" arrivalSpeed="14.45" duration="79.00" routeLength="234.94" waitingTime="37.00" waitingCount="1" stopTime="0.00" timeLoss="62.17" rerouteNo="0" devices="tripinfo_flow_route_109_duration_20250327_2020.7" vType="car" speedFactor="0.89" vaporized=""/>
    <tripinfo id="flow_route_110_duration_20250327_2020.4" depart="48.00" departLane="1254519225#0.109_0" departPos="55.57" departSpeed="0.00" departDelay="0.00" arrival="136.00" arrivalLane="177211987#1_2" arrivalPos="132.83" arrivalSpeed="16.14" duration="88.00" routeLength="264.88" waitingTime="42.00" waitingCount="2" stopTime="0.00" timeLoss="70.96" rerouteNo="0" devices="tripinfo_flow_route_110_duration_20250327_2020.4" vType="car" speedFactor="1.07" vaporized=""/>
    <tripinfo id="flow_route_114_duration_20250327_2020.0" depart="0.00" departLane="1253188486#4_0" departPos="49.31" departSpeed="0.00" departDelay="0.00" arrival="156.00" arrivalLane="177211987#1_0" arrivalPos="36.23" arrivalSpeed="10.05" duration="156.00" routeLength="153.37" waitingTime="121.00" waitingCount="1" stopTime="0.00" timeLoss="144.82" rerouteNo="0" devices="tripinfo_flow_route_114_duration_20250327_2020.0" vType="car" speedFactor="0.89" vaporized=""/>
    <tripinfo id="flow_route_113_duration_20250327_2020.6" depart="13.00" departLane="1253188486#4_0" departPos="141.66" departSpeed="0.00" departDelay="0.59" arrival="157.00" arrivalLane="1253188486#8_1" arrivalPos="74.27" arrivalSpeed="14.07" duration="144.00" routeLength="131.25" waitingTime="121.00" waitingCount="1" stopTime="0.00" timeLoss="135.84" rerouteNo="0" devices="tripinfo_flow_route_113_duration_20250327_2020.6" vType="car" speedFactor="1.03" vaporized=""/>
    <tripinfo id="flow_route_115_duration_20250327_2020.0" depart="0.00" departLane="1253188486#4_0" departPos="104.70" departSpeed="0.00" departDelay="0.00" arrival="160.00" arrivalLane="1328664744#0_2" arrivalPos="120.97" arrivalSpeed="15.45" duration="160.00" routeLength="201.67" waitingTime="128.00" waitingCount="1" stopTime="0.00" timeLoss="145.48" rerouteNo="0" devices="tripinfo_flow_route_115_duration_20250327_2020.0" vType="car" speedFactor="0.94" vaporized=""/>
    <tripinfo id="flow_route_113_duration_20250327_2020.4" depart="12.00" departLane="1253188486#4_0" departPos="78.54" departSpeed="0.00" departDelay="3.73" arrival="160.00" arrivalLane="1253188486#8_1" arrivalPos="44.98" arrivalSpeed="12.84" duration="148.00" routeLength="165.07" waitingTime="109.00" waitingCount="2" stopTime="0.00" timeLoss="137.33" rerouteNo="0" devices="tripinfo_flow_route_113_duration_20250327_2020.4" vType="car" speedFactor="1.13" vaporized=""/>