<?xml version="1.0" encoding="UTF-8"?>

<!-- generated on 2025-05-06 21:07:41 by Eclipse SUMO sumo Version 1.20.0
<configuration xmlns:xsi="http://www.w3.org/2001/XMLSchema-instance" xsi:noNamespaceSchemaLocation="http://sumo.dlr.de/xsd/sumoConfiguration.xsd">

    <input>
        <net-file value="osm.net.xml"/>
        <route-files value="xml/route_rl_cluster3828547534_cluster_1507433914_2954854770_2954854771_2954854772_#9more_0.rou.xml"/>
    </input>

    <output>
        <tripinfo-output value="xml/tripinfo_rl_cluster3828547534_cluster_1507433914_2954854770_2954854771_2954854772_#9more_0.xml"/>
    </output>

    <traci_server>
        <remote-port value="36441"/>
    </traci_server>

</configuration>
-->

<tripinfos xmlns:xsi="http://www.w3.org/2001/XMLSchema-instance" xsi:noNamespaceSchemaLocation="http://sumo.dlr.de/xsd/tripinfo_file.xsd">
    <tripinfo id="flow_route_6_duration_20250327_1950.0" depart="0.00" departLane="1252820505#0_0" departPos="39.30" departSpeed="0.00" departDelay="0.00" arrival="18.00" arrivalLane="379698350#0_0" arrivalPos="9.38" arrivalSpeed="13.80" duration="18.00" routeLength="129.45" waitingTime="0.00" waitingCount="0" stopTime="0.00" timeLoss="10.14" rerouteNo="0" devices="tripinfo_flow_route_6_duration_20250327_1950.0" vType="car" speedFactor="1.01" vaporized=""/>
    <tripinfo id="flow_route_22_duration_20250327_1950.0" depart="0.00" departLane="137415945#0_0" departPos="8.70" departSpeed="0.00" departDelay="0.00" arrival="24.00" arrivalLane="1342054204_0" arrivalPos="47.56" arrivalSpeed="15.23" duration="24.00" routeLength="232.19" waitingTime="0.00" waitingCount="0" stopTime="0.00" timeLoss="8.98" rerouteNo="0" devices="tripinfo_flow_route_22_duration_20250327_1950.0" vType="car" speedFactor="0.94" vaporized=""/>
    <tripinfo id="flow_route_24_duration_20250327_1950.0" depart="4.00" departLane="137415945#0_0" departPos="5.05" departSpeed="0.00" departDelay="4.00" arrival="25.00" arrivalLane="137406408#0_0" arrivalPos="0.56" arrivalSpeed="15.42" duration="21.00" routeLength="164.51" waitingTime="0.00" waitingCount="0" stopTime="0.00" timeLoss="10.81" rerouteNo="0" devices="tripinfo_flow_route_24_duration_20250327_1950.0" vType="car" speedFactor="1.09" vaporized=""/>
    <tripinfo id="flow_route_8_duration_20250327_1950.1" depart="6.00" departLane="133000078#0_0" departPos="197.52" departSpeed="0.00" departDelay="0.00" arrival="28.00" arrivalLane="1235147073.116_0" arrivalPos="4.62" arrivalSpeed="15.53" duration="22.00" routeLength="167.28" waitingTime="0.00" waitingCount="0" stopTime="0.00" timeLoss="10.15" rerouteNo="0" devices="tripinfo_flow_route_8_duration_20250327_1950.1" vType="car" speedFactor="0.99" vaporized=""/>
    <tripinfo id="flow_route_10_duration_20250327_1950.0" depart="0.00" departLane="1252820505#0_0" departPos="5.24" departSpeed="0.00" departDelay="0.00" arrival="29.00" arrivalLane="1235147073.116_0" arrivalPos="0.67" arrivalSpeed="13.57" duration="29.00" routeLength="263.17" waitingTime="0.00" waitingCount="0" stopTime="0.00" timeLoss="9.53" rerouteNo="0" devices="tripinfo_flow_route_10_duration_20250327_1950.0" vType="car" speedFactor="0.83" vaporized=""/>
    <tripinfo id="flow_route_8_duration_20250327_1950.0" depart="0.00" departLane="133000078#0_0" departPos="54.62" departSpeed="0.00" departDelay="0.00" arrival="34.00" arrivalLane="1235147073.116_0" arrivalPos="9.03" arrivalSpeed="16.44" duration="34.00" routeLength="314.60" waitingTime="0.00" waitingCount="0" stopTime="0.00" timeLoss="13.55" rerouteNo="0" devices="tripinfo_flow_route_8_duration_20250327_1950.0" vType="car" speedFactor="1.03" vaporized=""/>
    <tripinfo id="flow_route_22_duration_20250327_1950.1" depart="9.00" departLane="137415945#0_0" departPos="2.14" departSpeed="0.00" departDelay="7.13" arrival="36.00" arrivalLane="1342054204_0" arrivalPos="55.26" arrivalSpeed="16.25" duration="27.00" routeLength="246.45" waitingTime="0.00" waitingCount="0" stopTime="0.00" timeLoss="11.39" rerouteNo="0" devices="tripinfo_flow_route_22_duration_20250327_1950.1" vType="car" speedFactor="1.03" vaporized=""/>
    <tripinfo id="flow_route_11_duration_20250327_1950.0" depart="0.00" departLane="1252820505#0_0" departPos="76.11" departSpeed="0.00" departDelay="0.00" arrival="37.00" arrivalLane="137406408#0_2" arrivalPos="68.60" arrivalSpeed="12.72" duration="37.00" routeLength="154.08" waitingTime="7.00" waitingCount="1" stopTime="0.00" timeLoss="27.06" rerouteNo="0" devices="tripinfo_flow_route_11_duration_20250327_1950.0" vType="car" speedFactor="1.05" vaporized=""/>
    <tripinfo id="flow_route_6_duration_20250327_1950.1" depart="12.00" departLane="1252820505#0_0" departPos="42.81" departSpeed="0.00" departDelay="0.00" arrival="39.00" arrivalLane="379698350#0_0" arrivalPos="147.58" arrivalSpeed="16.02" duration="27.00" routeLength="264.13" waitingTime="0.00" waitingCount="0" stopTime="0.00" timeLoss="10.48" rerouteNo="0" devices="tripinfo_flow_route_6_duration_20250327_1950.1" vType="car" speedFactor="0.97" vaporized=""/>
    <tripinfo id="flow_route_22_duration_20250327_1950.2" depart="14.00" departLane="137415945#0_0" departPos="0.35" departSpeed="0.00" departDelay="10.25" arrival="41.00" arrivalLane="1342054204_0" arrivalPos="77.43" arrivalSpeed="16.54" duration="27.00" routeLength="270.40" waitingTime="0.00" waitingCount="0" stopTime="0.00" timeLoss="10.29" rerouteNo="0" devices="tripinfo_flow_route_22_duration_20250327_1950.2" vType="car" speedFactor="1.05" vaporized=""/>
    <tripinfo id="flow_route_10_duration_20250327_1950.1" depart="12.00" departLane="1252820505#0_0" departPos="14.64" departSpeed="0.00" departDelay="0.00" arrival="41.00" arrivalLane="1235147073.116_0" arrivalPos="10.59" arrivalSpeed="13.71" duration="29.00" routeLength="263.69" waitingTime="0.00" waitingCount="0" stopTime="0.00" timeLoss="9.02" rerouteNo="0" devices="tripinfo_flow_route_10_duration_20250327_1950.1" vType="car" speedFactor="0.83" vaporized=""/>
    <tripinfo id="flow_route_11_duration_20250327_1950.1" depart="8.00" departLane="1252820505#0_0" departPos="22.95" departSpeed="0.00" departDelay="0.50" arrival="46.00" arrivalLane="137406408#0_2" arrivalPos="11.94" arrivalSpeed="9.06" duration="38.00" routeLength="150.57" waitingTime="8.00" waitingCount="1" stopTime="0.00" timeLoss="27.78" rerouteNo="0" devices="tripinfo_flow_route_11_duration_20250327_1950.1" vType="car" speedFactor="0.94" vaporized=""/>
    <tripinfo id="flow_route_6_duration_20250327_1950.2" depart="24.00" departLane="1252820505#0_0" departPos="35.73" departSpeed="0.00" departDelay="0.00" arrival="48.00" arrivalLane="379698350#0_0" arrivalPos="94.00" arrivalSpeed="16.40" duration="24.00" routeLength="217.64" waitingTime="0.00" waitingCount="0" stopTime="0.00" timeLoss="10.29" rerouteNo="0" devices="tripinfo_flow_route_6_duration_20250327_1950.2" vType="car" speedFactor="1.04" vaporized=""/>
    <tripinfo id="flow_route_10_duration_20250327_1950.2" depart="24.00" departLane="1252820505#0_0" departPos="60.80" departSpeed="0.00" departDelay="0.00" arrival="49.00" arrivalLane="1235147073.116_0" arrivalPos="8.78" arrivalSpeed="16.36" duration="25.00" routeLength="215.72" waitingTime="0.00" waitingCount="0" stopTime="0.00" timeLoss="11.35" rerouteNo="0" devices="tripinfo_flow_route_10_duration_20250327_1950.2" vType="car" speedFactor="1.09" vaporized=""/>
    <tripinfo id="flow_route_11_duration_20250327_1950.2" depart="15.00" departLane="1252820505#0_0" departPos="7.48" departSpeed="0.00" departDelay="0.00" arrival="54.00" arrivalLane="137406408#0_2" arrivalPos="85.66" arrivalSpeed="13.64" duration="39.00" routeLength="239.77" waitingTime="1.00" waitingCount="1" stopTime="0.00" timeLoss="22.95" rerouteNo="0" devices="tripinfo_flow_route_11_duration_20250327_1950.2" vType="car" speedFactor="0.93" vaporized=""/>
    <tripinfo id="flow_route_6_duration_20250327_1950.3" depart="36.00" departLane="1252820505#0_0" departPos="35.80" departSpeed="0.00" departDelay="0.00" arrival="54.00" arrivalLane="379698350#0_0" arrivalPos="0.18" arrivalSpeed="12.86" duration="18.00" routeLength="123.75" waitingTime="0.00" waitingCount="0" stopTime="0.00" timeLoss="10.47" rerouteNo="0" devices="tripinfo_flow_route_6_duration_20250327_1950.3" vType="car" speedFactor="1.12" vaporized=""/>
    <tripinfo id="flow_route_11_duration_20250327_1950.3" depart="23.00" departLane="1252820505#0_0" departPos="36.95" departSpeed="0.00" departDelay="0.50" arrival="55.00" arrivalLane="137406408#0_2" arrivalPos="80.81" arrivalSpeed="13.71" duration="32.00" routeLength="205.44" waitingTime="0.00" waitingCount="0" stopTime="0.00" timeLoss="19.45" rerouteNo="0" devices="tripinfo_flow_route_11_duration_20250327_1950.3" vType="car" speedFactor="1.03" vaporized=""/>
    <tripinfo id="flow_route_11_duration_20250327_1950.4" depart="30.00" departLane="1252820505#0_0" departPos="24.10" departSpeed="0.00" departDelay="0.00" arrival="57.00" arrivalLane="137406408#0_2" arrivalPos="78.04" arrivalSpeed="14.54" duration="27.00" routeLength="215.52" waitingTime="0.00" waitingCount="0" stopTime="0.00" timeLoss="13.39" rerouteNo="0" devices="tripinfo_flow_route_11_duration_20250327_1950.4" vType="car" speedFactor="1.10" vaporized=""/>
    <tripinfo id="flow_route_8_duration_20250327_1950.4" depart="25.00" departLane="133000078#0_0" departPos="161.26" departSpeed="0.00" departDelay="1.00" arrival="59.00" arrivalLane="1235147073.116_0" arrivalPos="13.38" arrivalSpeed="15.88" duration="34.00" routeLength="212.30" waitingTime="1.00" waitingCount="1" stopTime="0.00" timeLoss="19.71" rerouteNo="0" devices="tripinfo_flow_route_8_duration_20250327_1950.4" vType="car" speedFactor="1.04" vaporized=""/>
    <tripinfo id="flow_route_10_duration_20250327_1950.3" depart="36.00" departLane="1252820505#0_0" departPos="73.99" departSpeed="0.00" departDelay="0.00" arrival="60.00" arrivalLane="1235147073.116_0" arrivalPos="14.06" arrivalSpeed="15.89" duration="24.00" routeLength="207.81" waitingTime="0.00" waitingCount="0" stopTime="0.00" timeLoss="11.11" rerouteNo="0" devices="tripinfo_flow_route_10_duration_20250327_1950.3" vType="car" speedFactor="0.99" vaporized=""/>
    <tripinfo id="flow_route_11_duration_20250327_1950.5" depart="38.00" departLane="1252820505#0_0" departPos="68.15" departSpeed="0.00" departDelay="0.50" arrival="60.00" arrivalLane="137406408#0_2" arrivalPos="36.32" arrivalSpeed="12.01" duration="22.00" routeLength="129.75" waitingTime="0.00" waitingCount="0" stopTime="0.00" timeLoss="12.57" rerouteNo="0" devices="tripinfo_flow_route_11_duration_20250327_1950.5" vType="car" speedFactor="0.91" vaporized=""/>
    <tripinfo id="flow_route_8_duration_20250327_1950.3" depart="18.00" departLane="133000078#0_0" departPos="72.65" departSpeed="0.00" departDelay="0.00" arrival="67.00" arrivalLane="1235147073.116_0" arrivalPos="1.22" arrivalSpeed="15.39" duration="49.00" routeLength="288.76" waitingTime="4.00" waitingCount="1" stopTime="0.00" timeLoss="30.54" rerouteNo="0" devices="tripinfo_flow_route_8_duration_20250327_1950.3" vType="car" speedFactor="0.99" vaporized=""/>
    <tripinfo id="flow_route_6_duration_20250327_1950.4" depart="48.00" departLane="1252820505#0_0" departPos="10.38" departSpeed="0.00" departDelay="0.00" arrival="69.00" arrivalLane="379698350#0_0" arrivalPos="17.44" arrivalSpeed="15.65" duration="21.00" routeLength="166.43" waitingTime="0.00" waitingCount="0" stopTime="0.00" timeLoss="10.65" rerouteNo="0" devices="tripinfo_flow_route_6_duration_20250327_1950.4" vType="car" speedFactor="1.02" vaporized=""/>
    <tripinfo id="flow_route_8_duration_20250327_1950.2" depart="13.00" departLane="133000078#0_0" departPos="37.86" departSpeed="0.00" departDelay="1.00" arrival="70.00" arrivalLane="1235147073.116_0" arrivalPos="9.13" arrivalSpeed="14.68" duration="57.00" routeLength="331.45" waitingTime="4.00" waitingCount="1" stopTime="0.00" timeLoss="33.41" rerouteNo="0" devices="tripinfo_flow_route_8_duration_20250327_1950.2" vType="car" speedFactor="0.89" vaporized=""/>
    <tripinfo id="flow_route_11_duration_20250327_1950.7" depart="53.00" departLane="1252820505#0_0" departPos="79.59" departSpeed="0.00" departDelay="0.50" arrival="71.00" arrivalLane="137406408#0_2" arrivalPos="21.26" arrivalSpeed="11.57" duration="18.00" routeLength="103.25" waitingTime="0.00" waitingCount="0" stopTime="0.00" timeLoss="11.39" rerouteNo="0" devices="tripinfo_flow_route_11_duration_20250327_1950.7" vType="car" speedFactor="1.02" vaporized=""/>
    <tripinfo id="flow_route_8_duration_20250327_1950.5" depart="33.00" departLane="133000078#0_0" departPos="113.41" departSpeed="0.00" departDelay="3.00" arrival="72.00" arrivalLane="1235147073.116_0" arrivalPos="14.98" arrivalSpeed="16.22" duration="39.00" routeLength="261.75" waitingTime="0.00" waitingCount="0" stopTime="0.00" timeLoss="22.10" rerouteNo="0" devices="tripinfo_flow_route_8_duration_20250327_1950.5" vType="car" speedFactor="1.02" vaporized=""/>
    <tripinfo id="flow_route_8_duration_20250327_1950.8" depart="49.00" departLane="133000078#0_0" departPos="152.60" departSpeed="0.00" departDelay="1.00" arrival="77.00" arrivalLane="1235147073.116_0" arrivalPos="8.72" arrivalSpeed="15.98" duration="28.00" routeLength="216.30" waitingTime="0.00" waitingCount="0" stopTime="0.00" timeLoss="13.04" rerouteNo="0" devices="tripinfo_flow_route_8_duration_20250327_1950.8" vType="car" speedFactor="0.97" vaporized=""/>
    <tripinfo id="flow_route_11_duration_20250327_1950.6" depart="45.00" departLane="1252820505#0_0" departPos="16.56" departSpeed="0.00" departDelay="0.00" arrival="78.00" arrivalLane="137406408#0_2" arrivalPos="84.88" arrivalSpeed="15.57" duration="33.00" routeLength="229.89" waitingTime="0.00" waitingCount="0" stopTime="0.00" timeLoss="18.22" rerouteNo="0" devices="tripinfo_flow_route_11_duration_20250327_1950.6" vType="car" speedFactor="1.03" vaporized=""/>
    <tripinfo id="flow_route_10_duration_20250327_1950.4" depart="48.00" departLane="1252820505#0_0" departPos="0.64" departSpeed="0.00" departDelay="0.00" arrival="78.00" arrivalLane="1235147073.116_0" arrivalPos="0.53" arrivalSpeed="16.14" duration="30.00" routeLength="267.63" waitingTime="0.00" waitingCount="0" stopTime="0.00" timeLoss="13.27" rerouteNo="0" devices="tripinfo_flow_route_10_duration_20250327_1950.4" vType="car" speedFactor="1.15" vaporized=""/>
    <tripinfo id="flow_route_5_duration_20250327_1950.1" depart="7.00" departLane="291974733#0_0" departPos="31.04" departSpeed="0.00" departDelay="0.33" arrival="88.00" arrivalLane="1342054204_0" arrivalPos="2.60" arrivalSpeed="9.53" duration="81.00" routeLength="109.81" waitingTime="54.00" waitingCount="1" stopTime="0.00" timeLoss="72.58" rerouteNo="0" devices="tripinfo_flow_route_5_duration_20250327_1950.1" vType="car" speedFactor="0.88" vaporized=""/>
    <tripinfo id="flow_route_8_duration_20250327_1950.6" depart="36.00" departLane="133000078#0_0" departPos="23.61" departSpeed="0.00" departDelay="0.00" arrival="89.00" arrivalLane="1235147073.116_0" arrivalPos="10.08" arrivalSpeed="15.20" duration="53.00" routeLength="346.65" waitingTime="3.00" waitingCount="1" stopTime="0.00" timeLoss="30.71" rerouteNo="0" devices="tripinfo_flow_route_8_duration_20250327_1950.6" vType="car" speedFactor="1.02" vaporized=""/>
    <tripinfo id="flow_route_5_duration_20250327_1950.0" depart="0.00" departLane="291974733#0_0" departPos="43.68" departSpeed="0.00" departDelay="0.00" arrival="91.00" arrivalLane="1342054204_0" arrivalPos="62.15" arrivalSpeed="13.23" duration="91.00" routeLength="156.72" waitingTime="61.00" waitingCount="1" stopTime="0.00" timeLoss="79.88" rerouteNo="0" devices="tripinfo_flow_route_5_duration_20250327_1950.0" vType="car" speedFactor="0.94" vaporized=""/>
    <tripinfo id="flow_route_8_duration_20250327_1950.7" depart="42.00" departLane="133000078#0_0" departPos="23.68" departSpeed="0.00" departDelay="0.00" arrival="91.00" arrivalLane="1235147073.116_0" arrivalPos="8.87" arrivalSpeed="15.65" duration="49.00" routeLength="345.38" waitingTime="0.00" waitingCount="0" stopTime="0.00" timeLoss="26.69" rerouteNo="0" devices="tripinfo_flow_route_8_duration_20250327_1950.7" vType="car" speedFactor="1.06" vaporized=""/>
    <tripinfo id="flow_route_8_duration_20250327_1950.9" depart="55.00" departLane="133000078#0_0" departPos="2.75" departSpeed="0.00" departDelay="1.00" arrival="92.00" arrivalLane="1235147073.116_0" arrivalPos="5.31" arrivalSpeed="15.26" duration="37.00" routeLength="362.74" waitingTime="0.00" waitingCount="0" stopTime="0.00" timeLoss="11.87" rerouteNo="0" devices="tripinfo_flow_route_8_duration_20250327_1950.9" vType="car" speedFactor="0.92" vaporized=""/>
    <tripinfo id="flow_route_23_duration_20250327_1950.1" depart="19.00" departLane="137415945#0_0" departPos="2.70" departSpeed="0.00" departDelay="14.00" arrival="93.00" arrivalLane="379698350#0_2" arrivalPos="48.82" arrivalSpeed="12.99" duration="74.00" routeLength="238.47" waitingTime="36.00" waitingCount="1" stopTime="0.00" timeLoss="59.29" rerouteNo="0" devices="tripinfo_flow_route_23_duration_20250327_1950.1" vType="car" speedFactor="1.12" vaporized=""/>
    <tripinfo id="flow_route_5_duration_20250327_1950.2" depart="15.00" departLane="291974733#0_0" departPos="31.77" departSpeed="0.00" departDelay="1.67" arrival="96.00" arrivalLane="1342054204_0" arrivalPos="55.97" arrivalSpeed="13.08" duration="81.00" routeLength="162.45" waitingTime="49.00" waitingCount="1" stopTime="0.00" timeLoss="69.58" rerouteNo="0" devices="tripinfo_flow_route_5_duration_20250327_1950.2" vType="car" speedFactor="0.95" vaporized=""/>
    <tripinfo id="flow_route_5_duration_20250327_1950.3" depart="22.00" departLane="291974733#0_0" departPos="9.81" departSpeed="0.00" departDelay="2.00" arrival="97.00" arrivalLane="1342054204_0" arrivalPos="36.92" arrivalSpeed="11.86" duration="75.00" routeLength="165.36" waitingTime="41.00" waitingCount="1" stopTime="0.00" timeLoss="63.44" rerouteNo="0" devices="tripinfo_flow_route_5_duration_20250327_1950.3" vType="car" speedFactor="0.97" vaporized=""/>
    <tripinfo id="flow_route_23_duration_20250327_1950.0" depart="0.00" departLane="137415945#0_0" departPos="0.59" departSpeed="0.00" departDelay="0.00" arrival="99.00" arrivalLane="379698350#0_2" arrivalPos="153.67" arrivalSpeed="14.02" duration="99.00" routeLength="345.44" waitingTime="53.00" waitingCount="1" stopTime="0.00" timeLoss="74.01" rerouteNo="0" devices="tripinfo_flow_route_23_duration_20250327_1950.0" vType="car" speedFactor="0.86" vaporized=""/>
    <tripinfo id="flow_route_4_duration_20250327_1950.0" depart="0.00" departLane="291974733#0_0" departPos="63.06" departSpeed="0.00" departDelay="0.00" arrival="100.00" arrivalLane="379698350#0_0" arrivalPos="183.76" arrivalSpeed="16.20" duration="100.00" routeLength="311.60" waitingTime="63.00" waitingCount="1" stopTime="0.00" timeLoss="81.17" rerouteNo="0" devices="tripinfo_flow_route_4_duration_20250327_1950.0" vType="car" speedFactor="1.06" vaporized=""/>
    <tripinfo id="flow_route_5_duration_20250327_1950.4" depart="35.00" departLane="291974733#0_0" departPos="44.07" departSpeed="0.00" departDelay="8.34" arrival="101.00" arrivalLane="1342054204_0" arrivalPos="62.13" arrivalSpeed="13.57" duration="66.00" routeLength="156.31" waitingTime="37.00" waitingCount="1" stopTime="0.00" timeLoss="53.52" rerouteNo="0" devices="tripinfo_flow_route_5_duration_20250327_1950.4" vType="car" speedFactor="0.85" vaporized=""/>
    <tripinfo id="flow_route_23_duration_20250327_1950.2" depart="40.00" departLane="137415945#0_0" departPos="4.12" departSpeed="0.00" departDelay="30.00" arrival="102.00" arrivalLane="379698350#0_2" arrivalPos="167.41" arrivalSpeed="16.23" duration="62.00" routeLength="355.64" waitingTime="15.00" waitingCount="1" stopTime="0.00" timeLoss="40.33" rerouteNo="0" devices="tripinfo_flow_route_23_duration_20250327_1950.2" vType="car" speedFactor="1.01" vaporized=""/>
    <tripinfo id="flow_route_5_duration_20250327_1950.6" depart="41.00" departLane="291974733#0_0" departPos="14.77" departSpeed="0.00" departDelay="1.00" arrival="103.00" arrivalLane="1342054204_0" arrivalPos="29.03" arrivalSpeed="11.73" duration="62.00" routeLength="152.51" waitingTime="30.00" waitingCount="1" stopTime="0.00" timeLoss="51.98" rerouteNo="0" devices="tripinfo_flow_route_5_duration_20250327_1950.6" vType="car" speedFactor="1.02" vaporized=""/>
    <tripinfo id="flow_route_5_duration_20250327_1950.5" depart="35.00" departLane="291974733#0_0" departPos="31.75" departSpeed="0.00" departDelay="1.67" arrival="104.00" arrivalLane="1342054204_0" arrivalPos="85.57" arrivalSpeed="15.20" duration="69.00" routeLength="192.07" waitingTime="36.00" waitingCount="1" stopTime="0.00" timeLoss="56.54" rerouteNo="0" devices="tripinfo_flow_route_5_duration_20250327_1950.5" vType="car" speedFactor="1.02" vaporized=""/>
    <tripinfo id="flow_route_5_duration_20250327_1950.8" depart="65.00" departLane="291974733#0_0" departPos="20.24" departSpeed="0.00" departDelay="11.67" arrival="107.00" arrivalLane="1342054204_0" arrivalPos="16.40" arrivalSpeed="11.75" duration="42.00" routeLength="134.41" waitingTime="13.00" waitingCount="1" stopTime="0.00" timeLoss="30.93" rerouteNo="0" devices="tripinfo_flow_route_5_duration_20250327_1950.8" vType="car" speedFactor="0.83" vaporized=""/>
    <tripinfo id="flow_route_23_duration_20250327_1950.4" depart="78.00" departLane="137415945#0_0" departPos="10.16" departSpeed="0.00" departDelay="58.00" arrival="108.00" arrivalLane="379698350#0_2" arrivalPos="80.38" arrivalSpeed="14.85" duration="30.00" routeLength="262.57" waitingTime="0.00" waitingCount="0" stopTime="0.00" timeLoss="13.91" rerouteNo="0" devices="tripinfo_flow_route_23_duration_20250327_1950.4" vType="car" speedFactor="1.10" vaporized=""/>
    <tripinfo id="flow_route_5_duration_20250327_1950.7" depart="53.00" departLane="291974733#0_0" departPos="20.79" departSpeed="0.00" departDelay="6.34" arrival="109.00" arrivalLane="1342054204_0" arrivalPos="80.08" arrivalSpeed="14.98" duration="56.00" routeLength="197.53" waitingTime="22.00" waitingCount="1" stopTime="0.00" timeLoss="42.85" rerouteNo="0" devices="tripinfo_flow_route_5_duration_20250327_1950.7" vType="car" speedFactor="1.03" vaporized=""/>
    <tripinfo id="flow_route_23_duration_20250327_1950.3" depart="64.00" departLane="137415945#0_0" departPos="4.35" departSpeed="0.00" departDelay="49.00" arrival="110.00" arrivalLane="379698350#0_2" arrivalPos="204.65" arrivalSpeed="16.26" duration="46.00" routeLength="392.65" waitingTime="0.00" waitingCount="0" stopTime="0.00" timeLoss="21.45" rerouteNo="0" devices="tripinfo_flow_route_23_duration_20250327_1950.3" vType="car" speedFactor="1.01" vaporized=""/>
    <tripinfo id="flow_route_12_duration_20250327_1950.0" depart="0.00" departLane="133000078#0_0" departPos="66.48" departSpeed="0.00" departDelay="0.00" arrival="126.00" arrivalLane="1342054204_3" arrivalPos="21.59" arrivalSpeed="13.21" duration="126.00" routeLength="252.91" waitingTime="88.00" waitingCount="1" stopTime="0.00" timeLoss="108.70" rerouteNo="0" devices="tripinfo_flow_route_12_duration_20250327_1950.0" vType="car" speedFactor="0.89" vaporized=""/>
    <tripinfo id="flow_route_12_duration_20250327_1950.2" depart="15.00" departLane="133000078#0_0" departPos="117.10" departSpeed="0.00" departDelay="0.00" arrival="127.00" arrivalLane="1342054204_3" arrivalPos="5.84" arrivalSpeed="13.01" duration="112.00" routeLength="186.54" waitingTime="78.00" waitingCount="1" stopTime="0.00" timeLoss="100.20" rerouteNo="0" devices="tripinfo_flow_route_12_duration_20250327_1950.2" vType="car" speedFactor="1.18" vaporized=""/>
    <tripinfo id="flow_route_7_duration_20250327_1950.0" depart="0.00" departLane="133000078#0_0" departPos="116.92" departSpeed="0.00" departDelay="0.00" arrival="129.00" arrivalLane="137406408#0_1" arrivalPos="45.36" arrivalSpeed="14.03" duration="129.00" routeLength="233.24" waitingTime="91.00" waitingCount="1" stopTime="0.00" timeLoss="114.61" rerouteNo="0" devices="tripinfo_flow_route_7_duration_20250327_1950.0" vType="car" speedFactor="1.08" vaporized=""/>
    <tripinfo id="flow_route_12_duration_20250327_1950.1" depart="8.00" departLane="133000078#0_0" departPos="46.07" departSpeed="0.00" departDelay="0.50" arrival="130.00" arrivalLane="1342054204_3" arrivalPos="10.94" arrivalSpeed="13.13" duration="122.00" routeLength="262.66" waitingTime="76.00" waitingCount="1" stopTime="0.00" timeLoss="104.81" rerouteNo="0" devices="tripinfo_flow_route_12_duration_20250327_1950.1" vType="car" speedFactor="0.94" vaporized=""/>
    <tripinfo id="flow_route_7_duration_20250327_1950.1" depart="20.00" departLane="133000078#0_0" departPos="120.79" departSpeed="0.00" departDelay="0.00" arrival="131.00" arrivalLane="137406408#0_1" arrivalPos="56.78" arrivalSpeed="15.06" duration="111.00" routeLength="240.78" waitingTime="65.00" waitingCount="2" stopTime="0.00" timeLoss="96.43" rerouteNo="0" devices="tripinfo_flow_route_7_duration_20250327_1950.1" vType="car" speedFactor="1.18" vaporized=""/>
    <tripinfo id="flow_route_7_duration_20250327_1950.2" depart="40.00" departLane="133000078#0_0" departPos="75.68" departSpeed="0.00" departDelay="0.00" arrival="131.00" arrivalLane="137406408#0_1" arrivalPos="19.15" arrivalSpeed="13.70" duration="91.00" routeLength="248.28" waitingTime="52.00" waitingCount="1" stopTime="0.00" timeLoss="75.29" rerouteNo="0" devices="tripinfo_flow_route_7_duration_20250327_1950.2" vType="car" speedFactor="1.02" vaporized=""/>
    <tripinfo id="flow_route_12_duration_20250327_1950.3" depart="23.00" departLane="133000078#0_0" departPos="146.76" departSpeed="0.00" departDelay="0.50" arrival="135.00" arrivalLane="1342054204_3" arrivalPos="54.54" arrivalSpeed="15.03" duration="112.00" routeLength="205.58" waitingTime="74.00" waitingCount="1" stopTime="0.00" timeLoss="98.82" rerouteNo="0" devices="tripinfo_flow_route_12_duration_20250327_1950.3" vType="car" speedFactor="0.96" vaporized=""/>
    <tripinfo id="flow_route_12_duration_20250327_1950.4" depart="33.00" departLane="133000078#0_0" departPos="3.02" departSpeed="0.00" departDelay="3.00" arrival="137.00" arrivalLane="1342054204_3" arrivalPos="13.40" arrivalSpeed="13.93" duration="104.00" routeLength="308.18" waitingTime="59.00" waitingCount="1" stopTime="0.00" timeLoss="84.72" rerouteNo="0" devices="tripinfo_flow_route_12_duration_20250327_1950.4" vType="car" speedFactor="1.00" vaporized=""/>
    <tripinfo id="flow_route_12_duration_20250327_1950.5" depart="38.00" departLane="133000078#0_0" departPos="95.58" departSpeed="0.00" departDelay="0.50" arrival="140.00" arrivalLane="1342054204_3" arrivalPos="86.95" arrivalSpeed="14.84" duration="102.00" routeLength="289.17" waitingTime="60.00" waitingCount="1" stopTime="0.00" timeLoss="82.50" rerouteNo="0" devices="tripinfo_flow_route_12_duration_20250327_1950.5" vType="car" speedFactor="0.91" vaporized=""/>
    <tripinfo id="flow_route_12_duration_20250327_1950.6" depart="46.00" departLane="133000078#0_0" departPos="45.55" departSpeed="0.00" departDelay="1.00" arrival="141.00" arrivalLane="1342054204_3" arrivalPos="27.99" arrivalSpeed="14.72" duration="95.00" routeLength="280.23" waitingTime="51.00" waitingCount="1" stopTime="0.00" timeLoss="77.29" rerouteNo="0" devices="tripinfo_flow_route_12_duration_20250327_1950.6" vType="car" speedFactor="0.98" vaporized=""/>
    <tripinfo id="flow_route_12_duration_20250327_1950.7" depart="53.00" departLane="133000078#0_0" departPos="47.69" departSpeed="0.00" departDelay="0.50" arrival="144.00" arrivalLane="1342054204_3" arrivalPos="47.60" arrivalSpeed="16.33" duration="91.00" routeLength="297.71" waitingTime="46.00" waitingCount="1" stopTime="0.00" timeLoss="72.39" rerouteNo="0" devices="tripinfo_flow_route_12_duration_20250327_1950.7" vType="car" speedFactor="1.02" vaporized=""/>
    <tripinfo id="flow_route_22_duration_20250327_1950.4" depart="29.00" departLane="137415945#0_0" departPos="0.54" departSpeed="0.00" departDelay="21.50" arrival="163.00" arrivalLane="1342054204_1" arrivalPos="35.88" arrivalSpeed="12.64" duration="134.00" routeLength="228.67" waitingTime="96.00" waitingCount="1" stopTime="0.00" timeLoss="119.63" rerouteNo="0" devices="tripinfo_flow_route_22_duration_20250327_1950.4" vType="car" speedFactor="1.16" vaporized=""/>
    <tripinfo id="flow_route_22_duration_20250327_1950.5" depart="35.00" departLane="137415945#0_0" departPos="4.40" departSpeed="0.00" departDelay="25.63" arrival="164.00" arrivalLane="1342054204_0" arrivalPos="21.06" arrivalSpeed="11.46" duration="129.00" routeLength="209.98" waitingTime="94.00" waitingCount="1" stopTime="0.00" timeLoss="115.72" rerouteNo="0" devices="tripinfo_flow_route_22_duration_20250327_1950.5" vType="car" speedFactor="1.02" vaporized=""/>
    <tripinfo id="flow_route_22_duration_20250327_1950.3" depart="22.00" departLane="137415945#0_0" departPos="0.30" departSpeed="0.00" departDelay="16.38" arrival="165.00" arrivalLane="1342054204_0" arrivalPos="66.69" arrivalSpeed="14.25" duration="143.00" routeLength="259.71" waitingTime="103.00" waitingCount="1" stopTime="0.00" timeLoss="125.81" rerouteNo="0" devices="tripinfo_flow_route_22_duration_20250327_1950.3" vType="car" speedFactor="0.93" vaporized=""/>
    <tripinfo id="flow_route_22_duration_20250327_1950.7" depart="54.00" departLane="137415945#0_0" departPos="3.36" departSpeed="0.00" departDelay="40.88" arrival="165.00" arrivalLane="1342054204_1" arrivalPos="13.24" arrivalSpeed="11.98" duration="111.00" routeLength="203.21" waitingTime="75.00" waitingCount="1" stopTime="0.00" timeLoss="98.17" rerouteNo="0" devices="tripinfo_flow_route_22_duration_20250327_1950.7" vType="car" speedFactor="1.13" vaporized=""/>