<?xml version="1.0" encoding="UTF-8"?>

<!-- generated on 2025-05-06 21:07:41 by Eclipse SUMO sumo Version 1.20.0
<configuration xmlns:xsi="http://www.w3.org/2001/XMLSchema-instance" xsi:noNamespaceSchemaLocation="http://sumo.dlr.de/xsd/sumoConfiguration.xsd">

    <input>
        <net-file value="osm.net.xml"/>
        <route-files value="xml/route_rl_cluster_11657899598_353811979_6712514804_0.rou.xml"/>
    </input>

    <output>
        <tripinfo-output value="xml/tripinfo_rl_cluster_11657899598_353811979_6712514804_0.xml"/>
    </output>

    <traci_server>
        <remote-port value="36585"/>
    </traci_server>

</configuration>
-->

<tripinfos xmlns:xsi="http://www.w3.org/2001/XMLSchema-instance" xsi:noNamespaceSchemaLocation="http://sumo.dlr.de/xsd/tripinfo_file.xsd">
    <tripinfo id="flow_route_136_duration_20250327_2210.0" depart="0.00" departLane="688883939#0_0" departPos="70.95" departSpeed="0.00" departDelay="0.00" arrival="22.00" arrivalLane="186410975#0_1" arrivalPos="11.74" arrivalSpeed="11.21" duration="22.00" routeLength="133.80" waitingTime="1.00" waitingCount="1" stopTime="0.00" timeLoss="11.77" rerouteNo="0" devices="tripinfo_flow_route_136_duration_20250327_2210.0" vType="car" speedFactor="1.01" vaporized=""/>
    <tripinfo id="flow_route_137_duration_20250327_2210.0" depart="0.00" departLane="1310781056_0" departPos="52.86" departSpeed="0.00" departDelay="0.00" arrival="22.00" arrivalLane="714011134#0_0" arrivalPos="51.79" arrivalSpeed="16.36" duration="22.00" routeLength="192.73" waitingTime="0.00" waitingCount="0" stopTime="0.00" timeLoss="9.89" rerouteNo="0" devices="tripinfo_flow_route_137_duration_20250327_2210.0" vType="car" speedFactor="1.08" vaporized=""/>
    <tripinfo id="flow_route_139_duration_20250327_2210.0" depart="1.00" departLane="1310781056_0" departPos="36.51" departSpeed="0.00" departDelay="1.00" arrival="27.00" arrivalLane="1254157399#1_1" arrivalPos="26.95" arrivalSpeed="10.22" duration="26.00" routeLength="180.27" waitingTime="0.00" waitingCount="0" stopTime="0.00" timeLoss="12.96" rerouteNo="0" devices="tripinfo_flow_route_139_duration_20250327_2210.0" vType="car" speedFactor="0.83" vaporized=""/>
    <tripinfo id="flow_route_134_duration_20250327_2210.0" depart="0.00" departLane="688883939#0_0" departPos="78.56" departSpeed="0.00" departDelay="0.00" arrival="28.00" arrivalLane="809719540#0_0" arrivalPos="239.32" arrivalSpeed="16.14" duration="28.00" routeLength="300.42" waitingTime="0.00" waitingCount="0" stopTime="0.00" timeLoss="9.69" rerouteNo="0" devices="tripinfo_flow_route_134_duration_20250327_2210.0" vType="car" speedFactor="1.06" vaporized=""/>
    <tripinfo id="flow_route_138_duration_20250327_2210.0" depart="1.00" departLane="1310781056_0" departPos="99.29" departSpeed="0.00" departDelay="1.00" arrival="35.00" arrivalLane="186410975#0_0" arrivalPos="152.27" arrivalSpeed="11.40" duration="34.00" routeLength="305.80" waitingTime="0.00" waitingCount="0" stopTime="0.00" timeLoss="11.06" rerouteNo="0" devices="tripinfo_flow_route_138_duration_20250327_2210.0" vType="car" speedFactor="1.03" vaporized=""/>
    <tripinfo id="flow_route_135_duration_20250327_2210.0" depart="0.00" departLane="688883939#0_0" departPos="0.64" departSpeed="0.00" departDelay="0.00" arrival="45.00" arrivalLane="1254157399#1_0" arrivalPos="440.36" arrivalSpeed="16.57" duration="45.00" routeLength="573.44" waitingTime="0.00" waitingCount="0" stopTime="0.00" timeLoss="9.45" rerouteNo="0" devices="tripinfo_flow_route_135_duration_20250327_2210.0" vType="car" speedFactor="0.94" vaporized=""/>
    <tripinfo id="flow_route_152_duration_20250327_2210.0" depart="0.00" departLane="31861355#0_0" departPos="164.48" departSpeed="0.00" departDelay="0.00" arrival="53.00" arrivalLane="714011134#0_1" arrivalPos="26.08" arrivalSpeed="10.41" duration="53.00" routeLength="522.49" waitingTime="0.00" waitingCount="0" stopTime="0.00" timeLoss="17.62" rerouteNo="0" devices="tripinfo_flow_route_152_duration_20250327_2210.0" vType="car" speedFactor="0.89" vaporized=""/>
    <tripinfo id="flow_route_152_duration_20250327_2210.1" depart="10.00" departLane="31861355#0_0" departPos="190.94" departSpeed="0.00" departDelay="0.00" arrival="53.00" arrivalLane="714011134#0_1" arrivalPos="4.87" arrivalSpeed="9.74" duration="43.00" routeLength="474.81" waitingTime="0.00" waitingCount="0" stopTime="0.00" timeLoss="14.26" rerouteNo="0" devices="tripinfo_flow_route_152_duration_20250327_2210.1" vType="car" speedFactor="1.09" vaporized=""/>
    <tripinfo id="flow_route_139_duration_20250327_2210.1" depart="12.00" departLane="1310781056_0" departPos="106.49" departSpeed="0.00" departDelay="0.00" arrival="55.00" arrivalLane="1254157399#1_0" arrivalPos="391.52" arrivalSpeed="16.40" duration="43.00" routeLength="474.86" waitingTime="0.00" waitingCount="0" stopTime="0.00" timeLoss="12.58" rerouteNo="0" devices="tripinfo_flow_route_139_duration_20250327_2210.1" vType="car" speedFactor="1.03" vaporized=""/>
    <tripinfo id="flow_route_152_duration_20250327_2210.3" depart="30.00" departLane="31861355#0_0" departPos="599.76" departSpeed="0.00" departDelay="0.00" arrival="56.00" arrivalLane="714011134#0_1" arrivalPos="72.20" arrivalSpeed="13.20" duration="26.00" routeLength="133.32" waitingTime="0.00" waitingCount="0" stopTime="0.00" timeLoss="17.24" rerouteNo="0" devices="tripinfo_flow_route_152_duration_20250327_2210.3" vType="car" speedFactor="1.16" vaporized=""/>
    <tripinfo id="flow_route_153_duration_20250327_2210.1" depart="15.00" departLane="31861355#0_0" departPos="551.93" departSpeed="0.00" departDelay="0.00" arrival="62.00" arrivalLane="809719540#0_0" arrivalPos="221.41" arrivalSpeed="16.53" duration="47.00" routeLength="300.58" waitingTime="6.00" waitingCount="1" stopTime="0.00" timeLoss="26.87" rerouteNo="0" devices="tripinfo_flow_route_153_duration_20250327_2210.1" vType="car" speedFactor="1.05" vaporized=""/>
    <tripinfo id="flow_route_153_duration_20250327_2210.0" depart="0.00" departLane="31861355#0_0" departPos="37.47" departSpeed="0.00" departDelay="0.00" arrival="67.00" arrivalLane="809719540#0_0" arrivalPos="146.46" arrivalSpeed="15.58" duration="67.00" routeLength="740.10" waitingTime="0.00" waitingCount="0" stopTime="0.00" timeLoss="18.11" rerouteNo="0" devices="tripinfo_flow_route_153_duration_20250327_2210.0" vType="car" speedFactor="0.94" vaporized=""/>
    <tripinfo id="flow_route_151_duration_20250327_2210.0" depart="0.00" departLane="31861355#0_0" departPos="352.12" departSpeed="0.00" departDelay="0.00" arrival="70.00" arrivalLane="186410975#0_0" arrivalPos="191.84" arrivalSpeed="11.53" duration="70.00" routeLength="566.94" waitingTime="6.00" waitingCount="1" stopTime="0.00" timeLoss="30.22" rerouteNo="0" devices="tripinfo_flow_route_151_duration_20250327_2210.0" vType="car" speedFactor="1.05" vaporized=""/>
    <tripinfo id="flow_route_152_duration_20250327_2210.4" depart="41.00" departLane="31861355#0_0" departPos="415.45" departSpeed="0.00" departDelay="1.00" arrival="70.00" arrivalLane="714011134#0_1" arrivalPos="25.44" arrivalSpeed="14.35" duration="29.00" routeLength="270.87" waitingTime="0.00" waitingCount="0" stopTime="0.00" timeLoss="10.07" rerouteNo="0" devices="tripinfo_flow_route_152_duration_20250327_2210.4" vType="car" speedFactor="0.89" vaporized=""/>
    <tripinfo id="flow_route_151_duration_20250327_2210.3" depart="30.00" departLane="31861355#0_0" departPos="255.78" departSpeed="0.00" departDelay="0.00" arrival="72.00" arrivalLane="186410975#0_1" arrivalPos="7.70" arrivalSpeed="10.33" duration="42.00" routeLength="479.13" waitingTime="0.00" waitingCount="0" stopTime="0.00" timeLoss="10.77" rerouteNo="0" devices="tripinfo_flow_route_151_duration_20250327_2210.3" vType="car" speedFactor="0.94" vaporized=""/>
    <tripinfo id="flow_route_151_duration_20250327_2210.1" depart="10.00" departLane="31861355#0_0" departPos="318.97" departSpeed="0.00" departDelay="0.00" arrival="73.00" arrivalLane="186410975#0_0" arrivalPos="176.45" arrivalSpeed="9.40" duration="63.00" routeLength="584.69" waitingTime="0.00" waitingCount="0" stopTime="0.00" timeLoss="16.34" rerouteNo="0" devices="tripinfo_flow_route_151_duration_20250327_2210.1" vType="car" speedFactor="0.86" vaporized=""/>
    <tripinfo id="flow_route_152_duration_20250327_2210.2" depart="20.00" departLane="31861355#0_0" departPos="20.16" departSpeed="0.00" departDelay="0.00" arrival="74.00" arrivalLane="714011134#0_1" arrivalPos="57.37" arrivalSpeed="16.22" duration="54.00" routeLength="698.09" waitingTime="0.00" waitingCount="0" stopTime="0.00" timeLoss="11.75" rerouteNo="0" devices="tripinfo_flow_route_152_duration_20250327_2210.2" vType="car" speedFactor="0.99" vaporized=""/>
    <tripinfo id="flow_route_151_duration_20250327_2210.2" depart="20.00" departLane="31861355#0_0" departPos="147.19" departSpeed="0.00" departDelay="0.00" arrival="75.00" arrivalLane="186410975#0_0" arrivalPos="102.36" arrivalSpeed="11.99" duration="55.00" routeLength="682.38" waitingTime="0.00" waitingCount="0" stopTime="0.00" timeLoss="11.51" rerouteNo="0" devices="tripinfo_flow_route_151_duration_20250327_2210.2" vType="car" speedFactor="1.12" vaporized=""/>
    <tripinfo id="flow_route_153_duration_20250327_2210.2" depart="30.00" departLane="31861355#0_0" departPos="164.20" departSpeed="0.00" departDelay="0.00" arrival="82.00" arrivalLane="809719540#0_0" arrivalPos="88.99" arrivalSpeed="12.88" duration="52.00" routeLength="555.90" waitingTime="0.00" waitingCount="0" stopTime="0.00" timeLoss="17.34" rerouteNo="0" devices="tripinfo_flow_route_153_duration_20250327_2210.2" vType="car" speedFactor="1.02" vaporized=""/>
    <tripinfo id="flow_route_151_duration_20250327_2210.5" depart="50.00" departLane="31861355#0_0" departPos="593.77" departSpeed="0.00" departDelay="0.00" arrival="84.00" arrivalLane="186410975#0_0" arrivalPos="149.72" arrivalSpeed="9.80" duration="34.00" routeLength="283.16" waitingTime="0.00" waitingCount="0" stopTime="0.00" timeLoss="10.45" rerouteNo="0" devices="tripinfo_flow_route_151_duration_20250327_2210.5" vType="car" speedFactor="0.92" vaporized=""/>
    <tripinfo id="flow_route_136_duration_20250327_2210.1" depart="30.00" departLane="688883939#0_0" departPos="13.64" departSpeed="0.00" departDelay="0.00" arrival="94.00" arrivalLane="186410975#0_1" arrivalPos="41.07" arrivalSpeed="9.34" duration="64.00" routeLength="220.45" waitingTime="27.00" waitingCount="1" stopTime="0.00" timeLoss="45.52" rerouteNo="0" devices="tripinfo_flow_route_136_duration_20250327_2210.1" vType="car" speedFactor="0.88" vaporized=""/>
    <tripinfo id="flow_route_139_duration_20250327_2210.2" depart="24.00" departLane="1310781056_0" departPos="86.69" departSpeed="0.00" departDelay="0.00" arrival="98.00" arrivalLane="1254157399#1_0" arrivalPos="186.50" arrivalSpeed="16.23" duration="74.00" routeLength="289.64" waitingTime="35.00" waitingCount="1" stopTime="0.00" timeLoss="54.88" rerouteNo="0" devices="tripinfo_flow_route_139_duration_20250327_2210.2" vType="car" speedFactor="0.93" vaporized=""/>
    <tripinfo id="flow_route_139_duration_20250327_2210.3" depart="36.00" departLane="1310781056_0" departPos="19.05" departSpeed="0.00" departDelay="0.00" arrival="98.00" arrivalLane="1254157399#1_1" arrivalPos="137.91" arrivalSpeed="15.17" duration="62.00" routeLength="308.69" waitingTime="19.00" waitingCount="1" stopTime="0.00" timeLoss="42.24" rerouteNo="0" devices="tripinfo_flow_route_139_duration_20250327_2210.3" vType="car" speedFactor="1.01" vaporized=""/>
    <tripinfo id="flow_route_138_duration_20250327_2210.1" depart="30.00" departLane="1310781056_0" departPos="14.22" departSpeed="0.00" departDelay="0.00" arrival="114.00" arrivalLane="186410975#0_0" arrivalPos="246.91" arrivalSpeed="10.02" duration="84.00" routeLength="485.51" waitingTime="24.00" waitingCount="1" stopTime="0.00" timeLoss="45.34" rerouteNo="0" devices="tripinfo_flow_route_138_duration_20250327_2210.1" vType="car" speedFactor="0.94" vaporized=""/>
    <tripinfo id="flow_route_152_duration_20250327_2210.5" depart="50.00" departLane="31861355#0_0" departPos="114.01" departSpeed="0.00" departDelay="0.00" arrival="125.00" arrivalLane="714011134#0_1" arrivalPos="17.75" arrivalSpeed="10.69" duration="75.00" routeLength="564.61" waitingTime="18.00" waitingCount="1" stopTime="0.00" timeLoss="38.65" rerouteNo="0" devices="tripinfo_flow_route_152_duration_20250327_2210.5" vType="car" speedFactor="0.95" vaporized=""/>
    <tripinfo id="flow_route_139_duration_20250327_2210.4" depart="48.00" departLane="1310781056_0" departPos="55.86" departSpeed="0.00" departDelay="0.00" arrival="128.00" arrivalLane="1254157399#1_0" arrivalPos="593.29" arrivalSpeed="16.49" duration="80.00" routeLength="727.26" waitingTime="11.00" waitingCount="1" stopTime="0.00" timeLoss="34.04" rerouteNo="0" devices="tripinfo_flow_route_139_duration_20250327_2210.4" vType="car" speedFactor="0.87" vaporized=""/>
    <tripinfo id="flow_route_153_duration_20250327_2210.3" depart="48.00" departLane="31861355#0_0" departPos="191.38" departSpeed="0.00" departDelay="3.00" arrival="135.00" arrivalLane="809719540#0_0" arrivalPos="192.20" arrivalSpeed="13.67" duration="87.00" routeLength="631.92" waitingTime="21.00" waitingCount="1" stopTime="0.00" timeLoss="40.07" rerouteNo="0" devices="tripinfo_flow_route_153_duration_20250327_2210.3" vType="car" speedFactor="0.83" vaporized=""/>
    <tripinfo id="flow_route_151_duration_20250327_2210.4" depart="41.00" departLane="31861355#0_0" departPos="55.35" departSpeed="0.00" departDelay="1.00" arrival="141.00" arrivalLane="186410975#0_0" arrivalPos="147.54" arrivalSpeed="10.63" duration="100.00" routeLength="819.39" waitingTime="22.00" waitingCount="1" stopTime="0.00" timeLoss="45.06" rerouteNo="0" devices="tripinfo_flow_route_151_duration_20250327_2210.4" vType="car" speedFactor="0.97" vaporized=""/>
</tripinfos>
