<?xml version="1.0" encoding="UTF-8"?>

<!-- generated on 2025-05-06 21:08:05 by Eclipse SUMO sumo Version 1.20.0
<configuration xmlns:xsi="http://www.w3.org/2001/XMLSchema-instance" xsi:noNamespaceSchemaLocation="http://sumo.dlr.de/xsd/sumoConfiguration.xsd">

    <input>
        <net-file value="osm.net.xml"/>
        <route-files value="xml/route_static_cluster_11644940323_11644940324_3828703845_2.rou.xml"/>
    </input>

    <output>
        <tripinfo-output value="xml/tripinfo_static_cluster_11644940323_11644940324_3828703845_2.xml"/>
    </output>

    <traci_server>
        <remote-port value="36661"/>
    </traci_server>

</configuration>
-->

<tripinfos xmlns:xsi="http://www.w3.org/2001/XMLSchema-instance" xsi:noNamespaceSchemaLocation="http://sumo.dlr.de/xsd/tripinfo_file.xsd">
    <tripinfo id="flow_route_3_duration_20250327_2010.0" depart="0.00" departLane="1318793173#0_0" departPos="80.53" departSpeed="0.00" departDelay="0.00" arrival="19.00" arrivalLane="291974733#0_1" arrivalPos="66.76" arrivalSpeed="13.99" duration="19.00" routeLength="123.20" waitingTime="0.00" waitingCount="0" stopTime="0.00" timeLoss="10.27" rerouteNo="0" devices="tripinfo_flow_route_3_duration_20250327_2010.0" vType="car" speedFactor="0.94" vaporized=""/>
    <tripinfo id="flow_route_16_duration_20250327_2010.0" depart="0.00" departLane="137406408#0_0" departPos="52.27" departSpeed="0.00" departDelay="0.00" arrival="20.00" arrivalLane="133126040#0_0" arrivalPos="80.39" arrivalSpeed="14.46" duration="20.00" routeLength="149.31" waitingTime="0.00" waitingCount="0" stopTime="0.00" timeLoss="10.92" rerouteNo="0" devices="tripinfo_flow_route_16_duration_20250327_2010.0" vType="car" speedFactor="1.05" vaporized=""/>
    <tripinfo id="flow_route_2_duration_20250327_2010.0" depart="0.00" departLane="1318793173#0_0" departPos="58.93" departSpeed="0.00" departDelay="0.00" arrival="21.00" arrivalLane="189835257_0" arrivalPos="46.92" arrivalSpeed="15.38" duration="21.00" routeLength="167.93" waitingTime="0.00" waitingCount="0" stopTime="0.00" timeLoss="10.18" rerouteNo="0" devices="tripinfo_flow_route_2_duration_20250327_2010.0" vType="car" speedFactor="1.06" vaporized=""/>
    <tripinfo id="flow_route_17_duration_20250327_2010.0" depart="0.00" departLane="137406408#0_0" departPos="24.41" departSpeed="0.00" departDelay="0.00" arrival="23.00" arrivalLane="1254771874#0_0" arrivalPos="63.27" arrivalSpeed="16.13" duration="23.00" routeLength="182.06" waitingTime="0.00" waitingCount="0" stopTime="0.00" timeLoss="10.06" rerouteNo="0" devices="tripinfo_flow_route_17_duration_20250327_2010.0" vType="car" speedFactor="0.89" vaporized=""/>
    <tripinfo id="flow_route_9_duration_20250327_2010.0" depart="0.00" departLane="1318793173#0_0" departPos="0.65" departSpeed="0.00" departDelay="0.00" arrival="24.00" arrivalLane="1254771874#0_1" arrivalPos="11.63" arrivalSpeed="10.99" duration="24.00" routeLength="169.44" waitingTime="0.00" waitingCount="0" stopTime="0.00" timeLoss="12.41" rerouteNo="0" devices="tripinfo_flow_route_9_duration_20250327_2010.0" vType="car" speedFactor="1.01" vaporized=""/>
    <tripinfo id="flow_route_2_duration_20250327_2010.2" depart="9.00" departLane="1318793173#0_0" departPos="68.46" departSpeed="0.00" departDelay="0.43" arrival="28.00" arrivalLane="189835257_0" arrivalPos="27.01" arrivalSpeed="13.82" duration="19.00" routeLength="138.49" waitingTime="0.00" waitingCount="0" stopTime="0.00" timeLoss="9.87" rerouteNo="0" devices="tripinfo_flow_route_2_duration_20250327_2010.2" vType="car" speedFactor="1.09" vaporized=""/>
    <tripinfo id="flow_route_2_duration_20250327_2010.1" depart="5.00" departLane="1318793173#0_0" departPos="34.79" departSpeed="0.00" departDelay="0.72" arrival="31.00" arrivalLane="189835257_0" arrivalPos="46.11" arrivalSpeed="15.34" duration="26.00" routeLength="191.25" waitingTime="0.00" waitingCount="0" stopTime="0.00" timeLoss="12.73" rerouteNo="0" devices="tripinfo_flow_route_2_duration_20250327_2010.1" vType="car" speedFactor="0.94" vaporized=""/>
    <tripinfo id="flow_route_2_duration_20250327_2010.3" depart="14.00" departLane="1318793173#0_0" departPos="17.19" departSpeed="0.00" departDelay="1.15" arrival="41.00" arrivalLane="189835257_0" arrivalPos="15.89" arrivalSpeed="13.78" duration="27.00" routeLength="178.64" waitingTime="0.00" waitingCount="0" stopTime="0.00" timeLoss="15.41" rerouteNo="0" devices="tripinfo_flow_route_2_duration_20250327_2010.3" vType="car" speedFactor="0.99" vaporized=""/>
    <tripinfo id="flow_route_2_duration_20250327_2010.5" depart="22.00" departLane="1318793173#0_0" departPos="74.74" departSpeed="0.00" departDelay="0.58" arrival="41.00" arrivalLane="189835257_0" arrivalPos="37.68" arrivalSpeed="14.63" duration="19.00" routeLength="142.88" waitingTime="0.00" waitingCount="0" stopTime="0.00" timeLoss="9.48" rerouteNo="0" devices="tripinfo_flow_route_2_duration_20250327_2010.5" vType="car" speedFactor="1.02" vaporized=""/>
    <tripinfo id="flow_route_2_duration_20250327_2010.4" depart="19.00" departLane="1318793173#0_0" departPos="18.15" departSpeed="0.00" departDelay="1.86" arrival="42.00" arrivalLane="189835257_0" arrivalPos="6.81" arrivalSpeed="13.64" duration="23.00" routeLength="168.60" waitingTime="0.00" waitingCount="0" stopTime="0.00" timeLoss="11.47" rerouteNo="0" devices="tripinfo_flow_route_2_duration_20250327_2010.4" vType="car" speedFactor="0.94" vaporized=""/>
    <tripinfo id="flow_route_13_duration_20250327_2010.0" depart="0.00" departLane="1252820503#0_0" departPos="99.64" departSpeed="0.00" departDelay="0.00" arrival="43.00" arrivalLane="291974733#0_0" arrivalPos="46.05" arrivalSpeed="9.04" duration="43.00" routeLength="103.57" waitingTime="18.00" waitingCount="1" stopTime="0.00" timeLoss="35.87" rerouteNo="0" devices="tripinfo_flow_route_13_duration_20250327_2010.0" vType="car" speedFactor="1.08" vaporized=""/>
    <tripinfo id="flow_route_15_duration_20250327_2010.0" depart="1.00" departLane="1252820503#0_0" departPos="8.92" departSpeed="0.00" departDelay="1.00" arrival="44.00" arrivalLane="133126040#0_1" arrivalPos="4.72" arrivalSpeed="7.70" duration="43.00" routeLength="174.98" waitingTime="10.00" waitingCount="1" stopTime="0.00" timeLoss="31.43" rerouteNo="0" devices="tripinfo_flow_route_15_duration_20250327_2010.0" vType="car" speedFactor="0.83" vaporized=""/>
    <tripinfo id="flow_route_13_duration_20250327_2010.1" depart="12.00" departLane="1252820503#0_0" departPos="4.80" departSpeed="0.00" departDelay="0.00" arrival="47.00" arrivalLane="291974733#0_0" arrivalPos="22.18" arrivalSpeed="8.46" duration="35.00" routeLength="174.54" waitingTime="3.00" waitingCount="1" stopTime="0.00" timeLoss="23.80" rerouteNo="0" devices="tripinfo_flow_route_13_duration_20250327_2010.1" vType="car" speedFactor="1.12" vaporized=""/>
    <tripinfo id="flow_route_2_duration_20250327_2010.7" depart="30.00" departLane="1318793173#0_0" departPos="61.29" departSpeed="0.00" departDelay="0.01" arrival="49.00" arrivalLane="189835257_0" arrivalPos="16.53" arrivalSpeed="14.03" duration="19.00" routeLength="135.18" waitingTime="0.00" waitingCount="0" stopTime="0.00" timeLoss="9.65" rerouteNo="0" devices="tripinfo_flow_route_2_duration_20250327_2010.7" vType="car" speedFactor="0.92" vaporized=""/>
    <tripinfo id="flow_route_2_duration_20250327_2010.6" depart="28.00" departLane="1318793173#0_0" departPos="19.34" departSpeed="0.00" departDelay="2.29" arrival="52.00" arrivalLane="189835257_0" arrivalPos="8.87" arrivalSpeed="13.76" duration="24.00" routeLength="169.47" waitingTime="0.00" waitingCount="0" stopTime="0.00" timeLoss="11.02" rerouteNo="0" devices="tripinfo_flow_route_2_duration_20250327_2010.6" vType="car" speedFactor="0.89" vaporized=""/>
    <tripinfo id="flow_route_13_duration_20250327_2010.3" depart="36.00" departLane="1252820503#0_0" departPos="86.61" departSpeed="0.00" departDelay="0.00" arrival="55.00" arrivalLane="291974733#0_0" arrivalPos="36.52" arrivalSpeed="9.91" duration="19.00" routeLength="107.07" waitingTime="0.00" waitingCount="0" stopTime="0.00" timeLoss="11.43" rerouteNo="0" devices="tripinfo_flow_route_13_duration_20250327_2010.3" vType="car" speedFactor="1.15" vaporized=""/>
    <tripinfo id="flow_route_14_duration_20250327_2010.0" depart="0.00" departLane="1252820503#0_0" departPos="69.02" departSpeed="0.00" departDelay="0.00" arrival="56.00" arrivalLane="1254771874#0_0" arrivalPos="150.80" arrivalSpeed="16.27" duration="56.00" routeLength="291.67" waitingTime="15.00" waitingCount="1" stopTime="0.00" timeLoss="37.84" rerouteNo="0" devices="tripinfo_flow_route_14_duration_20250327_2010.0" vType="car" speedFactor="1.03" vaporized=""/>
    <tripinfo id="flow_route_13_duration_20250327_2010.2" depart="31.00" departLane="1252820503#0_0" departPos="26.75" departSpeed="0.00" departDelay="7.00" arrival="58.00" arrivalLane="291974733#0_0" arrivalPos="28.84" arrivalSpeed="8.29" duration="27.00" routeLength="159.25" waitingTime="0.00" waitingCount="0" stopTime="0.00" timeLoss="16.64" rerouteNo="0" devices="tripinfo_flow_route_13_duration_20250327_2010.2" vType="car" speedFactor="0.97" vaporized=""/>
    <tripinfo id="flow_route_14_duration_20250327_2010.3" depart="21.00" departLane="1252820503#0_0" departPos="13.18" departSpeed="0.00" departDelay="4.64" arrival="60.00" arrivalLane="1254771874#0_1" arrivalPos="175.12" arrivalSpeed="16.31" duration="39.00" routeLength="371.82" waitingTime="0.00" waitingCount="0" stopTime="0.00" timeLoss="16.06" rerouteNo="0" devices="tripinfo_flow_route_14_duration_20250327_2010.3" vType="car" speedFactor="0.88" vaporized=""/>
    <tripinfo id="flow_route_14_duration_20250327_2010.1" depart="6.00" departLane="1252820503#0_0" departPos="6.84" departSpeed="0.00" departDelay="0.55" arrival="61.00" arrivalLane="1254771874#0_0" arrivalPos="174.74" arrivalSpeed="16.33" duration="55.00" routeLength="377.78" waitingTime="6.00" waitingCount="1" stopTime="0.00" timeLoss="31.74" rerouteNo="0" devices="tripinfo_flow_route_14_duration_20250327_2010.1" vType="car" speedFactor="0.86" vaporized=""/>
    <tripinfo id="flow_route_14_duration_20250327_2010.6" depart="33.00" departLane="1252820503#0_0" departPos="42.94" departSpeed="0.00" departDelay="0.28" arrival="61.00" arrivalLane="1254771874#0_1" arrivalPos="89.94" arrivalSpeed="16.53" duration="28.00" routeLength="256.88" waitingTime="0.00" waitingCount="0" stopTime="0.00" timeLoss="12.22" rerouteNo="0" devices="tripinfo_flow_route_14_duration_20250327_2010.6" vType="car" speedFactor="1.13" vaporized=""/>
    <tripinfo id="flow_route_2_duration_20250327_2010.10" depart="44.00" departLane="1318793173#0_0" departPos="104.99" departSpeed="0.00" departDelay="1.15" arrival="61.00" arrivalLane="189835257_0" arrivalPos="22.39" arrivalSpeed="12.31" duration="17.00" routeLength="97.34" waitingTime="0.00" waitingCount="0" stopTime="0.00" timeLoss="9.87" rerouteNo="0" devices="tripinfo_flow_route_2_duration_20250327_2010.10" vType="car" speedFactor="1.02" vaporized=""/>
    <tripinfo id="flow_route_14_duration_20250327_2010.2" depart="11.00" departLane="1252820503#0_0" departPos="80.59" departSpeed="0.00" departDelay="0.09" arrival="63.00" arrivalLane="1254771874#0_0" arrivalPos="226.89" arrivalSpeed="16.16" duration="52.00" routeLength="356.19" waitingTime="7.00" waitingCount="1" stopTime="0.00" timeLoss="29.59" rerouteNo="0" devices="tripinfo_flow_route_14_duration_20250327_2010.2" vType="car" speedFactor="1.05" vaporized=""/>
    <tripinfo id="flow_route_14_duration_20250327_2010.4" depart="27.00" departLane="1252820503#0_0" departPos="4.12" departSpeed="0.00" departDelay="5.18" arrival="63.00" arrivalLane="1254771874#0_1" arrivalPos="152.41" arrivalSpeed="16.57" duration="36.00" routeLength="358.17" waitingTime="0.00" waitingCount="0" stopTime="0.00" timeLoss="14.39" rerouteNo="0" devices="tripinfo_flow_route_14_duration_20250327_2010.4" vType="car" speedFactor="1.01" vaporized=""/>
    <tripinfo id="flow_route_2_duration_20250327_2010.8" depart="38.00" departLane="1318793173#0_0" departPos="39.46" departSpeed="0.00" departDelay="3.72" arrival="63.00" arrivalLane="189835257_0" arrivalPos="11.18" arrivalSpeed="11.44" duration="25.00" routeLength="151.66" waitingTime="0.00" waitingCount="0" stopTime="0.00" timeLoss="14.44" rerouteNo="0" devices="tripinfo_flow_route_2_duration_20250327_2010.8" vType="car" speedFactor="0.93" vaporized=""/>
    <tripinfo id="flow_route_2_duration_20250327_2010.9" depart="40.00" departLane="1318793173#0_0" departPos="67.57" departSpeed="0.00" departDelay="1.44" arrival="65.00" arrivalLane="189835257_0" arrivalPos="51.44" arrivalSpeed="13.66" duration="25.00" routeLength="163.81" waitingTime="0.00" waitingCount="0" stopTime="0.00" timeLoss="14.04" rerouteNo="0" devices="tripinfo_flow_route_2_duration_20250327_2010.9" vType="car" speedFactor="1.01" vaporized=""/>
    <tripinfo id="flow_route_14_duration_20250327_2010.5" depart="32.00" departLane="1252820503#0_0" departPos="106.87" departSpeed="0.00" departDelay="4.73" arrival="67.00" arrivalLane="1254771874#0_1" arrivalPos="237.24" arrivalSpeed="16.30" duration="35.00" routeLength="340.25" waitingTime="0.00" waitingCount="0" stopTime="0.00" timeLoss="14.12" rerouteNo="0" devices="tripinfo_flow_route_14_duration_20250327_2010.5" vType="car" speedFactor="0.87" vaporized=""/>
    <tripinfo id="flow_route_2_duration_20250327_2010.11" depart="49.00" departLane="1318793173#0_0" departPos="76.97" departSpeed="0.00" departDelay="1.87" arrival="67.00" arrivalLane="189835257_0" arrivalPos="24.56" arrivalSpeed="13.48" duration="18.00" routeLength="127.53" waitingTime="0.00" waitingCount="0" stopTime="0.00" timeLoss="8.70" rerouteNo="0" devices="tripinfo_flow_route_2_duration_20250327_2010.11" vType="car" speedFactor="0.90" vaporized=""/>
    <tripinfo id="flow_route_2_duration_20250327_2010.12" depart="52.00" departLane="1318793173#0_0" departPos="40.16" departSpeed="0.00" departDelay="0.58" arrival="72.00" arrivalLane="189835257_0" arrivalPos="7.43" arrivalSpeed="14.63" duration="20.00" routeLength="147.21" waitingTime="0.00" waitingCount="0" stopTime="0.00" timeLoss="10.00" rerouteNo="0" devices="tripinfo_flow_route_2_duration_20250327_2010.12" vType="car" speedFactor="1.09" vaporized=""/>
    <tripinfo id="flow_route_16_duration_20250327_2010.1" depart="21.00" departLane="137406408#0_0" departPos="61.67" departSpeed="0.00" departDelay="1.00" arrival="75.00" arrivalLane="133126040#0_1" arrivalPos="61.83" arrivalSpeed="11.79" duration="54.00" routeLength="121.35" waitingTime="27.00" waitingCount="1" stopTime="0.00" timeLoss="46.44" rerouteNo="0" devices="tripinfo_flow_route_16_duration_20250327_2010.1" vType="car" speedFactor="1.16" vaporized=""/>
    <tripinfo id="flow_route_17_duration_20250327_2010.2" depart="18.00" departLane="137406408#0_0" departPos="24.37" departSpeed="0.00" departDelay="0.86" arrival="76.00" arrivalLane="1254771874#0_0" arrivalPos="32.05" arrivalSpeed="11.94" duration="58.00" routeLength="150.89" waitingTime="27.00" waitingCount="1" stopTime="0.00" timeLoss="47.79" rerouteNo="0" devices="tripinfo_flow_route_17_duration_20250327_2010.2" vType="car" speedFactor="0.94" vaporized=""/>
    <tripinfo id="flow_route_16_duration_20250327_2010.2" depart="41.00" departLane="137406408#0_0" departPos="45.47" departSpeed="0.00" departDelay="1.00" arrival="77.00" arrivalLane="133126040#0_2" arrivalPos="94.70" arrivalSpeed="13.19" duration="36.00" routeLength="170.41" waitingTime="5.00" waitingCount="1" stopTime="0.00" timeLoss="25.37" rerouteNo="0" devices="tripinfo_flow_route_16_duration_20250327_2010.2" vType="car" speedFactor="0.99" vaporized=""/>
    <tripinfo id="flow_route_17_duration_20250327_2010.1" depart="11.00" departLane="137406408#0_0" departPos="36.60" departSpeed="0.00" departDelay="2.43" arrival="78.00" arrivalLane="1254771874#0_0" arrivalPos="78.49" arrivalSpeed="13.92" duration="67.00" routeLength="185.10" waitingTime="35.00" waitingCount="1" stopTime="0.00" timeLoss="55.11" rerouteNo="0" devices="tripinfo_flow_route_17_duration_20250327_2010.1" vType="car" speedFactor="1.03" vaporized=""/>
    <tripinfo id="flow_route_2_duration_20250327_2010.13" depart="57.00" departLane="1318793173#0_0" departPos="16.60" departSpeed="0.00" departDelay="1.30" arrival="81.00" arrivalLane="189835257_0" arrivalPos="35.56" arrivalSpeed="15.87" duration="24.00" routeLength="198.91" waitingTime="0.00" waitingCount="0" stopTime="0.00" timeLoss="11.18" rerouteNo="0" devices="tripinfo_flow_route_2_duration_20250327_2010.13" vType="car" speedFactor="1.09" vaporized=""/>
    <tripinfo id="flow_route_17_duration_20250327_2010.4" depart="36.00" departLane="137406408#0_0" departPos="76.20" departSpeed="0.00" departDelay="1.72" arrival="87.00" arrivalLane="1254771874#0_0" arrivalPos="173.48" arrivalSpeed="16.44" duration="51.00" routeLength="240.50" waitingTime="25.00" waitingCount="1" stopTime="0.00" timeLoss="36.13" rerouteNo="0" devices="tripinfo_flow_route_17_duration_20250327_2010.4" vType="car" speedFactor="1.18" vaporized=""/>
    <tripinfo id="flow_route_9_duration_20250327_2010.2" depart="31.00" departLane="1318793173#0_0" departPos="8.65" departSpeed="0.00" departDelay="1.00" arrival="89.00" arrivalLane="1254771874#0_1" arrivalPos="86.66" arrivalSpeed="13.56" duration="58.00" routeLength="236.48" waitingTime="15.00" waitingCount="2" stopTime="0.00" timeLoss="42.01" rerouteNo="0" devices="tripinfo_flow_route_9_duration_20250327_2010.2" vType="car" speedFactor="0.95" vaporized=""/>
    <tripinfo id="flow_route_9_duration_20250327_2010.3" depart="46.00" departLane="1318793173#0_0" departPos="10.97" departSpeed="0.00" departDelay="1.00" arrival="91.00" arrivalLane="1254771874#0_1" arrivalPos="87.64" arrivalSpeed="14.06" duration="45.00" routeLength="235.14" waitingTime="3.00" waitingCount="1" stopTime="0.00" timeLoss="29.66" rerouteNo="0" devices="tripinfo_flow_route_9_duration_20250327_2010.3" vType="car" speedFactor="1.10" vaporized=""/>
    <tripinfo id="flow_route_17_duration_20250327_2010.5" depart="44.00" departLane="137406408#0_0" departPos="27.35" departSpeed="0.00" departDelay="1.15" arrival="92.00" arrivalLane="1254771874#0_0" arrivalPos="181.68" arrivalSpeed="16.43" duration="48.00" routeLength="297.54" waitingTime="9.00" waitingCount="1" stopTime="0.00" timeLoss="28.70" rerouteNo="0" devices="tripinfo_flow_route_17_duration_20250327_2010.5" vType="car" speedFactor="0.97" vaporized=""/>
    <tripinfo id="flow_route_17_duration_20250327_2010.3" depart="26.00" departLane="137406408#0_0" departPos="14.01" departSpeed="0.00" departDelay="0.29" arrival="94.00" arrivalLane="1254771874#0_0" arrivalPos="244.09" arrivalSpeed="16.48" duration="68.00" routeLength="373.29" waitingTime="22.00" waitingCount="1" stopTime="0.00" timeLoss="43.06" rerouteNo="0" devices="tripinfo_flow_route_17_duration_20250327_2010.3" vType="car" speedFactor="0.83" vaporized=""/>
    <tripinfo id="flow_route_17_duration_20250327_2010.6" depart="52.00" departLane="137406408#0_0" departPos="44.31" departSpeed="0.00" departDelay="0.57" arrival="96.00" arrivalLane="1254771874#0_0" arrivalPos="225.46" arrivalSpeed="16.52" duration="44.00" routeLength="324.36" waitingTime="7.00" waitingCount="1" stopTime="0.00" timeLoss="23.42" rerouteNo="0" devices="tripinfo_flow_route_17_duration_20250327_2010.6" vType="car" speedFactor="1.04" vaporized=""/>
    <tripinfo id="flow_route_9_duration_20250327_2010.1" depart="15.00" departLane="1318793173#0_0" departPos="3.22" departSpeed="0.00" departDelay="0.00" arrival="98.00" arrivalLane="1254771874#0_1" arrivalPos="244.52" arrivalSpeed="16.34" duration="83.00" routeLength="399.77" waitingTime="30.00" waitingCount="2" stopTime="0.00" timeLoss="56.42" rerouteNo="0" devices="tripinfo_flow_route_9_duration_20250327_2010.1" vType="car" speedFactor="0.93" vaporized=""/>
    <tripinfo id="flow_route_14_duration_20250327_2010.7" depart="39.00" departLane="1252820503#0_0" departPos="15.50" departSpeed="0.00" departDelay="0.82" arrival="105.00" arrivalLane="1254771874#0_1" arrivalPos="6.10" arrivalSpeed="9.53" duration="66.00" routeLength="200.47" waitingTime="32.00" waitingCount="1" stopTime="0.00" timeLoss="53.67" rerouteNo="0" devices="tripinfo_flow_route_14_duration_20250327_2010.7" vType="car" speedFactor="1.17" vaporized=""/>
    <tripinfo id="flow_route_14_duration_20250327_2010.10" depart="56.00" departLane="1252820503#0_0" departPos="144.82" departSpeed="0.00" departDelay="1.46" arrival="105.00" arrivalLane="1254771874#0_0" arrivalPos="10.89" arrivalSpeed="10.64" duration="49.00" routeLength="75.94" waitingTime="32.00" waitingCount="1" stopTime="0.00" timeLoss="43.98" rerouteNo="0" devices="tripinfo_flow_route_14_duration_20250327_2010.10" vType="car" speedFactor="1.04" vaporized=""/>
    <tripinfo id="flow_route_13_duration_20250327_2010.4" depart="48.00" departLane="1252820503#0_0" departPos="41.63" departSpeed="0.00" departDelay="0.00" arrival="109.00" arrivalLane="291974733#0_0" arrivalPos="62.01" arrivalSpeed="11.53" duration="61.00" routeLength="177.54" waitingTime="27.00" waitingCount="1" stopTime="0.00" timeLoss="49.15" rerouteNo="0" devices="tripinfo_flow_route_13_duration_20250327_2010.4" vType="car" speedFactor="1.03" vaporized=""/>
    <tripinfo id="flow_route_14_duration_20250327_2010.9" depart="50.00" departLane="1252820503#0_0" departPos="105.60" departSpeed="0.00" departDelay="0.91" arrival="109.00" arrivalLane="1254771874#0_0" arrivalPos="31.77" arrivalSpeed="11.98" duration="59.00" routeLength="136.05" waitingTime="30.00" waitingCount="1" stopTime="0.00" timeLoss="50.30" rerouteNo="0" devices="tripinfo_flow_route_14_duration_20250327_2010.9" vType="car" speedFactor="0.96" vaporized=""/>
    <tripinfo id="flow_route_14_duration_20250327_2010.8" depart="44.00" departLane="1252820503#0_0" departPos="60.86" departSpeed="0.00" departDelay="0.37" arrival="117.00" arrivalLane="1254771874#0_1" arrivalPos="146.64" arrivalSpeed="16.49" duration="73.00" routeLength="295.66" waitingTime="29.00" waitingCount="1" stopTime="0.00" timeLoss="54.69" rerouteNo="0" devices="tripinfo_flow_route_14_duration_20250327_2010.8" vType="car" speedFactor="1.18" vaporized=""/>
</tripinfos>
