<?xml version="1.0" encoding="UTF-8"?>

<!-- generated on 2025-05-06 16:33:58 by Eclipse SUMO sumo Version 1.20.0
<configuration xmlns:xsi="http://www.w3.org/2001/XMLSchema-instance" xsi:noNamespaceSchemaLocation="http://sumo.dlr.de/xsd/sumoConfiguration.xsd">

    <input>
        <net-file value="osm.net.xml"/>
        <route-files value="xml/routes_ddpg_cluster_2271368471_4779869278.rou.xml"/>
    </input>

    <output>
        <tripinfo-output value="xml/tripinfo_42375.xml"/>
    </output>

    <traci_server>
        <remote-port value="42245"/>
    </traci_server>

</configuration>
-->

<tripinfos xmlns:xsi="http://www.w3.org/2001/XMLSchema-instance" xsi:noNamespaceSchemaLocation="http://sumo.dlr.de/xsd/tripinfo_file.xsd">
    <tripinfo id="flow_route_30_duration_20250327_2200.0" depart="0.00" departLane="1235147073.116_0" departPos="7.14" departSpeed="0.00" departDelay="0.00" arrival="22.00" arrivalLane="133126030#0_0" arrivalPos="8.43" arrivalSpeed="14.17" duration="22.00" routeLength="175.81" waitingTime="0.00" waitingCount="0" stopTime="0.00" timeLoss="10.97" rerouteNo="0" devices="tripinfo_flow_route_30_duration_20250327_2200.0" vType="car" speedFactor="1.01" vaporized=""/>
    <tripinfo id="flow_route_36_duration_20250327_2200.0" depart="0.00" departLane="485211947#0_0" departPos="162.24" departSpeed="0.00" departDelay="0.00" arrival="23.00" arrivalLane="137415945#0_0" arrivalPos="6.94" arrivalSpeed="15.19" duration="23.00" routeLength="189.23" waitingTime="0.00" waitingCount="0" stopTime="0.00" timeLoss="10.24" rerouteNo="0" devices="tripinfo_flow_route_36_duration_20250327_2200.0" vType="car" speedFactor="0.94" vaporized=""/>
    <tripinfo id="flow_route_31_duration_20250327_2200.0" depart="2.00" departLane="1235147073.116_0" departPos="0.71" departSpeed="0.00" departDelay="2.00" arrival="32.00" arrivalLane="-430406005#1_0" arrivalPos="87.77" arrivalSpeed="14.55" duration="30.00" routeLength="250.02" waitingTime="0.00" waitingCount="0" stopTime="0.00" timeLoss="13.16" rerouteNo="0" devices="tripinfo_flow_route_31_duration_20250327_2200.0" vType="car" speedFactor="1.08" vaporized=""/>
    <tripinfo id="flow_route_32_duration_20250327_2200.0" depart="8.00" departLane="1235147073.116_0" departPos="6.07" departSpeed="0.00" departDelay="8.00" arrival="43.00" arrivalLane="1369578054_1" arrivalPos="176.77" arrivalSpeed="16.21" duration="35.00" routeLength="350.43" waitingTime="0.00" waitingCount="0" stopTime="0.00" timeLoss="13.09" rerouteNo="0" devices="tripinfo_flow_route_32_duration_20250327_2200.0" vType="car" speedFactor="1.03" vaporized=""/>
    <tripinfo id="flow_route_33_duration_20250327_2200.0" depart="0.00" departLane="133126008#0_0" departPos="101.07" departSpeed="0.00" departDelay="0.00" arrival="44.00" arrivalLane="1369578054_0" arrivalPos="13.07" arrivalSpeed="8.15" duration="44.00" routeLength="125.36" waitingTime="17.00" waitingCount="1" stopTime="0.00" timeLoss="36.19" rerouteNo="0" devices="tripinfo_flow_route_33_duration_20250327_2200.0" vType="car" speedFactor="0.83" vaporized=""/>
    <tripinfo id="flow_route_29_duration_20250327_2200.0" depart="0.00" departLane="-422986370#2_0" departPos="201.60" departSpeed="0.00" departDelay="0.00" arrival="53.00" arrivalLane="137415945#0_0" arrivalPos="9.07" arrivalSpeed="15.05" duration="53.00" routeLength="253.29" waitingTime="15.00" waitingCount="1" stopTime="0.00" timeLoss="35.68" rerouteNo="0" devices="tripinfo_flow_route_29_duration_20250327_2200.0" vType="car" speedFactor="0.94" vaporized=""/>
    <tripinfo id="flow_route_28_duration_20250327_2200.0" depart="0.00" departLane="-422986370#2_0" departPos="1.81" departSpeed="0.00" departDelay="0.00" arrival="55.00" arrivalLane="-430406005#1_1" arrivalPos="159.13" arrivalSpeed="16.33" duration="55.00" routeLength="491.75" waitingTime="3.00" waitingCount="1" stopTime="0.00" timeLoss="25.23" rerouteNo="0" devices="tripinfo_flow_route_28_duration_20250327_2200.0" vType="car" speedFactor="1.06" vaporized=""/>
    <tripinfo id="flow_route_34_duration_20250327_2200.0" depart="0.00" departLane="133126008#0_0" departPos="47.21" departSpeed="0.00" departDelay="0.00" arrival="55.00" arrivalLane="133126030#0_0" arrivalPos="137.72" arrivalSpeed="14.75" duration="55.00" routeLength="278.03" waitingTime="14.00" waitingCount="1" stopTime="0.00" timeLoss="37.07" rerouteNo="0" devices="tripinfo_flow_route_34_duration_20250327_2200.0" vType="car" speedFactor="1.05" vaporized=""/>
    <tripinfo id="flow_route_29_duration_20250327_2200.1" depart="12.00" departLane="-422986370#2_0" departPos="9.71" departSpeed="0.00" departDelay="0.00" arrival="56.00" arrivalLane="137415945#0_0" arrivalPos="6.93" arrivalSpeed="15.76" duration="44.00" routeLength="443.04" waitingTime="0.00" waitingCount="0" stopTime="0.00" timeLoss="16.04" rerouteNo="0" devices="tripinfo_flow_route_29_duration_20250327_2200.1" vType="car" speedFactor="1.09" vaporized=""/>
    <tripinfo id="flow_route_35_duration_20250327_2200.0" depart="0.00" departLane="485211947#0_0" departPos="11.17" departSpeed="0.00" departDelay="0.00" arrival="61.00" arrivalLane="1369578054_0" arrivalPos="74.16" arrivalSpeed="11.50" duration="61.00" routeLength="260.46" waitingTime="21.00" waitingCount="1" stopTime="0.00" timeLoss="42.50" rerouteNo="0" devices="tripinfo_flow_route_35_duration_20250327_2200.0" vType="car" speedFactor="0.89" vaporized=""/>
    <tripinfo id="flow_route_37_duration_20250327_2200.1" depart="31.00" departLane="485211947#0_0" departPos="105.91" departSpeed="0.00" departDelay="1.00" arrival="63.00" arrivalLane="-430406005#1_1" arrivalPos="47.16" arrivalSpeed="10.71" duration="32.00" routeLength="154.23" waitingTime="0.00" waitingCount="0" stopTime="0.00" timeLoss="20.84" rerouteNo="0" devices="tripinfo_flow_route_37_duration_20250327_2200.1" vType="car" speedFactor="0.94" vaporized=""/>
    <tripinfo id="flow_route_37_duration_20250327_2200.0" depart="0.00" departLane="485211947#0_0" departPos="59.66" departSpeed="0.00" departDelay="0.00" arrival="67.00" arrivalLane="-430406005#1_1" arrivalPos="133.07" arrivalSpeed="14.62" duration="67.00" routeLength="286.39" waitingTime="26.00" waitingCount="1" stopTime="0.00" timeLoss="46.92" rerouteNo="0" devices="tripinfo_flow_route_37_duration_20250327_2200.0" vType="car" speedFactor="0.86" vaporized=""/>
    <tripinfo id="flow_route_36_duration_20250327_2200.1" depart="21.00" departLane="485211947#0_0" departPos="126.94" departSpeed="0.00" departDelay="1.00" arrival="67.00" arrivalLane="137415945#0_1" arrivalPos="2.03" arrivalSpeed="15.04" duration="46.00" routeLength="219.62" waitingTime="11.00" waitingCount="1" stopTime="0.00" timeLoss="32.34" rerouteNo="0" devices="tripinfo_flow_route_36_duration_20250327_2200.1" vType="car" speedFactor="1.12" vaporized=""/>
    <tripinfo id="flow_route_35_duration_20250327_2200.2" depart="40.00" departLane="485211947#0_0" departPos="173.26" departSpeed="0.00" departDelay="0.00" arrival="71.00" arrivalLane="1369578054_0" arrivalPos="178.65" arrivalSpeed="16.43" duration="31.00" routeLength="202.86" waitingTime="3.00" waitingCount="1" stopTime="0.00" timeLoss="17.15" rerouteNo="0" devices="tripinfo_flow_route_35_duration_20250327_2200.2" vType="car" speedFactor="1.02" vaporized=""/>
    <tripinfo id="flow_route_36_duration_20250327_2200.2" depart="41.00" departLane="485211947#0_0" departPos="57.03" departSpeed="0.00" departDelay="1.00" arrival="71.00" arrivalLane="137415945#0_0" arrivalPos="8.80" arrivalSpeed="16.53" duration="30.00" routeLength="296.30" waitingTime="0.00" waitingCount="0" stopTime="0.00" timeLoss="11.30" rerouteNo="0" devices="tripinfo_flow_route_36_duration_20250327_2200.2" vType="car" speedFactor="1.01" vaporized=""/>
    <tripinfo id="flow_route_35_duration_20250327_2200.1" depart="21.00" departLane="485211947#0_0" departPos="5.53" departSpeed="0.00" departDelay="1.00" arrival="75.00" arrivalLane="1369578054_0" arrivalPos="229.08" arrivalSpeed="16.47" duration="54.00" routeLength="421.01" waitingTime="3.00" waitingCount="1" stopTime="0.00" timeLoss="27.93" rerouteNo="0" devices="tripinfo_flow_route_35_duration_20250327_2200.1" vType="car" speedFactor="1.05" vaporized=""/>
    <tripinfo id="flow_route_32_duration_20250327_2200.2" depart="24.00" departLane="1235147073.116_0" departPos="6.30" departSpeed="0.00" departDelay="0.00" arrival="80.00" arrivalLane="1369578054_1" arrivalPos="38.77" arrivalSpeed="10.75" duration="56.00" routeLength="212.20" waitingTime="22.00" waitingCount="1" stopTime="0.00" timeLoss="41.04" rerouteNo="0" devices="tripinfo_flow_route_32_duration_20250327_2200.2" vType="car" speedFactor="0.93" vaporized=""/>
    <tripinfo id="flow_route_32_duration_20250327_2200.1" depart="12.00" departLane="1235147073.116_0" departPos="4.62" departSpeed="0.00" departDelay="0.00" arrival="81.00" arrivalLane="1369578054_1" arrivalPos="70.93" arrivalSpeed="12.47" duration="69.00" routeLength="246.04" waitingTime="31.00" waitingCount="1" stopTime="0.00" timeLoss="53.03" rerouteNo="0" devices="tripinfo_flow_route_32_duration_20250327_2200.1" vType="car" speedFactor="1.03" vaporized=""/>
    <tripinfo id="flow_route_30_duration_20250327_2200.1" depart="30.00" departLane="1235147073.116_0" departPos="3.42" departSpeed="0.00" departDelay="0.00" arrival="89.00" arrivalLane="133126030#0_0" arrivalPos="178.72" arrivalSpeed="14.62" duration="59.00" routeLength="349.82" waitingTime="12.00" waitingCount="1" stopTime="0.00" timeLoss="34.16" rerouteNo="0" devices="tripinfo_flow_route_30_duration_20250327_2200.1" vType="car" speedFactor="0.88" vaporized=""/>
    <tripinfo id="flow_route_32_duration_20250327_2200.4" depart="48.00" departLane="1235147073.116_0" departPos="14.62" departSpeed="0.00" departDelay="0.00" arrival="94.00" arrivalLane="1369578054_1" arrivalPos="173.81" arrivalSpeed="14.67" duration="46.00" routeLength="338.92" waitingTime="2.00" waitingCount="1" stopTime="0.00" timeLoss="21.85" rerouteNo="0" devices="tripinfo_flow_route_32_duration_20250327_2200.4" vType="car" speedFactor="0.89" vaporized=""/>
    <tripinfo id="flow_route_32_duration_20250327_2200.3" depart="37.00" departLane="1235147073.116_0" departPos="10.96" departSpeed="0.00" departDelay="1.00" arrival="96.00" arrivalLane="1369578054_1" arrivalPos="243.22" arrivalSpeed="16.32" duration="59.00" routeLength="411.99" waitingTime="10.00" waitingCount="1" stopTime="0.00" timeLoss="33.34" rerouteNo="0" devices="tripinfo_flow_route_32_duration_20250327_2200.3" vType="car" speedFactor="1.16" vaporized=""/>
    <tripinfo id="flow_route_29_duration_20250327_2200.2" depart="24.00" departLane="-422986370#2_0" departPos="37.56" departSpeed="0.00" departDelay="0.00" arrival="100.00" arrivalLane="137415945#0_0" arrivalPos="4.22" arrivalSpeed="14.95" duration="76.00" routeLength="412.48" waitingTime="26.00" waitingCount="1" stopTime="0.00" timeLoss="50.14" rerouteNo="0" devices="tripinfo_flow_route_29_duration_20250327_2200.2" vType="car" speedFactor="0.99" vaporized=""/>
    <tripinfo id="flow_route_29_duration_20250327_2200.3" depart="36.00" departLane="-422986370#2_0" departPos="26.67" departSpeed="0.00" departDelay="0.00" arrival="102.00" arrivalLane="137415945#0_0" arrivalPos="3.07" arrivalSpeed="15.24" duration="66.00" routeLength="422.23" waitingTime="16.00" waitingCount="1" stopTime="0.00" timeLoss="37.17" rerouteNo="0" devices="tripinfo_flow_route_29_duration_20250327_2200.3" vType="car" speedFactor="0.94" vaporized=""/>
    <tripinfo id="flow_route_29_duration_20250327_2200.4" depart="48.00" departLane="-422986370#2_0" departPos="50.44" departSpeed="0.00" departDelay="0.00" arrival="105.00" arrivalLane="137415945#0_0" arrivalPos="6.27" arrivalSpeed="16.04" duration="57.00" routeLength="401.65" waitingTime="8.00" waitingCount="1" stopTime="0.00" timeLoss="30.42" rerouteNo="0" devices="tripinfo_flow_route_29_duration_20250327_2200.4" vType="car" speedFactor="0.97" vaporized=""/>
</tripinfos>
