<?xml version="1.0" encoding="UTF-8"?>

<!-- generated on 2025-05-06 21:08:56 by Eclipse SUMO sumo Version 1.20.0
<configuration xmlns:xsi="http://www.w3.org/2001/XMLSchema-instance" xsi:noNamespaceSchemaLocation="http://sumo.dlr.de/xsd/sumoConfiguration.xsd">

    <input>
        <net-file value="osm.net.xml"/>
        <route-files value="xml/route_static_cluster7571105647_7571105653_cluster_1141265322_11869698130_256036890_4227138136_#4more_7.rou.xml"/>
    </input>

    <output>
        <tripinfo-output value="xml/tripinfo_static_cluster7571105647_7571105653_cluster_1141265322_11869698130_256036890_4227138136_#4more_7.xml"/>
    </output>

    <traci_server>
        <remote-port value="49201"/>
    </traci_server>

</configuration>
-->

<tripinfos xmlns:xsi="http://www.w3.org/2001/XMLSchema-instance" xsi:noNamespaceSchemaLocation="http://sumo.dlr.de/xsd/tripinfo_file.xsd">
    <tripinfo id="flow_route_143_duration_20250327_2120.0" depart="0.00" departLane="1253222187#0_0" departPos="157.10" departSpeed="0.00" departDelay="0.00" arrival="28.00" arrivalLane="1310781056_0" arrivalPos="55.73" arrivalSpeed="16.37" duration="28.00" routeLength="267.13" waitingTime="0.00" waitingCount="0" stopTime="0.00" timeLoss="11.65" rerouteNo="0" devices="tripinfo_flow_route_143_duration_20250327_2120.0" vType="car" speedFactor="1.08" vaporized=""/>
    <tripinfo id="flow_route_140_duration_20250327_2120.1" depart="9.00" departLane="809719540#0_0" departPos="170.15" departSpeed="0.00" departDelay="0.43" arrival="46.00" arrivalLane="-809772643#1_1" arrivalPos="63.49" arrivalSpeed="12.83" duration="37.00" routeLength="203.62" waitingTime="2.00" waitingCount="1" stopTime="0.00" timeLoss="23.64" rerouteNo="0" devices="tripinfo_flow_route_140_duration_20250327_2120.1" vType="car" speedFactor="0.94" vaporized=""/>
    <tripinfo id="flow_route_140_duration_20250327_2120.3" depart="26.00" departLane="809719540#0_0" departPos="179.46" departSpeed="0.00" departDelay="0.29" arrival="46.00" arrivalLane="-809772643#1_0" arrivalPos="18.41" arrivalSpeed="15.42" duration="20.00" routeLength="146.40" waitingTime="0.00" waitingCount="0" stopTime="0.00" timeLoss="10.26" rerouteNo="0" devices="tripinfo_flow_route_140_duration_20250327_2120.3" vType="car" speedFactor="1.02" vaporized=""/>
    <tripinfo id="flow_route_142_duration_20250327_2120.0" depart="0.00" departLane="1253222187#0_0" departPos="114.97" departSpeed="0.00" departDelay="0.00" arrival="53.00" arrivalLane="683079388#0_0" arrivalPos="1.17" arrivalSpeed="16.33" duration="53.00" routeLength="684.52" waitingTime="0.00" waitingCount="0" stopTime="0.00" timeLoss="11.18" rerouteNo="0" devices="tripinfo_flow_route_142_duration_20250327_2120.0" vType="car" speedFactor="1.01" vaporized=""/>
    <tripinfo id="flow_route_140_duration_20250327_2120.2" depart="18.00" departLane="809719540#0_0" departPos="88.99" departSpeed="0.00" departDelay="0.86" arrival="53.00" arrivalLane="-809772643#1_1" arrivalPos="141.65" arrivalSpeed="16.41" duration="35.00" routeLength="362.94" waitingTime="0.00" waitingCount="0" stopTime="0.00" timeLoss="12.23" rerouteNo="0" devices="tripinfo_flow_route_140_duration_20250327_2120.2" vType="car" speedFactor="0.99" vaporized=""/>
    <tripinfo id="flow_route_140_duration_20250327_2120.0" depart="0.00" departLane="809719540#0_0" departPos="199.64" departSpeed="0.00" departDelay="0.00" arrival="54.00" arrivalLane="-809772643#1_0" arrivalPos="184.22" arrivalSpeed="16.27" duration="54.00" routeLength="292.04" waitingTime="16.00" waitingCount="1" stopTime="0.00" timeLoss="35.58" rerouteNo="0" devices="tripinfo_flow_route_140_duration_20250327_2120.0" vType="car" speedFactor="1.06" vaporized=""/>
    <tripinfo id="flow_route_142_duration_20250327_2120.1" depart="5.00" departLane="1253222187#0_0" departPos="67.88" departSpeed="0.00" departDelay="0.00" arrival="61.00" arrivalLane="683079388#0_0" arrivalPos="1.56" arrivalSpeed="16.50" duration="56.00" routeLength="731.98" waitingTime="0.00" waitingCount="0" stopTime="0.00" timeLoss="11.15" rerouteNo="0" devices="tripinfo_flow_route_142_duration_20250327_2120.1" vType="car" speedFactor="1.05" vaporized=""/>
    <tripinfo id="flow_route_147_duration_20250327_2120.0" depart="6.00" departLane="683079387#1_0" departPos="6.98" departSpeed="0.00" departDelay="6.00" arrival="77.00" arrivalLane="1310781056_0" arrivalPos="4.95" arrivalSpeed="14.15" duration="71.00" routeLength="677.80" waitingTime="0.00" waitingCount="0" stopTime="0.00" timeLoss="21.70" rerouteNo="0" devices="tripinfo_flow_route_147_duration_20250327_2120.0" vType="car" speedFactor="0.83" vaporized=""/>
    <tripinfo id="flow_route_146_duration_20250327_2120.0" depart="0.00" departLane="683079387#1_0" departPos="0.06" departSpeed="0.00" departDelay="0.00" arrival="78.00" arrivalLane="-809772643#1_0" arrivalPos="121.98" arrivalSpeed="15.84" duration="78.00" routeLength="734.89" waitingTime="11.00" waitingCount="1" stopTime="0.00" timeLoss="33.52" rerouteNo="0" devices="tripinfo_flow_route_146_duration_20250327_2120.0" vType="car" speedFactor="1.03" vaporized=""/>
    <tripinfo id="flow_route_146_duration_20250327_2120.1" depart="10.00" departLane="683079387#1_0" departPos="5.56" departSpeed="0.00" departDelay="0.00" arrival="78.00" arrivalLane="-809772643#1_1" arrivalPos="183.53" arrivalSpeed="16.43" duration="68.00" routeLength="790.94" waitingTime="0.00" waitingCount="0" stopTime="0.00" timeLoss="20.06" rerouteNo="0" devices="tripinfo_flow_route_146_duration_20250327_2120.1" vType="car" speedFactor="1.03" vaporized=""/>
    <tripinfo id="flow_route_141_duration_20250327_2120.0" depart="0.00" departLane="809719540#0_0" departPos="66.48" departSpeed="0.00" departDelay="0.00" arrival="84.00" arrivalLane="683079387#1_1" arrivalPos="7.27" arrivalSpeed="6.50" duration="84.00" routeLength="836.36" waitingTime="4.00" waitingCount="1" stopTime="0.00" timeLoss="27.34" rerouteNo="0" devices="tripinfo_flow_route_141_duration_20250327_2120.0" vType="car" speedFactor="0.94" vaporized=""/>
    <tripinfo id="flow_route_146_duration_20250327_2120.2" depart="20.00" departLane="683079387#1_0" departPos="5.84" departSpeed="0.00" departDelay="0.00" arrival="85.00" arrivalLane="-809772643#1_0" arrivalPos="199.43" arrivalSpeed="15.27" duration="65.00" routeLength="806.56" waitingTime="0.00" waitingCount="0" stopTime="0.00" timeLoss="12.74" rerouteNo="0" devices="tripinfo_flow_route_146_duration_20250327_2120.2" vType="car" speedFactor="0.94" vaporized=""/>
    <tripinfo id="flow_route_141_duration_20250327_2120.2" depart="14.00" departLane="809719540#0_0" departPos="205.35" departSpeed="0.00" departDelay="0.67" arrival="86.00" arrivalLane="683079387#1_1" arrivalPos="3.08" arrivalSpeed="6.64" duration="72.00" routeLength="700.32" waitingTime="2.00" waitingCount="1" stopTime="0.00" timeLoss="27.24" rerouteNo="0" devices="tripinfo_flow_route_141_duration_20250327_2120.2" vType="car" speedFactor="1.05" vaporized=""/>
    <tripinfo id="flow_route_141_duration_20250327_2120.1" depart="7.00" departLane="809719540#0_0" departPos="137.78" departSpeed="0.00" departDelay="0.33" arrival="88.00" arrivalLane="683079387#1_1" arrivalPos="0.47" arrivalSpeed="5.37" duration="81.00" routeLength="758.25" waitingTime="4.00" waitingCount="1" stopTime="0.00" timeLoss="26.80" rerouteNo="0" devices="tripinfo_flow_route_141_duration_20250327_2120.1" vType="car" speedFactor="0.89" vaporized=""/>
    <tripinfo id="flow_route_146_duration_20250327_2120.4" depart="40.00" departLane="683079387#1_0" departPos="3.46" departSpeed="0.00" departDelay="0.00" arrival="90.00" arrivalLane="-809772643#1_0" arrivalPos="37.01" arrivalSpeed="16.29" duration="50.00" routeLength="646.51" waitingTime="0.00" waitingCount="0" stopTime="0.00" timeLoss="10.59" rerouteNo="0" devices="tripinfo_flow_route_146_duration_20250327_2120.4" vType="car" speedFactor="1.15" vaporized=""/>
    <tripinfo id="flow_route_141_duration_20250327_2120.3" depart="20.00" departLane="809719540#0_0" departPos="70.93" departSpeed="0.00" departDelay="0.00" arrival="91.00" arrivalLane="683079387#1_1" arrivalPos="1.32" arrivalSpeed="5.47" duration="71.00" routeLength="825.95" waitingTime="0.00" waitingCount="0" stopTime="0.00" timeLoss="13.98" rerouteNo="0" devices="tripinfo_flow_route_141_duration_20250327_2120.3" vType="car" speedFactor="0.93" vaporized=""/>
    <tripinfo id="flow_route_141_duration_20250327_2120.4" depart="27.00" departLane="809719540#0_0" departPos="160.15" departSpeed="0.00" departDelay="0.34" arrival="94.00" arrivalLane="683079387#1_1" arrivalPos="7.31" arrivalSpeed="6.15" duration="67.00" routeLength="749.74" waitingTime="0.00" waitingCount="0" stopTime="0.00" timeLoss="19.48" rerouteNo="0" devices="tripinfo_flow_route_141_duration_20250327_2120.4" vType="car" speedFactor="1.01" vaporized=""/>
    <tripinfo id="flow_route_146_duration_20250327_2120.3" depart="30.00" departLane="683079387#1_0" departPos="5.03" departSpeed="0.00" departDelay="0.00" arrival="99.00" arrivalLane="-809772643#1_0" arrivalPos="198.48" arrivalSpeed="13.69" duration="69.00" routeLength="806.42" waitingTime="0.00" waitingCount="0" stopTime="0.00" timeLoss="9.47" rerouteNo="0" devices="tripinfo_flow_route_146_duration_20250327_2120.3" vType="car" speedFactor="0.83" vaporized=""/>
    <tripinfo id="flow_route_142_duration_20250327_2120.5" depart="25.00" departLane="1253222187#0_0" departPos="171.14" departSpeed="0.00" departDelay="0.00" arrival="104.00" arrivalLane="683079388#0_0" arrivalPos="6.23" arrivalSpeed="16.14" duration="79.00" routeLength="633.40" waitingTime="20.00" waitingCount="1" stopTime="0.00" timeLoss="40.01" rerouteNo="0" devices="tripinfo_flow_route_142_duration_20250327_2120.5" vType="car" speedFactor="1.16" vaporized=""/>
    <tripinfo id="flow_route_140_duration_20250327_2120.5" depart="43.00" departLane="809719540#0_0" departPos="21.49" departSpeed="0.00" departDelay="0.15" arrival="106.00" arrivalLane="-809772643#1_0" arrivalPos="9.69" arrivalSpeed="10.19" duration="63.00" routeLength="295.65" waitingTime="17.00" waitingCount="1" stopTime="0.00" timeLoss="44.75" rerouteNo="0" devices="tripinfo_flow_route_140_duration_20250327_2120.5" vType="car" speedFactor="1.01" vaporized=""/>
    <tripinfo id="flow_route_142_duration_20250327_2120.6" depart="31.00" departLane="1253222187#0_0" departPos="122.30" departSpeed="0.00" departDelay="1.00" arrival="107.00" arrivalLane="683079388#0_0" arrivalPos="17.86" arrivalSpeed="15.88" duration="76.00" routeLength="693.87" waitingTime="11.00" waitingCount="1" stopTime="0.00" timeLoss="32.43" rerouteNo="0" devices="tripinfo_flow_route_142_duration_20250327_2120.6" vType="car" speedFactor="0.97" vaporized=""/>
    <tripinfo id="flow_route_140_duration_20250327_2120.4" depart="35.00" departLane="809719540#0_0" departPos="7.48" departSpeed="0.00" departDelay="0.72" arrival="107.00" arrivalLane="-809772643#1_0" arrivalPos="132.67" arrivalSpeed="15.01" duration="72.00" routeLength="432.64" waitingTime="19.00" waitingCount="1" stopTime="0.00" timeLoss="43.36" rerouteNo="0" devices="tripinfo_flow_route_140_duration_20250327_2120.4" vType="car" speedFactor="0.92" vaporized=""/>
    <tripinfo id="flow_route_140_duration_20250327_2120.6" depart="52.00" departLane="809719540#0_0" departPos="98.09" departSpeed="0.00" departDelay="0.57" arrival="107.00" arrivalLane="-809772643#1_0" arrivalPos="86.26" arrivalSpeed="14.42" duration="55.00" routeLength="295.62" waitingTime="12.00" waitingCount="1" stopTime="0.00" timeLoss="36.34" rerouteNo="0" devices="tripinfo_flow_route_140_duration_20250327_2120.6" vType="car" speedFactor="1.10" vaporized=""/>
    <tripinfo id="flow_route_142_duration_20250327_2120.2" depart="11.00" departLane="1253222187#0_0" departPos="49.91" departSpeed="0.00" departDelay="1.00" arrival="109.00" arrivalLane="683079388#0_0" arrivalPos="24.25" arrivalSpeed="14.20" duration="98.00" routeLength="772.65" waitingTime="22.00" waitingCount="1" stopTime="0.00" timeLoss="43.24" rerouteNo="0" devices="tripinfo_flow_route_142_duration_20250327_2120.2" vType="car" speedFactor="0.86" vaporized=""/>
    <tripinfo id="flow_route_142_duration_20250327_2120.4" depart="20.00" departLane="1253222187#0_0" departPos="47.05" departSpeed="0.00" departDelay="0.00" arrival="109.00" arrivalLane="683079388#0_2" arrivalPos="3.24" arrivalSpeed="14.29" duration="89.00" routeLength="754.50" waitingTime="15.00" waitingCount="1" stopTime="0.00" timeLoss="36.77" rerouteNo="0" devices="tripinfo_flow_route_142_duration_20250327_2120.4" vType="car" speedFactor="0.88" vaporized=""/>
    <tripinfo id="flow_route_142_duration_20250327_2120.3" depart="16.00" departLane="1253222187#0_0" departPos="6.29" departSpeed="0.00" departDelay="1.00" arrival="110.00" arrivalLane="683079388#0_2" arrivalPos="4.11" arrivalSpeed="15.00" duration="94.00" routeLength="796.13" waitingTime="13.00" waitingCount="1" stopTime="0.00" timeLoss="45.92" rerouteNo="0" devices="tripinfo_flow_route_142_duration_20250327_2120.3" vType="car" speedFactor="1.12" vaporized=""/>
    <tripinfo id="flow_route_142_duration_20250327_2120.8" depart="41.00" departLane="1253222187#0_0" departPos="119.58" departSpeed="0.00" departDelay="1.00" arrival="110.00" arrivalLane="683079388#0_0" arrivalPos="23.96" arrivalSpeed="14.79" duration="69.00" routeLength="702.70" waitingTime="0.00" waitingCount="0" stopTime="0.00" timeLoss="23.68" rerouteNo="0" devices="tripinfo_flow_route_142_duration_20250327_2120.8" vType="car" speedFactor="0.93" vaporized=""/>
    <tripinfo id="flow_route_142_duration_20250327_2120.10" depart="50.00" departLane="1253222187#0_0" departPos="108.12" departSpeed="0.00" departDelay="0.00" arrival="111.00" arrivalLane="683079388#0_0" arrivalPos="10.93" arrivalSpeed="14.48" duration="61.00" routeLength="701.11" waitingTime="0.00" waitingCount="0" stopTime="0.00" timeLoss="18.47" rerouteNo="0" devices="tripinfo_flow_route_142_duration_20250327_2120.10" vType="car" speedFactor="1.02" vaporized=""/>
    <tripinfo id="flow_route_143_duration_20250327_2120.1" depart="11.00" departLane="1253222187#0_0" departPos="6.83" departSpeed="0.00" departDelay="1.00" arrival="112.00" arrivalLane="1310781056_0" arrivalPos="93.48" arrivalSpeed="16.44" duration="101.00" routeLength="455.14" waitingTime="47.00" waitingCount="2" stopTime="0.00" timeLoss="73.12" rerouteNo="0" devices="tripinfo_flow_route_143_duration_20250327_2120.1" vType="car" speedFactor="1.09" vaporized=""/>
    <tripinfo id="flow_route_142_duration_20250327_2120.7" depart="35.00" departLane="1253222187#0_0" departPos="58.79" departSpeed="0.00" departDelay="0.00" arrival="112.00" arrivalLane="683079388#0_2" arrivalPos="3.92" arrivalSpeed="15.48" duration="77.00" routeLength="743.44" waitingTime="1.00" waitingCount="1" stopTime="0.00" timeLoss="29.38" rerouteNo="0" devices="tripinfo_flow_route_142_duration_20250327_2120.7" vType="car" speedFactor="0.95" vaporized=""/>
    <tripinfo id="flow_route_142_duration_20250327_2120.11" depart="55.00" departLane="1253222187#0_0" departPos="22.08" departSpeed="0.00" departDelay="0.00" arrival="113.00" arrivalLane="683079388#0_0" arrivalPos="7.82" arrivalSpeed="16.13" duration="58.00" routeLength="784.05" waitingTime="0.00" waitingCount="0" stopTime="0.00" timeLoss="10.35" rerouteNo="0" devices="tripinfo_flow_route_142_duration_20250327_2120.11" vType="car" speedFactor="1.03" vaporized=""/>
    <tripinfo id="flow_route_142_duration_20250327_2120.9" depart="45.00" departLane="1253222187#0_0" departPos="74.18" departSpeed="0.00" departDelay="0.00" arrival="114.00" arrivalLane="683079388#0_2" arrivalPos="18.64" arrivalSpeed="16.40" duration="69.00" routeLength="742.77" waitingTime="0.00" waitingCount="0" stopTime="0.00" timeLoss="24.04" rerouteNo="0" devices="tripinfo_flow_route_142_duration_20250327_2120.9" vType="car" speedFactor="1.17" vaporized=""/>
    <tripinfo id="flow_route_146_duration_20250327_2120.5" depart="50.00" departLane="683079387#1_0" departPos="5.97" departSpeed="0.00" departDelay="0.00" arrival="132.00" arrivalLane="-809772643#1_0" arrivalPos="80.58" arrivalSpeed="14.07" duration="82.00" routeLength="687.58" waitingTime="17.00" waitingCount="1" stopTime="0.00" timeLoss="40.55" rerouteNo="0" devices="tripinfo_flow_route_146_duration_20250327_2120.5" vType="car" speedFactor="1.18" vaporized=""/>
    <tripinfo id="flow_route_141_duration_20250327_2120.7" depart="48.00" departLane="809719540#0_0" departPos="182.29" departSpeed="0.00" departDelay="1.34" arrival="144.00" arrivalLane="683079387#1_1" arrivalPos="2.96" arrivalSpeed="6.77" duration="96.00" routeLength="716.23" waitingTime="21.00" waitingCount="1" stopTime="0.00" timeLoss="50.30" rerouteNo="0" devices="tripinfo_flow_route_141_duration_20250327_2120.7" vType="car" speedFactor="0.99" vaporized=""/>
    <tripinfo id="flow_route_143_duration_20250327_2120.2" depart="20.00" departLane="1253222187#0_0" departPos="35.41" departSpeed="0.00" departDelay="0.00" arrival="147.00" arrivalLane="1310781056_0" arrivalPos="46.65" arrivalSpeed="16.13" duration="127.00" routeLength="379.74" waitingTime="65.00" waitingCount="4" stopTime="0.00" timeLoss="102.77" rerouteNo="0" devices="tripinfo_flow_route_143_duration_20250327_2120.2" vType="car" speedFactor="0.94" vaporized=""/>
    <tripinfo id="flow_route_141_duration_20250327_2120.5" depart="34.00" departLane="809719540#0_0" departPos="49.25" departSpeed="0.00" departDelay="0.67" arrival="149.00" arrivalLane="683079387#1_1" arrivalPos="9.75" arrivalSpeed="7.16" duration="115.00" routeLength="863.08" waitingTime="26.00" waitingCount="1" stopTime="0.00" timeLoss="52.60" rerouteNo="0" devices="tripinfo_flow_route_141_duration_20250327_2120.5" vType="car" speedFactor="0.87" vaporized=""/>
    <tripinfo id="flow_route_143_duration_20250327_2120.4" depart="41.00" departLane="1253222187#0_0" departPos="43.68" departSpeed="0.00" departDelay="1.00" arrival="150.00" arrivalLane="1310781056_0" arrivalPos="7.59" arrivalSpeed="16.59" duration="109.00" routeLength="332.41" waitingTime="48.00" waitingCount="3" stopTime="0.00" timeLoss="88.03" rerouteNo="0" devices="tripinfo_flow_route_143_duration_20250327_2120.4" vType="car" speedFactor="1.18" vaporized=""/>
    <tripinfo id="flow_route_141_duration_20250327_2120.6" depart="42.00" departLane="809719540#0_0" departPos="48.53" departSpeed="0.00" departDelay="2.00" arrival="151.00" arrivalLane="683079387#1_1" arrivalPos="5.58" arrivalSpeed="5.78" duration="109.00" routeLength="859.64" waitingTime="18.00" waitingCount="1" stopTime="0.00" timeLoss="55.48" rerouteNo="0" devices="tripinfo_flow_route_141_duration_20250327_2120.6" vType="car" speedFactor="1.13" vaporized=""/>
    <tripinfo id="flow_route_143_duration_20250327_2120.5" depart="50.00" departLane="1253222187#0_0" departPos="174.06" departSpeed="0.00" departDelay="0.00" arrival="151.00" arrivalLane="1310781056_0" arrivalPos="69.75" arrivalSpeed="16.46" duration="101.00" routeLength="264.20" waitingTime="50.00" waitingCount="4" stopTime="0.00" timeLoss="85.03" rerouteNo="0" devices="tripinfo_flow_route_143_duration_20250327_2120.5" vType="car" speedFactor="0.97" vaporized=""/>
    <tripinfo id="flow_route_143_duration_20250327_2120.3" depart="31.00" departLane="1253222187#0_0" departPos="35.51" departSpeed="0.00" departDelay="1.00" arrival="152.00" arrivalLane="1310781056_0" arrivalPos="106.03" arrivalSpeed="16.15" duration="121.00" routeLength="439.03" waitingTime="55.00" waitingCount="4" stopTime="0.00" timeLoss="92.88" rerouteNo="0" devices="tripinfo_flow_route_143_duration_20250327_2120.3" vType="car" speedFactor="0.89" vaporized=""/>
    <tripinfo id="flow_route_141_duration_20250327_2120.8" depart="54.00" departLane="809719540#0_0" departPos="6.40" departSpeed="0.00" departDelay="0.67" arrival="155.00" arrivalLane="683079387#1_1" arrivalPos="9.97" arrivalSpeed="6.67" duration="101.00" routeLength="899.13" waitingTime="3.00" waitingCount="1" stopTime="0.00" timeLoss="37.25" rerouteNo="0" devices="tripinfo_flow_route_141_duration_20250327_2120.8" vType="car" speedFactor="0.90" vaporized=""/>
</tripinfos>
