<?xml version="1.0" encoding="UTF-8"?>

<!-- generated on 2025-05-06 21:09:13 by Eclipse SUMO sumo Version 1.20.0
<configuration xmlns:xsi="http://www.w3.org/2001/XMLSchema-instance" xsi:noNamespaceSchemaLocation="http://sumo.dlr.de/xsd/sumoConfiguration.xsd">

    <input>
        <net-file value="osm.net.xml"/>
        <route-files value="xml/route_rl_cluster_11648561428_407729599_9.rou.xml"/>
    </input>

    <output>
        <tripinfo-output value="xml/tripinfo_rl_cluster_11648561428_407729599_9.xml"/>
    </output>

    <traci_server>
        <remote-port value="51109"/>
    </traci_server>

</configuration>
-->

<tripinfos xmlns:xsi="http://www.w3.org/2001/XMLSchema-instance" xsi:noNamespaceSchemaLocation="http://sumo.dlr.de/xsd/tripinfo_file.xsd">
    <tripinfo id="flow_route_106_duration_20250327_2030.0" depart="0.00" departLane="1254519229#0_0" departPos="19.69" departSpeed="0.00" departDelay="0.00" arrival="17.00" arrivalLane="430416184_1" arrivalPos="13.15" arrivalSpeed="9.49" duration="17.00" routeLength="94.14" waitingTime="0.00" waitingCount="0" stopTime="0.00" timeLoss="10.44" rerouteNo="0" devices="tripinfo_flow_route_106_duration_20250327_2030.0" vType="car" speedFactor="1.01" vaporized=""/>
    <tripinfo id="flow_route_107_duration_20250327_2030.0" depart="0.00" departLane="1254519229#0_0" departPos="43.39" departSpeed="0.00" departDelay="0.00" arrival="20.00" arrivalLane="1342963997_0" arrivalPos="88.24" arrivalSpeed="14.94" duration="20.00" routeLength="145.44" waitingTime="0.00" waitingCount="0" stopTime="0.00" timeLoss="10.80" rerouteNo="0" devices="tripinfo_flow_route_107_duration_20250327_2030.0" vType="car" speedFactor="1.08" vaporized=""/>
    <tripinfo id="flow_route_101_duration_20250327_2030.0" depart="0.00" departLane="186409193_0" departPos="43.42" departSpeed="0.00" departDelay="0.00" arrival="34.00" arrivalLane="430416184_0" arrivalPos="206.05" arrivalSpeed="16.30" duration="34.00" routeLength="297.12" waitingTime="0.00" waitingCount="0" stopTime="0.00" timeLoss="14.77" rerouteNo="0" devices="tripinfo_flow_route_101_duration_20250327_2030.0" vType="car" speedFactor="0.94" vaporized=""/>
    <tripinfo id="flow_route_106_duration_20250327_2030.1" depart="7.00" departLane="1254519229#0_0" departPos="37.09" departSpeed="0.00" departDelay="1.00" arrival="34.00" arrivalLane="430416184_1" arrivalPos="1.75" arrivalSpeed="5.32" duration="27.00" routeLength="65.33" waitingTime="7.00" waitingCount="1" stopTime="0.00" timeLoss="21.93" rerouteNo="0" devices="tripinfo_flow_route_106_duration_20250327_2030.1" vType="car" speedFactor="0.83" vaporized=""/>
    <tripinfo id="flow_route_107_duration_20250327_2030.1" depart="20.00" departLane="1254519229#0_0" departPos="65.59" departSpeed="0.00" departDelay="0.00" arrival="36.00" arrivalLane="1342963997_0" arrivalPos="55.14" arrivalSpeed="11.89" duration="16.00" routeLength="90.13" waitingTime="0.00" waitingCount="0" stopTime="0.00" timeLoss="10.15" rerouteNo="0" devices="tripinfo_flow_route_107_duration_20250327_2030.1" vType="car" speedFactor="1.03" vaporized=""/>
    <tripinfo id="flow_route_106_duration_20250327_2030.2" depart="12.00" departLane="1254519229#0_0" departPos="25.62" departSpeed="0.00" departDelay="0.00" arrival="39.00" arrivalLane="430416184_1" arrivalPos="17.43" arrivalSpeed="7.83" duration="27.00" routeLength="92.49" waitingTime="4.00" waitingCount="1" stopTime="0.00" timeLoss="20.26" rerouteNo="0" devices="tripinfo_flow_route_106_duration_20250327_2030.2" vType="car" speedFactor="0.94" vaporized=""/>
    <tripinfo id="flow_route_100_duration_20250327_2030.1" depart="12.00" departLane="186409193_0" departPos="51.15" departSpeed="0.00" departDelay="0.00" arrival="40.00" arrivalLane="1254519229#0_1" arrivalPos="21.05" arrivalSpeed="6.46" duration="28.00" routeLength="201.52" waitingTime="0.00" waitingCount="0" stopTime="0.00" timeLoss="13.71" rerouteNo="0" devices="tripinfo_flow_route_100_duration_20250327_2030.1" vType="car" speedFactor="0.89" vaporized=""/>
    <tripinfo id="flow_route_101_duration_20250327_2030.1" depart="10.00" departLane="186409193_0" departPos="33.08" departSpeed="0.00" departDelay="0.00" arrival="42.00" arrivalLane="430416184_0" arrivalPos="130.75" arrivalSpeed="14.81" duration="32.00" routeLength="232.16" waitingTime="0.00" waitingCount="0" stopTime="0.00" timeLoss="16.73" rerouteNo="0" devices="tripinfo_flow_route_101_duration_20250327_2030.1" vType="car" speedFactor="1.05" vaporized=""/>
    <tripinfo id="flow_route_100_duration_20250327_2030.0" depart="0.00" departLane="186409193_0" departPos="2.55" departSpeed="0.00" departDelay="0.00" arrival="43.00" arrivalLane="1254519229#0_1" arrivalPos="70.90" arrivalSpeed="3.48" duration="43.00" routeLength="299.97" waitingTime="0.00" waitingCount="0" stopTime="0.00" timeLoss="24.10" rerouteNo="0" devices="tripinfo_flow_route_100_duration_20250327_2030.0" vType="car" speedFactor="1.06" vaporized=""/>
    <tripinfo id="flow_route_101_duration_20250327_2030.2" depart="20.00" departLane="186409193_0" departPos="54.86" departSpeed="0.00" departDelay="0.00" arrival="50.00" arrivalLane="430416184_0" arrivalPos="148.34" arrivalSpeed="15.59" duration="30.00" routeLength="227.99" waitingTime="0.00" waitingCount="0" stopTime="0.00" timeLoss="14.23" rerouteNo="0" devices="tripinfo_flow_route_101_duration_20250327_2030.2" vType="car" speedFactor="1.09" vaporized=""/>
    <tripinfo id="flow_route_106_duration_20250327_2030.3" depart="18.00" departLane="1254519229#0_0" departPos="3.68" departSpeed="0.00" departDelay="0.00" arrival="54.00" arrivalLane="430416184_1" arrivalPos="197.69" arrivalSpeed="16.25" duration="36.00" routeLength="294.70" waitingTime="0.00" waitingCount="0" stopTime="0.00" timeLoss="17.16" rerouteNo="0" devices="tripinfo_flow_route_106_duration_20250327_2030.3" vType="car" speedFactor="0.86" vaporized=""/>
    <tripinfo id="flow_route_106_duration_20250327_2030.4" depart="24.00" departLane="1254519229#0_0" departPos="2.58" departSpeed="0.00" departDelay="0.00" arrival="60.00" arrivalLane="430416184_1" arrivalPos="157.41" arrivalSpeed="16.56" duration="36.00" routeLength="255.51" waitingTime="0.00" waitingCount="0" stopTime="0.00" timeLoss="19.76" rerouteNo="0" devices="tripinfo_flow_route_106_duration_20250327_2030.4" vType="car" speedFactor="0.99" vaporized=""/>
    <tripinfo id="flow_route_106_duration_20250327_2030.5" depart="30.00" departLane="1254519229#0_0" departPos="76.12" departSpeed="0.00" departDelay="0.00" arrival="62.00" arrivalLane="430416184_1" arrivalPos="221.09" arrivalSpeed="16.10" duration="32.00" routeLength="245.65" waitingTime="3.00" waitingCount="2" stopTime="0.00" timeLoss="15.57" rerouteNo="0" devices="tripinfo_flow_route_106_duration_20250327_2030.5" vType="car" speedFactor="0.88" vaporized=""/>
    <tripinfo id="flow_route_107_duration_20250327_2030.2" depart="40.00" departLane="1254519229#0_0" departPos="13.36" departSpeed="0.00" departDelay="0.00" arrival="69.00" arrivalLane="1342963997_0" arrivalPos="173.19" arrivalSpeed="16.55" duration="29.00" routeLength="260.41" waitingTime="0.00" waitingCount="0" stopTime="0.00" timeLoss="13.08" rerouteNo="0" devices="tripinfo_flow_route_107_duration_20250327_2030.2" vType="car" speedFactor="1.02" vaporized=""/>
    <tripinfo id="flow_route_106_duration_20250327_2030.7" depart="42.00" departLane="1254519229#0_0" departPos="53.16" departSpeed="0.00" departDelay="0.00" arrival="71.00" arrivalLane="430416184_1" arrivalPos="234.74" arrivalSpeed="16.29" duration="29.00" routeLength="282.25" waitingTime="0.00" waitingCount="0" stopTime="0.00" timeLoss="10.85" rerouteNo="0" devices="tripinfo_flow_route_106_duration_20250327_2030.7" vType="car" speedFactor="0.97" vaporized=""/>
    <tripinfo id="flow_route_106_duration_20250327_2030.8" depart="48.00" departLane="1254519229#0_0" departPos="74.40" departSpeed="0.00" departDelay="0.00" arrival="73.00" arrivalLane="430416184_1" arrivalPos="172.42" arrivalSpeed="16.22" duration="25.00" routeLength="198.70" waitingTime="1.00" waitingCount="1" stopTime="0.00" timeLoss="11.98" rerouteNo="0" devices="tripinfo_flow_route_106_duration_20250327_2030.8" vType="car" speedFactor="0.83" vaporized=""/>
    <tripinfo id="flow_route_106_duration_20250327_2030.6" depart="36.00" departLane="1254519229#0_0" departPos="10.29" departSpeed="0.00" departDelay="0.00" arrival="77.00" arrivalLane="430416184_1" arrivalPos="198.12" arrivalSpeed="16.39" duration="41.00" routeLength="288.50" waitingTime="0.00" waitingCount="0" stopTime="0.00" timeLoss="22.10" rerouteNo="0" devices="tripinfo_flow_route_106_duration_20250327_2030.6" vType="car" speedFactor="0.94" vaporized=""/>
    <tripinfo id="flow_route_106_duration_20250327_2030.9" depart="54.00" departLane="1254519229#0_0" departPos="46.16" departSpeed="0.00" departDelay="0.00" arrival="79.00" arrivalLane="430416184_1" arrivalPos="142.45" arrivalSpeed="16.26" duration="25.00" routeLength="196.97" waitingTime="0.00" waitingCount="0" stopTime="0.00" timeLoss="11.70" rerouteNo="0" devices="tripinfo_flow_route_106_duration_20250327_2030.9" vType="car" speedFactor="0.92" vaporized=""/>
    <tripinfo id="flow_route_149_duration_20250327_2030.2" depart="40.00" departLane="186410975#0_0" departPos="147.54" departSpeed="0.00" departDelay="0.00" arrival="94.00" arrivalLane="430416184_1" arrivalPos="76.37" arrivalSpeed="12.76" duration="54.00" routeLength="474.50" waitingTime="0.00" waitingCount="0" stopTime="0.00" timeLoss="19.75" rerouteNo="0" devices="tripinfo_flow_route_149_duration_20250327_2030.2" vType="car" speedFactor="1.01" vaporized=""/>
    <tripinfo id="flow_route_149_duration_20250327_2030.0" depart="0.00" departLane="186410975#0_0" departPos="192.32" departSpeed="0.00" departDelay="0.00" arrival="97.00" arrivalLane="430416184_1" arrivalPos="170.61" arrivalSpeed="16.59" duration="97.00" routeLength="523.96" waitingTime="40.00" waitingCount="1" stopTime="0.00" timeLoss="60.55" rerouteNo="0" devices="tripinfo_flow_route_149_duration_20250327_2030.0" vType="car" speedFactor="1.03" vaporized=""/>
    <tripinfo id="flow_route_149_duration_20250327_2030.1" depart="20.00" departLane="186410975#0_0" departPos="229.10" departSpeed="0.00" departDelay="0.00" arrival="99.00" arrivalLane="430416184_1" arrivalPos="183.20" arrivalSpeed="16.39" duration="79.00" routeLength="499.76" waitingTime="23.00" waitingCount="1" stopTime="0.00" timeLoss="45.99" rerouteNo="0" devices="tripinfo_flow_route_149_duration_20250327_2030.1" vType="car" speedFactor="1.05" vaporized=""/>
    <tripinfo id="flow_route_101_duration_20250327_2030.3" depart="30.00" departLane="186409193_0" departPos="9.29" departSpeed="0.00" departDelay="0.00" arrival="127.00" arrivalLane="430416184_0" arrivalPos="87.27" arrivalSpeed="12.12" duration="97.00" routeLength="212.47" waitingTime="63.00" waitingCount="1" stopTime="0.00" timeLoss="82.50" rerouteNo="0" devices="tripinfo_flow_route_101_duration_20250327_2030.3" vType="car" speedFactor="0.93" vaporized=""/>
    <tripinfo id="flow_route_101_duration_20250327_2030.4" depart="42.00" departLane="186409193_0" departPos="5.20" departSpeed="0.00" departDelay="2.00" arrival="133.00" arrivalLane="430416184_0" arrivalPos="118.96" arrivalSpeed="14.54" duration="91.00" routeLength="248.26" waitingTime="45.00" waitingCount="1" stopTime="0.00" timeLoss="74.62" rerouteNo="0" devices="tripinfo_flow_route_101_duration_20250327_2030.4" vType="car" speedFactor="1.16" vaporized=""/>
    <tripinfo id="flow_route_100_duration_20250327_2030.3" depart="37.00" departLane="186409193_0" departPos="7.32" departSpeed="0.00" departDelay="1.00" arrival="142.00" arrivalLane="1254519229#0_1" arrivalPos="2.37" arrivalSpeed="4.31" duration="105.00" routeLength="226.67" waitingTime="59.00" waitingCount="2" stopTime="0.00" timeLoss="89.18" rerouteNo="0" devices="tripinfo_flow_route_100_duration_20250327_2030.3" vType="car" speedFactor="0.94" vaporized=""/>
    <tripinfo id="flow_route_100_duration_20250327_2030.2" depart="24.00" departLane="186409193_0" departPos="13.83" departSpeed="0.00" departDelay="0.00" arrival="143.00" arrivalLane="1254519229#0_1" arrivalPos="31.56" arrivalSpeed="7.65" duration="119.00" routeLength="249.35" waitingTime="72.00" waitingCount="2" stopTime="0.00" timeLoss="102.98" rerouteNo="0" devices="tripinfo_flow_route_100_duration_20250327_2030.2" vType="car" speedFactor="1.12" vaporized=""/>
    <tripinfo id="flow_route_101_duration_20250327_2030.5" depart="50.00" departLane="186409193_0" departPos="17.98" departSpeed="0.00" departDelay="0.00" arrival="145.00" arrivalLane="430416184_0" arrivalPos="277.61" arrivalSpeed="16.54" duration="95.00" routeLength="394.12" waitingTime="44.00" waitingCount="1" stopTime="0.00" timeLoss="69.01" rerouteNo="0" devices="tripinfo_flow_route_101_duration_20250327_2030.5" vType="car" speedFactor="0.87" vaporized=""/>
    <tripinfo id="flow_route_100_duration_20250327_2030.4" depart="48.00" departLane="186409193_0" departPos="40.40" departSpeed="0.00" departDelay="0.00" arrival="153.00" arrivalLane="1254519229#0_1" arrivalPos="56.94" arrivalSpeed="10.12" duration="105.00" routeLength="248.15" waitingTime="53.00" waitingCount="2" stopTime="0.00" timeLoss="87.55" rerouteNo="0" devices="tripinfo_flow_route_100_duration_20250327_2030.4" vType="car" speedFactor="0.89" vaporized=""/>
</tripinfos>
