<?xml version="1.0" encoding="UTF-8"?>

<!-- generated on 2025-05-06 21:09:06 by Eclipse SUMO sumo Version 1.20.0
<configuration xmlns:xsi="http://www.w3.org/2001/XMLSchema-instance" xsi:noNamespaceSchemaLocation="http://sumo.dlr.de/xsd/sumoConfiguration.xsd">

    <input>
        <net-file value="osm.net.xml"/>
        <route-files value="xml/route_static_cluster_11657899598_353811979_6712514804_8.rou.xml"/>
    </input>

    <output>
        <tripinfo-output value="xml/tripinfo_static_cluster_11657899598_353811979_6712514804_8.xml"/>
    </output>

    <traci_server>
        <remote-port value="50423"/>
    </traci_server>

</configuration>
-->

<tripinfos xmlns:xsi="http://www.w3.org/2001/XMLSchema-instance" xsi:noNamespaceSchemaLocation="http://sumo.dlr.de/xsd/tripinfo_file.xsd">
    <tripinfo id="flow_route_136_duration_20250327_2030.0" depart="0.00" departLane="688883939#0_0" departPos="70.95" departSpeed="0.00" departDelay="0.00" arrival="22.00" arrivalLane="186410975#0_1" arrivalPos="11.74" arrivalSpeed="11.21" duration="22.00" routeLength="133.80" waitingTime="1.00" waitingCount="1" stopTime="0.00" timeLoss="11.77" rerouteNo="0" devices="tripinfo_flow_route_136_duration_20250327_2030.0" vType="car" speedFactor="1.01" vaporized=""/>
    <tripinfo id="flow_route_137_duration_20250327_2030.0" depart="0.00" departLane="1310781056_0" departPos="52.86" departSpeed="0.00" departDelay="0.00" arrival="22.00" arrivalLane="714011134#0_0" arrivalPos="51.79" arrivalSpeed="16.36" duration="22.00" routeLength="192.73" waitingTime="0.00" waitingCount="0" stopTime="0.00" timeLoss="9.96" rerouteNo="0" devices="tripinfo_flow_route_137_duration_20250327_2030.0" vType="car" speedFactor="1.08" vaporized=""/>
    <tripinfo id="flow_route_134_duration_20250327_2030.0" depart="0.00" departLane="688883939#0_0" departPos="78.56" departSpeed="0.00" departDelay="0.00" arrival="28.00" arrivalLane="809719540#0_0" arrivalPos="239.32" arrivalSpeed="16.14" duration="28.00" routeLength="300.42" waitingTime="0.00" waitingCount="0" stopTime="0.00" timeLoss="9.77" rerouteNo="0" devices="tripinfo_flow_route_134_duration_20250327_2030.0" vType="car" speedFactor="1.06" vaporized=""/>
    <tripinfo id="flow_route_139_duration_20250327_2030.0" depart="1.00" departLane="1310781056_0" departPos="36.51" departSpeed="0.00" departDelay="1.00" arrival="28.00" arrivalLane="1254157399#1_1" arrivalPos="26.95" arrivalSpeed="9.84" duration="27.00" routeLength="180.27" waitingTime="0.00" waitingCount="0" stopTime="0.00" timeLoss="13.79" rerouteNo="0" devices="tripinfo_flow_route_139_duration_20250327_2030.0" vType="car" speedFactor="0.83" vaporized=""/>
    <tripinfo id="flow_route_138_duration_20250327_2030.0" depart="1.00" departLane="1310781056_0" departPos="99.29" departSpeed="0.00" departDelay="1.00" arrival="35.00" arrivalLane="186410975#0_0" arrivalPos="152.27" arrivalSpeed="11.40" duration="34.00" routeLength="305.80" waitingTime="0.00" waitingCount="0" stopTime="0.00" timeLoss="11.06" rerouteNo="0" devices="tripinfo_flow_route_138_duration_20250327_2030.0" vType="car" speedFactor="1.03" vaporized=""/>
    <tripinfo id="flow_route_136_duration_20250327_2030.1" depart="10.00" departLane="688883939#0_0" departPos="31.81" departSpeed="0.00" departDelay="0.00" arrival="39.00" arrivalLane="186410975#0_1" arrivalPos="61.10" arrivalSpeed="10.69" duration="29.00" routeLength="222.30" waitingTime="0.00" waitingCount="0" stopTime="0.00" timeLoss="11.36" rerouteNo="0" devices="tripinfo_flow_route_136_duration_20250327_2030.1" vType="car" speedFactor="0.99" vaporized=""/>
    <tripinfo id="flow_route_135_duration_20250327_2030.0" depart="0.00" departLane="688883939#0_0" departPos="0.64" departSpeed="0.00" departDelay="0.00" arrival="45.00" arrivalLane="1254157399#1_0" arrivalPos="440.36" arrivalSpeed="16.40" duration="45.00" routeLength="573.44" waitingTime="0.00" waitingCount="0" stopTime="0.00" timeLoss="9.36" rerouteNo="0" devices="tripinfo_flow_route_135_duration_20250327_2030.0" vType="car" speedFactor="0.94" vaporized=""/>
    <tripinfo id="flow_route_153_duration_20250327_2030.1" depart="7.00" departLane="31861355#0_0" departPos="583.90" departSpeed="0.00" departDelay="0.33" arrival="50.00" arrivalLane="809719540#0_0" arrivalPos="82.48" arrivalSpeed="12.41" duration="43.00" routeLength="129.68" waitingTime="16.00" waitingCount="1" stopTime="0.00" timeLoss="33.76" rerouteNo="0" devices="tripinfo_flow_route_153_duration_20250327_2030.1" vType="car" speedFactor="1.03" vaporized=""/>
    <tripinfo id="flow_route_152_duration_20250327_2030.0" depart="0.00" departLane="31861355#0_0" departPos="164.48" departSpeed="0.00" departDelay="0.00" arrival="54.00" arrivalLane="714011134#0_1" arrivalPos="26.08" arrivalSpeed="10.75" duration="54.00" routeLength="522.49" waitingTime="0.00" waitingCount="0" stopTime="0.00" timeLoss="18.48" rerouteNo="0" devices="tripinfo_flow_route_152_duration_20250327_2030.0" vType="car" speedFactor="0.89" vaporized=""/>
    <tripinfo id="flow_route_151_duration_20250327_2030.3" depart="10.00" departLane="31861355#0_0" departPos="475.38" departSpeed="0.00" departDelay="0.00" arrival="54.00" arrivalLane="186410975#0_0" arrivalPos="8.37" arrivalSpeed="9.86" duration="44.00" routeLength="260.20" waitingTime="4.00" waitingCount="1" stopTime="0.00" timeLoss="26.39" rerouteNo="0" devices="tripinfo_flow_route_151_duration_20250327_2030.3" vType="car" speedFactor="0.93" vaporized=""/>
    <tripinfo id="flow_route_152_duration_20250327_2030.2" depart="19.00" departLane="31861355#0_0" departPos="415.45" departSpeed="0.00" departDelay="1.86" arrival="55.00" arrivalLane="714011134#0_1" arrivalPos="17.70" arrivalSpeed="11.08" duration="36.00" routeLength="263.13" waitingTime="0.00" waitingCount="0" stopTime="0.00" timeLoss="19.97" rerouteNo="0" devices="tripinfo_flow_route_152_duration_20250327_2030.2" vType="car" speedFactor="1.01" vaporized=""/>
    <tripinfo id="flow_route_136_duration_20250327_2030.2" depart="20.00" departLane="688883939#0_0" departPos="98.58" departSpeed="0.00" departDelay="0.00" arrival="57.00" arrivalLane="186410975#0_0" arrivalPos="184.69" arrivalSpeed="10.81" duration="37.00" routeLength="279.13" waitingTime="1.00" waitingCount="1" stopTime="0.00" timeLoss="12.36" rerouteNo="0" devices="tripinfo_flow_route_136_duration_20250327_2030.2" vType="car" speedFactor="0.97" vaporized=""/>
    <tripinfo id="flow_route_152_duration_20250327_2030.1" depart="9.00" departLane="31861355#0_0" departPos="338.46" departSpeed="0.00" departDelay="0.43" arrival="58.00" arrivalLane="714011134#0_1" arrivalPos="93.55" arrivalSpeed="14.70" duration="49.00" routeLength="415.97" waitingTime="0.00" waitingCount="0" stopTime="0.00" timeLoss="23.09" rerouteNo="0" devices="tripinfo_flow_route_152_duration_20250327_2030.1" vType="car" speedFactor="1.12" vaporized=""/>
    <tripinfo id="flow_route_153_duration_20250327_2030.4" depart="27.00" departLane="31861355#0_0" departPos="339.99" departSpeed="0.00" departDelay="0.34" arrival="61.00" arrivalLane="809719540#0_0" arrivalPos="7.48" arrivalSpeed="5.97" duration="34.00" routeLength="298.60" waitingTime="0.00" waitingCount="0" stopTime="0.00" timeLoss="13.31" rerouteNo="0" devices="tripinfo_flow_route_153_duration_20250327_2030.4" vType="car" speedFactor="0.93" vaporized=""/>
    <tripinfo id="flow_route_139_duration_20250327_2030.1" depart="9.00" departLane="1310781056_0" departPos="44.97" departSpeed="0.00" departDelay="0.43" arrival="63.00" arrivalLane="1254157399#1_0" arrivalPos="509.46" arrivalSpeed="16.32" duration="54.00" routeLength="654.32" waitingTime="0.00" waitingCount="0" stopTime="0.00" timeLoss="12.72" rerouteNo="0" devices="tripinfo_flow_route_139_duration_20250327_2030.1" vType="car" speedFactor="1.05" vaporized=""/>
    <tripinfo id="flow_route_152_duration_20250327_2030.5" depart="43.00" departLane="31861355#0_0" departPos="575.12" departSpeed="0.00" departDelay="0.15" arrival="65.00" arrivalLane="714011134#0_1" arrivalPos="92.27" arrivalSpeed="16.16" duration="22.00" routeLength="178.04" waitingTime="0.00" waitingCount="0" stopTime="0.00" timeLoss="10.35" rerouteNo="0" devices="tripinfo_flow_route_152_duration_20250327_2030.5" vType="car" speedFactor="1.04" vaporized=""/>
    <tripinfo id="flow_route_151_duration_20250327_2030.2" depart="7.00" departLane="31861355#0_0" departPos="393.90" departSpeed="0.00" departDelay="0.33" arrival="67.00" arrivalLane="186410975#0_1" arrivalPos="132.40" arrivalSpeed="10.36" duration="60.00" routeLength="465.71" waitingTime="3.00" waitingCount="1" stopTime="0.00" timeLoss="28.74" rerouteNo="0" devices="tripinfo_flow_route_151_duration_20250327_2030.2" vType="car" speedFactor="1.09" vaporized=""/>
    <tripinfo id="flow_route_152_duration_20250327_2030.3" depart="26.00" departLane="31861355#0_0" departPos="398.98" departSpeed="0.00" departDelay="0.29" arrival="67.00" arrivalLane="714011134#0_1" arrivalPos="100.64" arrivalSpeed="15.68" duration="41.00" routeLength="362.54" waitingTime="0.00" waitingCount="0" stopTime="0.00" timeLoss="17.28" rerouteNo="0" devices="tripinfo_flow_route_152_duration_20250327_2030.3" vType="car" speedFactor="0.95" vaporized=""/>
    <tripinfo id="flow_route_151_duration_20250327_2030.6" depart="20.00" departLane="31861355#0_0" departPos="596.90" departSpeed="0.00" departDelay="0.00" arrival="68.00" arrivalLane="186410975#0_0" arrivalPos="153.89" arrivalSpeed="9.68" duration="48.00" routeLength="284.20" waitingTime="5.00" waitingCount="1" stopTime="0.00" timeLoss="23.57" rerouteNo="0" devices="tripinfo_flow_route_151_duration_20250327_2030.6" vType="car" speedFactor="0.89" vaporized=""/>
    <tripinfo id="flow_route_151_duration_20250327_2030.0" depart="0.00" departLane="31861355#0_0" departPos="352.12" departSpeed="0.00" departDelay="0.00" arrival="71.00" arrivalLane="186410975#0_1" arrivalPos="191.84" arrivalSpeed="11.19" duration="71.00" routeLength="566.94" waitingTime="4.00" waitingCount="1" stopTime="0.00" timeLoss="31.21" rerouteNo="0" devices="tripinfo_flow_route_151_duration_20250327_2030.0" vType="car" speedFactor="1.05" vaporized=""/>
    <tripinfo id="flow_route_151_duration_20250327_2030.13" depart="46.00" departLane="31861355#0_0" departPos="604.08" departSpeed="0.00" departDelay="2.67" arrival="75.00" arrivalLane="186410975#0_0" arrivalPos="127.17" arrivalSpeed="11.74" duration="29.00" routeLength="250.30" waitingTime="0.00" waitingCount="0" stopTime="0.00" timeLoss="10.48" rerouteNo="0" devices="tripinfo_flow_route_151_duration_20250327_2030.13" vType="car" speedFactor="1.09" vaporized=""/>
    <tripinfo id="flow_route_135_duration_20250327_2030.1" depart="30.00" departLane="688883939#0_0" departPos="9.07" departSpeed="0.00" departDelay="0.00" arrival="78.00" arrivalLane="1254157399#1_0" arrivalPos="41.39" arrivalSpeed="11.57" duration="48.00" routeLength="166.04" waitingTime="17.00" waitingCount="1" stopTime="0.00" timeLoss="37.84" rerouteNo="0" devices="tripinfo_flow_route_135_duration_20250327_2030.1" vType="car" speedFactor="1.15" vaporized=""/>
    <tripinfo id="flow_route_151_duration_20250327_2030.7" depart="24.00" departLane="31861355#0_0" departPos="360.69" departSpeed="0.00" departDelay="0.67" arrival="80.00" arrivalLane="186410975#0_1" arrivalPos="127.14" arrivalSpeed="9.66" duration="56.00" routeLength="493.66" waitingTime="0.00" waitingCount="0" stopTime="0.00" timeLoss="17.92" rerouteNo="0" devices="tripinfo_flow_route_151_duration_20250327_2030.7" vType="car" speedFactor="0.87" vaporized=""/>
    <tripinfo id="flow_route_151_duration_20250327_2030.11" depart="37.00" departLane="31861355#0_0" departPos="513.32" departSpeed="0.00" departDelay="0.34" arrival="80.00" arrivalLane="186410975#0_0" arrivalPos="132.36" arrivalSpeed="9.76" duration="43.00" routeLength="346.25" waitingTime="0.00" waitingCount="0" stopTime="0.00" timeLoss="15.40" rerouteNo="0" devices="tripinfo_flow_route_151_duration_20250327_2030.11" vType="car" speedFactor="0.90" vaporized=""/>
    <tripinfo id="flow_route_151_duration_20250327_2030.5" depart="18.00" departLane="31861355#0_0" departPos="355.43" departSpeed="0.00" departDelay="1.34" arrival="81.00" arrivalLane="186410975#0_0" arrivalPos="248.96" arrivalSpeed="12.54" duration="63.00" routeLength="620.74" waitingTime="0.00" waitingCount="0" stopTime="0.00" timeLoss="20.26" rerouteNo="0" devices="tripinfo_flow_route_151_duration_20250327_2030.5" vType="car" speedFactor="1.16" vaporized=""/>
    <tripinfo id="flow_route_136_duration_20250327_2030.3" depart="30.00" departLane="688883939#0_0" departPos="59.79" departSpeed="0.00" departDelay="0.00" arrival="82.00" arrivalLane="186410975#0_1" arrivalPos="46.20" arrivalSpeed="10.95" duration="52.00" routeLength="179.42" waitingTime="20.00" waitingCount="1" stopTime="0.00" timeLoss="37.78" rerouteNo="0" devices="tripinfo_flow_route_136_duration_20250327_2030.3" vType="car" speedFactor="1.01" vaporized=""/>
    <tripinfo id="flow_route_153_duration_20250327_2030.2" depart="16.00" departLane="31861355#0_0" departPos="255.78" departSpeed="0.00" departDelay="2.67" arrival="84.00" arrivalLane="809719540#0_0" arrivalPos="256.94" arrivalSpeed="15.27" duration="68.00" routeLength="632.27" waitingTime="0.00" waitingCount="0" stopTime="0.00" timeLoss="25.74" rerouteNo="0" devices="tripinfo_flow_route_153_duration_20250327_2030.2" vType="car" speedFactor="0.94" vaporized=""/>
    <tripinfo id="flow_route_151_duration_20250327_2030.1" depart="4.00" departLane="31861355#0_0" departPos="28.73" departSpeed="0.00" departDelay="0.67" arrival="87.00" arrivalLane="186410975#0_0" arrivalPos="176.45" arrivalSpeed="9.41" duration="83.00" routeLength="874.93" waitingTime="0.00" waitingCount="0" stopTime="0.00" timeLoss="16.18" rerouteNo="0" devices="tripinfo_flow_route_151_duration_20250327_2030.1" vType="car" speedFactor="0.86" vaporized=""/>
    <tripinfo id="flow_route_138_duration_20250327_2030.1" depart="15.00" departLane="1310781056_0" departPos="14.22" departSpeed="0.00" departDelay="0.00" arrival="87.00" arrivalLane="186410975#0_0" arrivalPos="85.51" arrivalSpeed="9.96" duration="72.00" routeLength="324.12" waitingTime="28.00" waitingCount="1" stopTime="0.00" timeLoss="48.66" rerouteNo="0" devices="tripinfo_flow_route_138_duration_20250327_2030.1" vType="car" speedFactor="0.94" vaporized=""/>
    <tripinfo id="flow_route_134_duration_20250327_2030.1" depart="30.00" departLane="688883939#0_0" departPos="35.74" departSpeed="0.00" departDelay="0.00" arrival="90.00" arrivalLane="809719540#0_0" arrivalPos="249.29" arrivalSpeed="16.57" duration="60.00" routeLength="353.20" waitingTime="17.00" waitingCount="1" stopTime="0.00" timeLoss="38.57" rerouteNo="0" devices="tripinfo_flow_route_134_duration_20250327_2030.1" vType="car" speedFactor="1.18" vaporized=""/>
    <tripinfo id="flow_route_139_duration_20250327_2030.3" depart="26.00" departLane="1310781056_0" departPos="20.79" departSpeed="0.00" departDelay="0.29" arrival="92.00" arrivalLane="1254157399#1_1" arrivalPos="104.08" arrivalSpeed="14.20" duration="66.00" routeLength="273.12" waitingTime="19.00" waitingCount="2" stopTime="0.00" timeLoss="47.44" rerouteNo="0" devices="tripinfo_flow_route_139_duration_20250327_2030.3" vType="car" speedFactor="0.92" vaporized=""/>
    <tripinfo id="flow_route_139_duration_20250327_2030.2" depart="19.00" departLane="1310781056_0" departPos="10.10" departSpeed="0.00" departDelay="1.86" arrival="93.00" arrivalLane="1254157399#1_0" arrivalPos="137.91" arrivalSpeed="14.91" duration="74.00" routeLength="317.64" waitingTime="26.00" waitingCount="2" stopTime="0.00" timeLoss="52.81" rerouteNo="0" devices="tripinfo_flow_route_139_duration_20250327_2030.2" vType="car" speedFactor="1.02" vaporized=""/>
    <tripinfo id="flow_route_139_duration_20250327_2030.5" depart="44.00" departLane="1310781056_0" departPos="48.21" departSpeed="0.00" departDelay="1.15" arrival="94.00" arrivalLane="1254157399#1_1" arrivalPos="64.72" arrivalSpeed="12.38" duration="50.00" routeLength="206.34" waitingTime="5.00" waitingCount="1" stopTime="0.00" timeLoss="36.18" rerouteNo="0" devices="tripinfo_flow_route_139_duration_20250327_2030.5" vType="car" speedFactor="1.04" vaporized=""/>
    <tripinfo id="flow_route_138_duration_20250327_2030.3" depart="45.00" departLane="1310781056_0" departPos="65.05" departSpeed="0.00" departDelay="0.00" arrival="94.00" arrivalLane="186410975#0_0" arrivalPos="117.64" arrivalSpeed="10.73" duration="49.00" routeLength="305.41" waitingTime="3.00" waitingCount="1" stopTime="0.00" timeLoss="26.94" rerouteNo="0" devices="tripinfo_flow_route_138_duration_20250327_2030.3" vType="car" speedFactor="1.00" vaporized=""/>
    <tripinfo id="flow_route_139_duration_20250327_2030.4" depart="35.00" departLane="1310781056_0" departPos="47.99" departSpeed="0.00" departDelay="0.72" arrival="96.00" arrivalLane="1254157399#1_1" arrivalPos="131.25" arrivalSpeed="15.51" duration="61.00" routeLength="273.09" waitingTime="13.00" waitingCount="2" stopTime="0.00" timeLoss="43.21" rerouteNo="0" devices="tripinfo_flow_route_139_duration_20250327_2030.4" vType="car" speedFactor="1.18" vaporized=""/>
    <tripinfo id="flow_route_136_duration_20250327_2030.4" depart="40.00" departLane="688883939#0_0" departPos="102.99" departSpeed="0.00" departDelay="0.00" arrival="97.00" arrivalLane="186410975#0_1" arrivalPos="151.00" arrivalSpeed="11.22" duration="57.00" routeLength="241.03" waitingTime="25.00" waitingCount="1" stopTime="0.00" timeLoss="36.58" rerouteNo="0" devices="tripinfo_flow_route_136_duration_20250327_2030.4" vType="car" speedFactor="1.03" vaporized=""/>
    <tripinfo id="flow_route_138_duration_20250327_2030.2" depart="31.00" departLane="1310781056_0" departPos="5.31" departSpeed="0.00" departDelay="1.00" arrival="101.00" arrivalLane="186410975#0_1" arrivalPos="256.11" arrivalSpeed="12.93" duration="70.00" routeLength="503.62" waitingTime="10.00" waitingCount="1" stopTime="0.00" timeLoss="35.00" rerouteNo="0" devices="tripinfo_flow_route_138_duration_20250327_2030.2" vType="car" speedFactor="1.17" vaporized=""/>
    <tripinfo id="flow_route_136_duration_20250327_2030.5" depart="50.00" departLane="688883939#0_0" departPos="75.09" departSpeed="0.00" departDelay="0.00" arrival="104.00" arrivalLane="186410975#0_0" arrivalPos="170.82" arrivalSpeed="9.09" duration="54.00" routeLength="288.75" waitingTime="8.00" waitingCount="2" stopTime="0.00" timeLoss="26.30" rerouteNo="0" devices="tripinfo_flow_route_136_duration_20250327_2030.5" vType="car" speedFactor="0.85" vaporized=""/>
    <tripinfo id="flow_route_153_duration_20250327_2030.0" depart="0.00" departLane="31861355#0_0" departPos="37.47" departSpeed="0.00" departDelay="0.00" arrival="118.00" arrivalLane="809719540#0_0" arrivalPos="146.46" arrivalSpeed="14.93" duration="118.00" routeLength="740.10" waitingTime="34.00" waitingCount="1" stopTime="0.00" timeLoss="69.74" rerouteNo="0" devices="tripinfo_flow_route_153_duration_20250327_2030.0" vType="car" speedFactor="0.94" vaporized=""/>
    <tripinfo id="flow_route_152_duration_20250327_2030.4" depart="36.00" departLane="31861355#0_0" departPos="242.35" departSpeed="0.00" departDelay="1.72" arrival="119.00" arrivalLane="714011134#0_1" arrivalPos="71.53" arrivalSpeed="13.20" duration="83.00" routeLength="490.06" waitingTime="28.00" waitingCount="1" stopTime="0.00" timeLoss="52.70" rerouteNo="0" devices="tripinfo_flow_route_152_duration_20250327_2030.4" vType="car" speedFactor="1.10" vaporized=""/>
    <tripinfo id="flow_route_139_duration_20250327_2030.6" depart="53.00" departLane="1310781056_0" departPos="54.43" departSpeed="0.00" departDelay="1.57" arrival="120.00" arrivalLane="1254157399#1_0" arrivalPos="440.84" arrivalSpeed="16.54" duration="67.00" routeLength="576.24" waitingTime="0.00" waitingCount="0" stopTime="0.00" timeLoss="30.75" rerouteNo="0" devices="tripinfo_flow_route_139_duration_20250327_2030.6" vType="car" speedFactor="1.17" vaporized=""/>
    <tripinfo id="flow_route_151_duration_20250327_2030.16" depart="54.00" departLane="31861355#0_0" departPos="419.93" departSpeed="0.00" departDelay="0.67" arrival="120.00" arrivalLane="186410975#0_0" arrivalPos="10.99" arrivalSpeed="11.82" duration="66.00" routeLength="318.28" waitingTime="23.00" waitingCount="1" stopTime="0.00" timeLoss="46.22" rerouteNo="0" devices="tripinfo_flow_route_151_duration_20250327_2030.16" vType="car" speedFactor="1.10" vaporized=""/>
    <tripinfo id="flow_route_151_duration_20250327_2030.4" depart="14.00" departLane="31861355#0_0" departPos="18.54" departSpeed="0.00" departDelay="0.67" arrival="121.00" arrivalLane="186410975#0_0" arrivalPos="41.07" arrivalSpeed="9.62" duration="107.00" routeLength="749.73" waitingTime="30.00" waitingCount="1" stopTime="0.00" timeLoss="54.03" rerouteNo="0" devices="tripinfo_flow_route_151_duration_20250327_2030.4" vType="car" speedFactor="0.88" vaporized=""/>
    <tripinfo id="flow_route_152_duration_20250327_2030.6" depart="52.00" departLane="31861355#0_0" departPos="231.07" departSpeed="0.00" departDelay="0.57" arrival="121.00" arrivalLane="714011134#0_1" arrivalPos="14.88" arrivalSpeed="11.85" duration="69.00" routeLength="444.68" waitingTime="16.00" waitingCount="1" stopTime="0.00" timeLoss="41.75" rerouteNo="0" devices="tripinfo_flow_route_152_duration_20250327_2030.6" vType="car" speedFactor="1.02" vaporized=""/>
    <tripinfo id="flow_route_153_duration_20250327_2030.3" depart="20.00" departLane="31861355#0_0" departPos="191.38" departSpeed="0.00" departDelay="0.00" arrival="123.00" arrivalLane="809719540#0_0" arrivalPos="185.77" arrivalSpeed="13.73" duration="103.00" routeLength="625.49" waitingTime="33.00" waitingCount="1" stopTime="0.00" timeLoss="56.26" rerouteNo="0" devices="tripinfo_flow_route_153_duration_20250327_2030.3" vType="car" speedFactor="0.83" vaporized=""/>
    <tripinfo id="flow_route_151_duration_20250327_2030.8" depart="27.00" departLane="31861355#0_0" departPos="173.39" departSpeed="0.00" departDelay="0.34" arrival="123.00" arrivalLane="186410975#0_1" arrivalPos="39.19" arrivalSpeed="12.47" duration="96.00" routeLength="593.01" waitingTime="25.00" waitingCount="1" stopTime="0.00" timeLoss="58.95" rerouteNo="0" devices="tripinfo_flow_route_151_duration_20250327_2030.8" vType="car" speedFactor="1.13" vaporized=""/>
    <tripinfo id="flow_route_151_duration_20250327_2030.10" depart="34.00" departLane="31861355#0_0" departPos="218.78" departSpeed="0.00" departDelay="0.67" arrival="125.00" arrivalLane="186410975#0_1" arrivalPos="20.65" arrivalSpeed="11.00" duration="91.00" routeLength="529.08" waitingTime="22.00" waitingCount="1" stopTime="0.00" timeLoss="57.60" rerouteNo="0" devices="tripinfo_flow_route_151_duration_20250327_2030.10" vType="car" speedFactor="1.02" vaporized=""/>
    <tripinfo id="flow_route_153_duration_20250327_2030.6" depart="40.00" departLane="31861355#0_0" departPos="188.25" departSpeed="0.00" departDelay="0.00" arrival="125.00" arrivalLane="809719540#0_0" arrivalPos="98.09" arrivalSpeed="13.75" duration="85.00" routeLength="540.95" waitingTime="20.00" waitingCount="1" stopTime="0.00" timeLoss="50.70" rerouteNo="0" devices="tripinfo_flow_route_153_duration_20250327_2030.6" vType="car" speedFactor="1.09" vaporized=""/>
    <tripinfo id="flow_route_151_duration_20250327_2030.9" depart="30.00" departLane="31861355#0_0" departPos="112.34" departSpeed="0.00" departDelay="0.00" arrival="129.00" arrivalLane="186410975#0_0" arrivalPos="81.01" arrivalSpeed="10.69" duration="99.00" routeLength="695.88" waitingTime="25.00" waitingCount="1" stopTime="0.00" timeLoss="54.18" rerouteNo="0" devices="tripinfo_flow_route_151_duration_20250327_2030.9" vType="car" speedFactor="0.99" vaporized=""/>
    <tripinfo id="flow_route_153_duration_20250327_2030.5" depart="34.00" departLane="31861355#0_0" departPos="180.35" departSpeed="0.00" departDelay="0.67" arrival="129.00" arrivalLane="809719540#0_0" arrivalPos="193.90" arrivalSpeed="15.82" duration="95.00" routeLength="644.66" waitingTime="20.00" waitingCount="1" stopTime="0.00" timeLoss="53.69" rerouteNo="0" devices="tripinfo_flow_route_153_duration_20250327_2030.5" vType="car" speedFactor="0.97" vaporized=""/>
    <tripinfo id="flow_route_153_duration_20250327_2030.7" depart="50.00" departLane="31861355#0_0" departPos="174.86" departSpeed="0.00" departDelay="3.34" arrival="130.00" arrivalLane="809719540#0_0" arrivalPos="110.42" arrivalSpeed="13.23" duration="80.00" routeLength="566.67" waitingTime="12.00" waitingCount="1" stopTime="0.00" timeLoss="39.79" rerouteNo="0" devices="tripinfo_flow_route_153_duration_20250327_2030.7" vType="car" speedFactor="0.88" vaporized=""/>
    <tripinfo id="flow_route_153_duration_20250327_2030.8" depart="57.00" departLane="31861355#0_0" departPos="214.25" departSpeed="0.00" departDelay="3.67" arrival="134.00" arrivalLane="809719540#0_0" arrivalPos="104.93" arrivalSpeed="12.79" duration="77.00" routeLength="521.79" waitingTime="11.00" waitingCount="1" stopTime="0.00" timeLoss="44.19" rerouteNo="0" devices="tripinfo_flow_route_153_duration_20250327_2030.8" vType="car" speedFactor="1.00" vaporized=""/>
    <tripinfo id="flow_route_151_duration_20250327_2030.12" depart="40.00" departLane="31861355#0_0" departPos="14.83" departSpeed="0.00" departDelay="0.00" arrival="137.00" arrivalLane="186410975#0_1" arrivalPos="107.68" arrivalSpeed="10.57" duration="97.00" routeLength="820.06" waitingTime="13.00" waitingCount="1" stopTime="0.00" timeLoss="41.94" rerouteNo="0" devices="tripinfo_flow_route_151_duration_20250327_2030.12" vType="car" speedFactor="0.96" vaporized=""/>
    <tripinfo id="flow_route_151_duration_20250327_2030.14" depart="49.00" departLane="31861355#0_0" departPos="63.13" departSpeed="0.00" departDelay="2.34" arrival="137.00" arrivalLane="186410975#0_1" arrivalPos="76.48" arrivalSpeed="9.86" duration="88.00" routeLength="740.56" waitingTime="9.00" waitingCount="1" stopTime="0.00" timeLoss="35.97" rerouteNo="0" devices="tripinfo_flow_route_151_duration_20250327_2030.14" vType="car" speedFactor="0.90" vaporized=""/>
    <tripinfo id="flow_route_151_duration_20250327_2030.17" depart="58.00" departLane="31861355#0_0" departPos="267.91" departSpeed="0.00" departDelay="1.34" arrival="152.00" arrivalLane="186410975#0_0" arrivalPos="233.44" arrivalSpeed="10.66" duration="94.00" routeLength="692.74" waitingTime="12.00" waitingCount="1" stopTime="0.00" timeLoss="44.26" rerouteNo="0" devices="tripinfo_flow_route_151_duration_20250327_2030.17" vType="car" speedFactor="1.00" vaporized=""/>
    <tripinfo id="flow_route_151_duration_20250327_2030.15" depart="50.00" departLane="31861355#0_0" departPos="77.29" departSpeed="0.00" departDelay="0.01" arrival="153.00" arrivalLane="186410975#0_0" arrivalPos="201.58" arrivalSpeed="9.23" duration="103.00" routeLength="851.50" waitingTime="12.00" waitingCount="1" stopTime="0.00" timeLoss="36.33" rerouteNo="0" devices="tripinfo_flow_route_151_duration_20250327_2030.15" vType="car" speedFactor="0.85" vaporized=""/>
</tripinfos>
