<?xml version="1.0" encoding="UTF-8"?>

<!-- generated on 2025-05-06 21:07:52 by Eclipse SUMO sumo Version 1.20.0
<configuration xmlns:xsi="http://www.w3.org/2001/XMLSchema-instance" xsi:noNamespaceSchemaLocation="http://sumo.dlr.de/xsd/sumoConfiguration.xsd">

    <input>
        <net-file value="osm.net.xml"/>
        <route-files value="xml/route_rl_GS_cluster_1342409365_3839031467_1.rou.xml"/>
    </input>

    <output>
        <tripinfo-output value="xml/tripinfo_rl_GS_cluster_1342409365_3839031467_1.xml"/>
    </output>

    <traci_server>
        <remote-port value="53027"/>
    </traci_server>

</configuration>
-->

<tripinfos xmlns:xsi="http://www.w3.org/2001/XMLSchema-instance" xsi:noNamespaceSchemaLocation="http://sumo.dlr.de/xsd/tripinfo_file.xsd">
    <tripinfo id="flow_route_128_duration_20250327_2140.0" depart="0.00" departLane="134133272_0" departPos="226.49" departSpeed="0.00" departDelay="0.00" arrival="31.00" arrivalLane="380585338#0_0" arrivalPos="7.57" arrivalSpeed="5.61" duration="31.00" routeLength="279.28" waitingTime="0.00" waitingCount="0" stopTime="0.00" timeLoss="10.62" rerouteNo="0" devices="tripinfo_flow_route_128_duration_20250327_2140.0" vType="car" speedFactor="0.83" vaporized=""/>
    <tripinfo id="flow_route_92_duration_20250327_2140.2" depart="5.00" departLane="133000063_0" departPos="161.74" departSpeed="0.00" departDelay="0.00" arrival="35.00" arrivalLane="186409193_0" arrivalPos="37.01" arrivalSpeed="15.36" duration="30.00" routeLength="267.13" waitingTime="0.00" waitingCount="0" stopTime="0.00" timeLoss="13.34" rerouteNo="0" devices="tripinfo_flow_route_92_duration_20250327_2140.2" vType="car" speedFactor="1.03" vaporized=""/>
    <tripinfo id="flow_route_92_duration_20250327_2140.3" depart="9.00" departLane="133000063_0" departPos="131.68" departSpeed="0.00" departDelay="1.50" arrival="40.00" arrivalLane="186409193_0" arrivalPos="31.80" arrivalSpeed="16.49" duration="31.00" routeLength="291.98" waitingTime="0.00" waitingCount="0" stopTime="0.00" timeLoss="12.29" rerouteNo="0" devices="tripinfo_flow_route_92_duration_20250327_2140.3" vType="car" speedFactor="1.12" vaporized=""/>
    <tripinfo id="flow_route_92_duration_20250327_2140.1" depart="3.00" departLane="133000063_0" departPos="88.35" departSpeed="0.00" departDelay="0.50" arrival="45.00" arrivalLane="186409193_0" arrivalPos="39.94" arrivalSpeed="14.13" duration="42.00" routeLength="343.44" waitingTime="0.00" waitingCount="0" stopTime="0.00" timeLoss="17.33" rerouteNo="0" devices="tripinfo_flow_route_92_duration_20250327_2140.1" vType="car" speedFactor="0.86" vaporized=""/>
    <tripinfo id="flow_route_103_duration_20250327_2140.0" depart="1.00" departLane="1342963997_0" departPos="57.81" departSpeed="0.00" departDelay="1.00" arrival="49.00" arrivalLane="683079387#1_0" arrivalPos="6.02" arrivalSpeed="16.38" duration="48.00" routeLength="524.42" waitingTime="0.00" waitingCount="0" stopTime="0.00" timeLoss="15.52" rerouteNo="0" devices="tripinfo_flow_route_103_duration_20250327_2140.0" vType="car" speedFactor="1.03" vaporized=""/>
    <tripinfo id="flow_route_91_duration_20250327_2140.0" depart="0.00" departLane="133000063_0" departPos="128.34" departSpeed="0.00" departDelay="0.00" arrival="50.00" arrivalLane="683079387#1_1" arrivalPos="9.10" arrivalSpeed="16.42" duration="50.00" routeLength="599.49" waitingTime="0.00" waitingCount="0" stopTime="0.00" timeLoss="13.32" rerouteNo="0" devices="tripinfo_flow_route_91_duration_20250327_2140.0" vType="car" speedFactor="1.06" vaporized=""/>
    <tripinfo id="flow_route_92_duration_20250327_2140.0" depart="0.00" departLane="133000063_0" departPos="1.04" departSpeed="0.00" departDelay="0.00" arrival="52.00" arrivalLane="186409193_0" arrivalPos="41.62" arrivalSpeed="14.98" duration="52.00" routeLength="432.44" waitingTime="0.00" waitingCount="0" stopTime="0.00" timeLoss="23.05" rerouteNo="0" devices="tripinfo_flow_route_92_duration_20250327_2140.0" vType="car" speedFactor="0.94" vaporized=""/>
    <tripinfo id="flow_route_92_duration_20250327_2140.5" depart="14.00" departLane="133000063_0" departPos="38.43" departSpeed="0.00" departDelay="1.50" arrival="57.00" arrivalLane="186409193_0" arrivalPos="56.35" arrivalSpeed="15.46" duration="43.00" routeLength="409.78" waitingTime="0.00" waitingCount="0" stopTime="0.00" timeLoss="16.03" rerouteNo="0" devices="tripinfo_flow_route_92_duration_20250327_2140.5" vType="car" speedFactor="0.94" vaporized=""/>
    <tripinfo id="flow_route_128_duration_20250327_2140.2" depart="30.00" departLane="134133272_0" departPos="369.93" departSpeed="0.00" departDelay="0.00" arrival="60.00" arrivalLane="380585338#0_0" arrivalPos="72.44" arrivalSpeed="10.91" duration="30.00" routeLength="200.71" waitingTime="0.00" waitingCount="0" stopTime="0.00" timeLoss="15.59" rerouteNo="0" devices="tripinfo_flow_route_128_duration_20250327_2140.2" vType="car" speedFactor="0.90" vaporized=""/>
    <tripinfo id="flow_route_92_duration_20250327_2140.4" depart="12.00" departLane="133000063_0" departPos="21.60" departSpeed="0.00" departDelay="2.00" arrival="61.00" arrivalLane="186409193_0" arrivalPos="55.88" arrivalSpeed="15.44" duration="49.00" routeLength="426.15" waitingTime="0.00" waitingCount="0" stopTime="0.00" timeLoss="20.18" rerouteNo="0" devices="tripinfo_flow_route_92_duration_20250327_2140.4" vType="car" speedFactor="0.93" vaporized=""/>
    <tripinfo id="flow_route_128_duration_20250327_2140.1" depart="15.00" departLane="134133272_0" departPos="123.11" departSpeed="0.00" departDelay="0.00" arrival="66.00" arrivalLane="380585338#0_0" arrivalPos="116.02" arrivalSpeed="14.42" duration="51.00" routeLength="491.11" waitingTime="0.00" waitingCount="0" stopTime="0.00" timeLoss="16.50" rerouteNo="0" devices="tripinfo_flow_route_128_duration_20250327_2140.1" vType="car" speedFactor="0.89" vaporized=""/>
    <tripinfo id="flow_route_91_duration_20250327_2140.1" depart="15.00" departLane="133000063_0" departPos="102.69" departSpeed="0.00" departDelay="0.00" arrival="67.00" arrivalLane="683079387#1_0" arrivalPos="1.71" arrivalSpeed="15.57" duration="52.00" routeLength="617.75" waitingTime="0.00" waitingCount="0" stopTime="0.00" timeLoss="11.43" rerouteNo="0" devices="tripinfo_flow_route_91_duration_20250327_2140.1" vType="car" speedFactor="0.94" vaporized=""/>
    <tripinfo id="flow_route_145_duration_20250327_2140.0" depart="0.00" departLane="683079388#0_0" departPos="22.61" departSpeed="0.00" departDelay="0.00" arrival="68.00" arrivalLane="380585336_0" arrivalPos="229.76" arrivalSpeed="15.56" duration="68.00" routeLength="831.39" waitingTime="0.00" waitingCount="0" stopTime="0.00" timeLoss="15.47" rerouteNo="0" devices="tripinfo_flow_route_145_duration_20250327_2140.0" vType="car" speedFactor="0.94" vaporized=""/>
    <tripinfo id="flow_route_102_duration_20250327_2140.0" depart="0.00" departLane="1342963997_0" departPos="83.70" departSpeed="0.00" departDelay="0.00" arrival="69.00" arrivalLane="380585336_1" arrivalPos="207.08" arrivalSpeed="16.56" duration="69.00" routeLength="834.32" waitingTime="0.00" waitingCount="0" stopTime="0.00" timeLoss="17.86" rerouteNo="0" devices="tripinfo_flow_route_102_duration_20250327_2140.0" vType="car" speedFactor="1.08" vaporized=""/>
    <tripinfo id="flow_route_93_duration_20250327_2140.0" depart="0.00" departLane="133000063_0" departPos="115.92" departSpeed="0.00" departDelay="0.00" arrival="70.00" arrivalLane="380585336_1" arrivalPos="19.16" arrivalSpeed="16.40" duration="70.00" routeLength="758.54" waitingTime="0.00" waitingCount="0" stopTime="0.00" timeLoss="23.41" rerouteNo="0" devices="tripinfo_flow_route_93_duration_20250327_2140.0" vType="car" speedFactor="1.01" vaporized=""/>
    <tripinfo id="flow_route_128_duration_20250327_2140.3" depart="45.00" departLane="134133272_0" departPos="219.68" departSpeed="0.00" departDelay="0.00" arrival="78.00" arrivalLane="380585338#0_0" arrivalPos="17.86" arrivalSpeed="8.27" duration="33.00" routeLength="296.39" waitingTime="0.00" waitingCount="0" stopTime="0.00" timeLoss="14.12" rerouteNo="0" devices="tripinfo_flow_route_128_duration_20250327_2140.3" vType="car" speedFactor="1.14" vaporized=""/>
    <tripinfo id="flow_route_93_duration_20250327_2140.1" depart="3.00" departLane="133000063_0" departPos="52.89" departSpeed="0.00" departDelay="0.14" arrival="79.00" arrivalLane="380585336_1" arrivalPos="19.47" arrivalSpeed="16.13" duration="76.00" routeLength="821.87" waitingTime="0.00" waitingCount="0" stopTime="0.00" timeLoss="25.56" rerouteNo="0" devices="tripinfo_flow_route_93_duration_20250327_2140.1" vType="car" speedFactor="1.09" vaporized=""/>
    <tripinfo id="flow_route_129_duration_20250327_2140.0" depart="0.00" departLane="134133272_0" departPos="105.80" departSpeed="0.00" departDelay="0.00" arrival="83.00" arrivalLane="683079387#1_0" arrivalPos="7.59" arrivalSpeed="16.10" duration="83.00" routeLength="945.90" waitingTime="1.00" waitingCount="1" stopTime="0.00" timeLoss="25.50" rerouteNo="0" devices="tripinfo_flow_route_129_duration_20250327_2140.0" vType="car" speedFactor="1.05" vaporized=""/>
    <tripinfo id="flow_route_93_duration_20250327_2140.4" depart="12.00" departLane="133000063_0" departPos="70.85" departSpeed="0.00" departDelay="0.57" arrival="87.00" arrivalLane="380585336_1" arrivalPos="54.51" arrivalSpeed="14.27" duration="75.00" routeLength="838.95" waitingTime="0.00" waitingCount="0" stopTime="0.00" timeLoss="18.04" rerouteNo="0" devices="tripinfo_flow_route_93_duration_20250327_2140.4" vType="car" speedFactor="0.88" vaporized=""/>
    <tripinfo id="flow_route_144_duration_20250327_2140.0" depart="0.00" departLane="683079388#0_0" departPos="1.56" departSpeed="0.00" departDelay="0.00" arrival="89.00" arrivalLane="380585338#0_0" arrivalPos="42.98" arrivalSpeed="10.01" duration="89.00" routeLength="621.16" waitingTime="25.00" waitingCount="1" stopTime="0.00" timeLoss="46.46" rerouteNo="0" devices="tripinfo_flow_route_144_duration_20250327_2140.0" vType="car" speedFactor="0.89" vaporized=""/>
    <tripinfo id="flow_route_93_duration_20250327_2140.3" depart="10.00" departLane="133000063_0" departPos="5.14" departSpeed="0.00" departDelay="1.43" arrival="90.00" arrivalLane="380585336_1" arrivalPos="13.66" arrivalSpeed="16.51" duration="80.00" routeLength="863.81" waitingTime="0.00" waitingCount="0" stopTime="0.00" timeLoss="27.53" rerouteNo="0" devices="tripinfo_flow_route_93_duration_20250327_2140.3" vType="car" speedFactor="0.99" vaporized=""/>
    <tripinfo id="flow_route_129_duration_20250327_2140.1" depart="30.00" departLane="134133272_0" departPos="197.06" departSpeed="0.00" departDelay="0.00" arrival="93.00" arrivalLane="683079387#1_1" arrivalPos="3.73" arrivalSpeed="16.29" duration="63.00" routeLength="850.78" waitingTime="0.00" waitingCount="0" stopTime="0.00" timeLoss="11.27" rerouteNo="0" devices="tripinfo_flow_route_129_duration_20250327_2140.1" vType="car" speedFactor="1.03" vaporized=""/>
    <tripinfo id="flow_route_144_duration_20250327_2140.1" depart="15.00" departLane="683079388#0_0" departPos="12.72" departSpeed="0.00" departDelay="0.00" arrival="95.00" arrivalLane="380585338#0_0" arrivalPos="124.26" arrivalSpeed="13.34" duration="80.00" routeLength="691.28" waitingTime="8.00" waitingCount="1" stopTime="0.00" timeLoss="29.42" rerouteNo="0" devices="tripinfo_flow_route_144_duration_20250327_2140.1" vType="car" speedFactor="0.83" vaporized=""/>
    <tripinfo id="flow_route_103_duration_20250327_2140.3" depart="45.00" departLane="1342963997_0" departPos="169.65" departSpeed="0.00" departDelay="0.00" arrival="99.00" arrivalLane="683079387#1_0" arrivalPos="5.85" arrivalSpeed="14.49" duration="54.00" routeLength="407.46" waitingTime="6.00" waitingCount="2" stopTime="0.00" timeLoss="26.10" rerouteNo="0" devices="tripinfo_flow_route_103_duration_20250327_2140.3" vType="car" speedFactor="0.90" vaporized=""/>
    <tripinfo id="flow_route_144_duration_20250327_2140.2" depart="30.00" departLane="683079388#0_0" departPos="10.98" departSpeed="0.00" departDelay="0.00" arrival="100.00" arrivalLane="380585338#0_0" arrivalPos="169.63" arrivalSpeed="15.51" duration="70.00" routeLength="738.39" waitingTime="0.00" waitingCount="0" stopTime="0.00" timeLoss="23.25" rerouteNo="0" devices="tripinfo_flow_route_144_duration_20250327_2140.2" vType="car" speedFactor="0.96" vaporized=""/>
    <tripinfo id="flow_route_144_duration_20250327_2140.3" depart="45.00" departLane="683079388#0_0" departPos="0.38" departSpeed="0.00" departDelay="0.00" arrival="101.00" arrivalLane="380585338#0_0" arrivalPos="148.74" arrivalSpeed="16.59" duration="56.00" routeLength="728.10" waitingTime="0.00" waitingCount="0" stopTime="0.00" timeLoss="11.28" rerouteNo="0" devices="tripinfo_flow_route_144_duration_20250327_2140.3" vType="car" speedFactor="1.02" vaporized=""/>
    <tripinfo id="flow_route_92_duration_20250327_2140.6" depart="18.00" departLane="133000063_0" departPos="26.15" departSpeed="0.00" departDelay="3.00" arrival="104.00" arrivalLane="186409193_0" arrivalPos="33.39" arrivalSpeed="15.98" duration="86.00" routeLength="399.10" waitingTime="35.00" waitingCount="1" stopTime="0.00" timeLoss="61.24" rerouteNo="0" devices="tripinfo_flow_route_92_duration_20250327_2140.6" vType="car" speedFactor="1.16" vaporized=""/>
    <tripinfo id="flow_route_103_duration_20250327_2140.1" depart="16.00" departLane="1342963997_0" departPos="30.24" departSpeed="0.00" departDelay="1.00" arrival="104.00" arrivalLane="683079387#1_0" arrivalPos="0.91" arrivalSpeed="16.16" duration="88.00" routeLength="546.88" waitingTime="17.00" waitingCount="4" stopTime="0.00" timeLoss="53.50" rerouteNo="0" devices="tripinfo_flow_route_103_duration_20250327_2140.1" vType="car" speedFactor="0.97" vaporized=""/>
    <tripinfo id="flow_route_93_duration_20250327_2140.2" depart="9.00" departLane="133000063_0" departPos="51.98" departSpeed="0.00" departDelay="3.29" arrival="106.00" arrivalLane="380585336_0" arrivalPos="347.33" arrivalSpeed="16.42" duration="97.00" routeLength="1150.64" waitingTime="0.00" waitingCount="0" stopTime="0.00" timeLoss="27.56" rerouteNo="0" devices="tripinfo_flow_route_93_duration_20250327_2140.2" vType="car" speedFactor="1.05" vaporized=""/>
    <tripinfo id="flow_route_103_duration_20250327_2140.2" depart="30.00" departLane="1342963997_0" departPos="112.27" departSpeed="0.00" departDelay="0.00" arrival="106.00" arrivalLane="683079387#1_0" arrivalPos="5.97" arrivalSpeed="16.48" duration="76.00" routeLength="469.92" waitingTime="13.00" waitingCount="3" stopTime="0.00" timeLoss="46.80" rerouteNo="0" devices="tripinfo_flow_route_103_duration_20250327_2140.2" vType="car" speedFactor="1.10" vaporized=""/>
    <tripinfo id="flow_route_92_duration_20250327_2140.9" depart="37.00" departLane="133000063_0" departPos="122.67" departSpeed="0.00" departDelay="14.50" arrival="109.00" arrivalLane="186409193_0" arrivalPos="19.81" arrivalSpeed="13.28" duration="72.00" routeLength="288.99" waitingTime="25.00" waitingCount="2" stopTime="0.00" timeLoss="52.91" rerouteNo="0" devices="tripinfo_flow_route_92_duration_20250327_2140.9" vType="car" speedFactor="0.93" vaporized=""/>
    <tripinfo id="flow_route_92_duration_20250327_2140.11" depart="42.00" departLane="133000063_0" departPos="155.78" departSpeed="0.00" departDelay="14.50" arrival="112.00" arrivalLane="186409193_0" arrivalPos="12.41" arrivalSpeed="14.94" duration="70.00" routeLength="248.49" waitingTime="26.00" waitingCount="2" stopTime="0.00" timeLoss="53.88" rerouteNo="0" devices="tripinfo_flow_route_92_duration_20250327_2140.11" vType="car" speedFactor="1.17" vaporized=""/>
    <tripinfo id="flow_route_145_duration_20250327_2140.1" depart="31.00" departLane="683079388#0_0" departPos="22.56" departSpeed="0.00" departDelay="1.00" arrival="114.00" arrivalLane="380585336_0" arrivalPos="10.05" arrivalSpeed="7.59" duration="83.00" routeLength="611.73" waitingTime="25.00" waitingCount="1" stopTime="0.00" timeLoss="45.86" rerouteNo="0" devices="tripinfo_flow_route_145_duration_20250327_2140.1" vType="car" speedFactor="1.09" vaporized=""/>
    <tripinfo id="flow_route_92_duration_20250327_2140.10" depart="40.00" departLane="133000063_0" departPos="116.32" departSpeed="0.00" departDelay="15.00" arrival="116.00" arrivalLane="186409193_0" arrivalPos="10.55" arrivalSpeed="14.03" duration="76.00" routeLength="286.10" waitingTime="21.00" waitingCount="2" stopTime="0.00" timeLoss="58.41" rerouteNo="0" devices="tripinfo_flow_route_92_duration_20250327_2140.10" vType="car" speedFactor="1.15" vaporized=""/>
    <tripinfo id="flow_route_102_duration_20250327_2140.1" depart="15.00" departLane="1342963997_0" departPos="167.90" departSpeed="0.00" departDelay="0.00" arrival="118.00" arrivalLane="380585336_0" arrivalPos="342.02" arrivalSpeed="16.14" duration="103.00" routeLength="885.07" waitingTime="28.00" waitingCount="1" stopTime="0.00" timeLoss="48.90" rerouteNo="0" devices="tripinfo_flow_route_102_duration_20250327_2140.1" vType="car" speedFactor="1.01" vaporized=""/>
    <tripinfo id="flow_route_92_duration_20250327_2140.8" depart="33.00" departLane="133000063_0" departPos="70.80" departSpeed="0.00" departDelay="13.00" arrival="118.00" arrivalLane="186409193_0" arrivalPos="54.22" arrivalSpeed="15.50" duration="85.00" routeLength="375.28" waitingTime="15.00" waitingCount="2" stopTime="0.00" timeLoss="60.06" rerouteNo="0" devices="tripinfo_flow_route_92_duration_20250327_2140.8" vType="car" speedFactor="0.95" vaporized=""/>
    <tripinfo id="flow_route_91_duration_20250327_2140.2" depart="48.00" departLane="133000063_0" departPos="59.57" departSpeed="0.00" departDelay="18.00" arrival="121.00" arrivalLane="683079387#1_1" arrivalPos="3.98" arrivalSpeed="16.31" duration="73.00" routeLength="663.14" waitingTime="6.00" waitingCount="1" stopTime="0.00" timeLoss="32.50" rerouteNo="0" devices="tripinfo_flow_route_91_duration_20250327_2140.2" vType="car" speedFactor="1.02" vaporized=""/>
    <tripinfo id="flow_route_92_duration_20250327_2140.12" depart="52.00" departLane="133000063_0" departPos="83.78" departSpeed="0.00" departDelay="22.00" arrival="121.00" arrivalLane="186409193_0" arrivalPos="29.96" arrivalSpeed="14.47" duration="69.00" routeLength="338.04" waitingTime="5.00" waitingCount="1" stopTime="0.00" timeLoss="47.08" rerouteNo="0" devices="tripinfo_flow_route_92_duration_20250327_2140.12" vType="car" speedFactor="0.97" vaporized=""/>
    <tripinfo id="flow_route_92_duration_20250327_2140.7" depart="25.00" departLane="133000063_0" departPos="8.07" departSpeed="0.00" departDelay="7.50" arrival="125.00" arrivalLane="186409193_0" arrivalPos="10.71" arrivalSpeed="12.78" duration="100.00" routeLength="394.50" waitingTime="18.00" waitingCount="2" stopTime="0.00" timeLoss="72.47" rerouteNo="0" devices="tripinfo_flow_route_92_duration_20250327_2140.7" vType="car" speedFactor="0.87" vaporized=""/>
    <tripinfo id="flow_route_91_duration_20250327_2140.3" depart="73.00" departLane="133000063_0" departPos="41.07" departSpeed="0.00" departDelay="28.00" arrival="125.00" arrivalLane="683079387#1_1" arrivalPos="3.87" arrivalSpeed="16.38" duration="52.00" routeLength="681.54" waitingTime="0.00" waitingCount="0" stopTime="0.00" timeLoss="10.91" rerouteNo="0" devices="tripinfo_flow_route_91_duration_20250327_2140.3" vType="car" speedFactor="1.10" vaporized=""/>
    <tripinfo id="flow_route_102_duration_20250327_2140.2" depart="30.00" departLane="1342963997_0" departPos="157.21" departSpeed="0.00" departDelay="0.00" arrival="126.00" arrivalLane="380585336_0" arrivalPos="347.85" arrivalSpeed="16.47" duration="96.00" routeLength="901.58" waitingTime="14.00" waitingCount="2" stopTime="0.00" timeLoss="40.93" rerouteNo="0" devices="tripinfo_flow_route_102_duration_20250327_2140.2" vType="car" speedFactor="1.18" vaporized=""/>
    <tripinfo id="flow_route_92_duration_20250327_2140.13" depart="55.00" departLane="133000063_0" departPos="83.96" departSpeed="0.00" departDelay="22.50" arrival="128.00" arrivalLane="186409193_0" arrivalPos="17.31" arrivalSpeed="14.37" duration="73.00" routeLength="325.21" waitingTime="4.00" waitingCount="2" stopTime="0.00" timeLoss="52.25" rerouteNo="0" devices="tripinfo_flow_route_92_duration_20250327_2140.13" vType="car" speedFactor="1.04" vaporized=""/>
    <tripinfo id="flow_route_92_duration_20250327_2140.16" depart="64.00" departLane="133000063_0" departPos="22.30" departSpeed="0.00" departDelay="24.00" arrival="129.00" arrivalLane="186409193_0" arrivalPos="2.49" arrivalSpeed="12.27" duration="65.00" routeLength="372.04" waitingTime="0.00" waitingCount="0" stopTime="0.00" timeLoss="37.80" rerouteNo="0" devices="tripinfo_flow_route_92_duration_20250327_2140.16" vType="car" speedFactor="0.85" vaporized=""/>
    <tripinfo id="flow_route_92_duration_20250327_2140.15" depart="61.00" departLane="133000063_0" departPos="76.58" departSpeed="0.00" departDelay="23.50" arrival="132.00" arrivalLane="186409193_0" arrivalPos="8.25" arrivalSpeed="13.08" duration="71.00" routeLength="323.53" waitingTime="2.00" waitingCount="2" stopTime="0.00" timeLoss="48.39" rerouteNo="0" devices="tripinfo_flow_route_92_duration_20250327_2140.15" vType="car" speedFactor="0.90" vaporized=""/>
    <tripinfo id="flow_route_92_duration_20250327_2140.14" depart="59.00" departLane="133000063_0" departPos="26.41" departSpeed="0.00" departDelay="24.00" arrival="134.00" arrivalLane="186409193_0" arrivalPos="5.93" arrivalSpeed="14.13" duration="75.00" routeLength="371.38" waitingTime="0.00" waitingCount="0" stopTime="0.00" timeLoss="52.12" rerouteNo="0" devices="tripinfo_flow_route_92_duration_20250327_2140.14" vType="car" speedFactor="1.09" vaporized=""/>
    <tripinfo id="flow_route_102_duration_20250327_2140.3" depart="45.00" departLane="1342963997_0" departPos="147.44" departSpeed="0.00" departDelay="0.00" arrival="134.00" arrivalLane="380585336_1" arrivalPos="249.73" arrivalSpeed="16.50" duration="89.00" routeLength="813.25" waitingTime="4.00" waitingCount="2" stopTime="0.00" timeLoss="38.91" rerouteNo="0" devices="tripinfo_flow_route_102_duration_20250327_2140.3" vType="car" speedFactor="1.00" vaporized=""/>
    <tripinfo id="flow_route_92_duration_20250327_2140.17" depart="70.00" departLane="133000063_0" departPos="55.26" departSpeed="0.00" departDelay="27.50" arrival="138.00" arrivalLane="186409193_0" arrivalPos="38.75" arrivalSpeed="15.93" duration="68.00" routeLength="375.35" waitingTime="0.00" waitingCount="0" stopTime="0.00" timeLoss="44.82" rerouteNo="0" devices="tripinfo_flow_route_92_duration_20250327_2140.17" vType="car" speedFactor="1.17" vaporized=""/>
    <tripinfo id="flow_route_93_duration_20250327_2140.7" depart="37.00" departLane="133000063_0" departPos="48.44" departSpeed="0.00" departDelay="17.00" arrival="139.00" arrivalLane="380585336_1" arrivalPos="28.22" arrivalSpeed="16.51" duration="102.00" routeLength="835.07" waitingTime="6.00" waitingCount="2" stopTime="0.00" timeLoss="51.57" rerouteNo="0" devices="tripinfo_flow_route_93_duration_20250327_2140.7" vType="car" speedFactor="1.13" vaporized=""/>
    <tripinfo id="flow_route_93_duration_20250327_2140.5" depart="18.00" departLane="133000063_0" departPos="4.79" departSpeed="0.00" departDelay="3.72" arrival="145.00" arrivalLane="380585336_1" arrivalPos="101.71" arrivalSpeed="16.39" duration="127.00" routeLength="952.21" waitingTime="34.00" waitingCount="1" stopTime="0.00" timeLoss="69.56" rerouteNo="0" devices="tripinfo_flow_route_93_duration_20250327_2140.5" vType="car" speedFactor="1.02" vaporized=""/>
    <tripinfo id="flow_route_93_duration_20250327_2140.8" depart="37.00" departLane="133000063_0" departPos="21.41" departSpeed="0.00" departDelay="14.14" arrival="145.00" arrivalLane="380585336_1" arrivalPos="36.24" arrivalSpeed="16.33" duration="108.00" routeLength="870.13" waitingTime="4.00" waitingCount="2" stopTime="0.00" timeLoss="55.24" rerouteNo="0" devices="tripinfo_flow_route_93_duration_20250327_2140.8" vType="car" speedFactor="1.18" vaporized=""/>
    <tripinfo id="flow_route_93_duration_20250327_2140.6" depart="30.00" departLane="133000063_0" departPos="52.14" departSpeed="0.00" departDelay="12.86" arrival="153.00" arrivalLane="380585336_0" arrivalPos="270.36" arrivalSpeed="15.19" duration="123.00" routeLength="1073.51" waitingTime="18.00" waitingCount="2" stopTime="0.00" timeLoss="53.09" rerouteNo="0" devices="tripinfo_flow_route_93_duration_20250327_2140.6" vType="car" speedFactor="0.92" vaporized=""/>
    <tripinfo id="flow_route_93_duration_20250327_2140.10" depart="48.00" departLane="133000063_0" departPos="28.85" departSpeed="0.00" departDelay="19.43" arrival="161.00" arrivalLane="380585336_1" arrivalPos="178.33" arrivalSpeed="16.48" duration="113.00" routeLength="1004.77" waitingTime="1.00" waitingCount="1" stopTime="0.00" timeLoss="51.67" rerouteNo="0" devices="tripinfo_flow_route_93_duration_20250327_2140.10" vType="car" speedFactor="0.99" vaporized=""/>
    <tripinfo id="flow_route_93_duration_20250327_2140.9" depart="41.00" departLane="133000063_0" departPos="145.63" departSpeed="0.00" departDelay="15.29" arrival="164.00" arrivalLane="380585336_0" arrivalPos="304.17" arrivalSpeed="16.16" duration="123.00" routeLength="1013.83" waitingTime="23.00" waitingCount="1" stopTime="0.00" timeLoss="61.22" rerouteNo="0" devices="tripinfo_flow_route_93_duration_20250327_2140.9" vType="car" speedFactor="1.01" vaporized=""/>
    <tripinfo id="flow_route_93_duration_20250327_2140.11" depart="53.00" departLane="133000063_0" departPos="19.69" departSpeed="0.00" departDelay="21.57" arrival="167.00" arrivalLane="380585336_1" arrivalPos="241.71" arrivalSpeed="16.46" duration="114.00" routeLength="1077.31" waitingTime="0.00" waitingCount="0" stopTime="0.00" timeLoss="48.25" rerouteNo="0" devices="tripinfo_flow_route_93_duration_20250327_2140.11" vType="car" speedFactor="1.04" vaporized=""/>
    <tripinfo id="flow_route_93_duration_20250327_2140.12" depart="60.00" departLane="133000063_0" departPos="55.71" departSpeed="0.00" departDelay="25.72" arrival="170.00" arrivalLane="380585336_2" arrivalPos="196.49" arrivalSpeed="16.24" duration="110.00" routeLength="996.07" waitingTime="0.00" waitingCount="0" stopTime="0.00" timeLoss="49.37" rerouteNo="0" devices="tripinfo_flow_route_93_duration_20250327_2140.12" vType="car" speedFactor="1.00" vaporized=""/>
    <tripinfo id="flow_route_93_duration_20250327_2140.14" depart="67.00" departLane="133000063_0" departPos="38.92" departSpeed="0.00" departDelay="27.00" arrival="170.00" arrivalLane="380585336_0" arrivalPos="164.61" arrivalSpeed="13.90" duration="103.00" routeLength="980.98" waitingTime="0.00" waitingCount="0" stopTime="0.00" timeLoss="34.32" rerouteNo="0" devices="tripinfo_flow_route_93_duration_20250327_2140.14" vType="car" speedFactor="0.85" vaporized=""/>
    <tripinfo id="flow_route_92_duration_20250327_2140.20" depart="90.00" departLane="133000063_0" departPos="32.83" departSpeed="0.00" departDelay="40.00" arrival="182.00" arrivalLane="186409193_0" arrivalPos="0.05" arrivalSpeed="13.58" duration="92.00" routeLength="359.08" waitingTime="19.00" waitingCount="3" stopTime="0.00" timeLoss="69.17" rerouteNo="0" devices="tripinfo_flow_route_92_duration_20250327_2140.20" vType="car" speedFactor="1.02" vaporized=""/>
    <tripinfo id="flow_route_93_duration_20250327_2140.15" depart="73.00" departLane="133000063_0" departPos="32.82" departSpeed="0.00" departDelay="30.15" arrival="184.00" arrivalLane="380585336_1" arrivalPos="181.55" arrivalSpeed="16.35" duration="111.00" routeLength="1004.02" waitingTime="0.00" waitingCount="0" stopTime="0.00" timeLoss="49.68" rerouteNo="0" devices="tripinfo_flow_route_93_duration_20250327_2140.15" vType="car" speedFactor="1.02" vaporized=""/>
    <tripinfo id="flow_route_92_duration_20250327_2140.19" depart="85.00" departLane="133000063_0" departPos="1.26" departSpeed="0.00" departDelay="37.50" arrival="190.00" arrivalLane="186409193_0" arrivalPos="52.77" arrivalSpeed="16.21" duration="105.00" routeLength="443.37" waitingTime="18.00" waitingCount="3" stopTime="0.00" timeLoss="77.24" rerouteNo="0" devices="tripinfo_flow_route_92_duration_20250327_2140.19" vType="car" speedFactor="1.08" vaporized=""/>
    <tripinfo id="flow_route_92_duration_20250327_2140.18" depart="79.00" departLane="133000063_0" departPos="14.57" departSpeed="0.00" departDelay="34.00" arrival="192.00" arrivalLane="186409193_0" arrivalPos="39.78" arrivalSpeed="15.27" duration="113.00" routeLength="417.07" waitingTime="37.00" waitingCount="2" stopTime="0.00" timeLoss="86.54" rerouteNo="0" devices="tripinfo_flow_route_92_duration_20250327_2140.18" vType="car" speedFactor="1.00" vaporized=""/>
    <tripinfo id="flow_route_93_duration_20250327_2140.13" depart="61.00" departLane="133000063_0" departPos="63.13" departSpeed="0.00" departDelay="23.86" arrival="194.00" arrivalLane="380585336_0" arrivalPos="371.64" arrivalSpeed="14.42" duration="133.00" routeLength="1163.80" waitingTime="1.00" waitingCount="1" stopTime="0.00" timeLoss="53.51" rerouteNo="0" devices="tripinfo_flow_route_93_duration_20250327_2140.13" vType="car" speedFactor="0.88" vaporized=""/>
    <tripinfo id="flow_route_92_duration_20250327_2140.22" depart="102.00" departLane="133000063_0" departPos="59.72" departSpeed="0.00" departDelay="47.00" arrival="194.00" arrivalLane="186409193_0" arrivalPos="22.99" arrivalSpeed="14.27" duration="92.00" routeLength="355.13" waitingTime="17.00" waitingCount="3" stopTime="0.00" timeLoss="66.16" rerouteNo="0" devices="tripinfo_flow_route_92_duration_20250327_2140.22" vType="car" speedFactor="0.88" vaporized=""/>