<?xml version="1.0" encoding="UTF-8"?>

<!-- generated on 2025-05-06 21:08:45 by Eclipse SUMO sumo Version 1.20.0
<configuration xmlns:xsi="http://www.w3.org/2001/XMLSchema-instance" xsi:noNamespaceSchemaLocation="http://sumo.dlr.de/xsd/sumoConfiguration.xsd">

    <input>
        <net-file value="osm.net.xml"/>
        <route-files value="xml/route_static_cluster_3839031475_3839031476_4110471700_4234582615_6.rou.xml"/>
    </input>

    <output>
        <tripinfo-output value="xml/tripinfo_static_cluster_3839031475_3839031476_4110471700_4234582615_6.xml"/>
    </output>

    <traci_server>
        <remote-port value="47831"/>
    </traci_server>

</configuration>
-->

<tripinfos xmlns:xsi="http://www.w3.org/2001/XMLSchema-instance" xsi:noNamespaceSchemaLocation="http://sumo.dlr.de/xsd/tripinfo_file.xsd">
    <tripinfo id="flow_route_85_duration_20250327_2100.0" depart="0.00" departLane="1091883842_0" departPos="162.60" departSpeed="0.00" departDelay="0.00" arrival="16.00" arrivalLane="133000063_0" arrivalPos="42.63" arrivalSpeed="9.42" duration="16.00" routeLength="74.77" waitingTime="0.00" waitingCount="0" stopTime="0.00" timeLoss="9.16" rerouteNo="0" devices="tripinfo_flow_route_85_duration_20250327_2100.0" vType="car" speedFactor="0.89" vaporized=""/>
    <tripinfo id="flow_route_80_duration_20250327_2100.1" depart="13.00" departLane="380344611#0_0" departPos="271.26" departSpeed="0.00" departDelay="1.00" arrival="21.00" arrivalLane="380593307#0_0" arrivalPos="5.63" arrivalSpeed="6.40" duration="8.00" routeLength="26.99" waitingTime="0.00" waitingCount="0" stopTime="0.00" timeLoss="5.61" rerouteNo="0" devices="tripinfo_flow_route_80_duration_20250327_2100.1" vType="car" speedFactor="0.93" vaporized=""/>
    <tripinfo id="flow_route_79_duration_20250327_2100.0" depart="0.00" departLane="380344611#0_0" departPos="128.21" departSpeed="0.00" departDelay="0.00" arrival="28.00" arrivalLane="423956929_1" arrivalPos="91.18" arrivalSpeed="16.56" duration="28.00" routeLength="278.79" waitingTime="0.00" waitingCount="0" stopTime="0.00" timeLoss="10.69" rerouteNo="0" devices="tripinfo_flow_route_79_duration_20250327_2100.0" vType="car" speedFactor="1.08" vaporized=""/>
    <tripinfo id="flow_route_80_duration_20250327_2100.0" depart="0.00" departLane="380344611#0_0" departPos="160.58" departSpeed="0.00" departDelay="0.00" arrival="33.00" arrivalLane="380593307#0_0" arrivalPos="102.42" arrivalSpeed="14.05" duration="33.00" routeLength="234.46" waitingTime="0.00" waitingCount="0" stopTime="0.00" timeLoss="17.31" rerouteNo="0" devices="tripinfo_flow_route_80_duration_20250327_2100.0" vType="car" speedFactor="1.03" vaporized=""/>
    <tripinfo id="flow_route_81_duration_20250327_2100.0" depart="0.00" departLane="380344611#0_0" departPos="75.01" departSpeed="0.00" departDelay="0.00" arrival="33.00" arrivalLane="133000063_2" arrivalPos="7.51" arrivalSpeed="6.81" duration="33.00" routeLength="248.37" waitingTime="0.00" waitingCount="0" stopTime="0.00" timeLoss="14.07" rerouteNo="0" devices="tripinfo_flow_route_81_duration_20250327_2100.0" vType="car" speedFactor="0.83" vaporized=""/>
    <tripinfo id="flow_route_90_duration_20250327_2100.0" depart="0.00" departLane="380585338#0_0" departPos="118.71" departSpeed="0.00" departDelay="0.00" arrival="33.00" arrivalLane="136617981_0" arrivalPos="211.18" arrivalSpeed="13.85" duration="33.00" routeLength="279.54" waitingTime="0.00" waitingCount="0" stopTime="0.00" timeLoss="11.68" rerouteNo="0" devices="tripinfo_flow_route_90_duration_20250327_2100.0" vType="car" speedFactor="0.86" vaporized=""/>
    <tripinfo id="flow_route_84_duration_20250327_2100.0" depart="0.00" departLane="1091883842_0" departPos="11.19" departSpeed="0.00" departDelay="0.00" arrival="36.00" arrivalLane="136617981_0" arrivalPos="210.65" arrivalSpeed="16.41" duration="36.00" routeLength="417.75" waitingTime="0.00" waitingCount="0" stopTime="0.00" timeLoss="10.58" rerouteNo="0" devices="tripinfo_flow_route_84_duration_20250327_2100.0" vType="car" speedFactor="1.05" vaporized=""/>
    <tripinfo id="flow_route_79_duration_20250327_2100.1" depart="20.00" departLane="380344611#0_0" departPos="189.46" departSpeed="0.00" departDelay="0.00" arrival="41.00" arrivalLane="423956929_0" arrivalPos="31.16" arrivalSpeed="15.67" duration="21.00" routeLength="157.52" waitingTime="0.00" waitingCount="0" stopTime="0.00" timeLoss="10.58" rerouteNo="0" devices="tripinfo_flow_route_79_duration_20250327_2100.1" vType="car" speedFactor="1.01" vaporized=""/>
    <tripinfo id="flow_route_81_duration_20250327_2100.1" depart="10.00" departLane="380344611#0_0" departPos="251.70" departSpeed="0.00" departDelay="0.00" arrival="44.00" arrivalLane="133000063_2" arrivalPos="161.74" arrivalSpeed="16.09" duration="34.00" routeLength="225.91" waitingTime="1.00" waitingCount="1" stopTime="0.00" timeLoss="19.71" rerouteNo="0" devices="tripinfo_flow_route_81_duration_20250327_2100.1" vType="car" speedFactor="1.05" vaporized=""/>
    <tripinfo id="flow_route_81_duration_20250327_2100.2" depart="20.00" departLane="380344611#0_0" departPos="202.91" departSpeed="0.00" departDelay="0.00" arrival="46.00" arrivalLane="133000063_2" arrivalPos="98.45" arrivalSpeed="15.97" duration="26.00" routeLength="211.41" waitingTime="0.00" waitingCount="0" stopTime="0.00" timeLoss="12.00" rerouteNo="0" devices="tripinfo_flow_route_81_duration_20250327_2100.2" vType="car" speedFactor="0.97" vaporized=""/>
    <tripinfo id="flow_route_89_duration_20250327_2100.4" depart="26.00" departLane="380585338#0_0" departPos="4.83" departSpeed="0.00" departDelay="2.00" arrival="54.00" arrivalLane="380593307#0_1" arrivalPos="29.24" arrivalSpeed="11.48" duration="28.00" routeLength="234.67" waitingTime="0.00" waitingCount="0" stopTime="0.00" timeLoss="11.95" rerouteNo="0" devices="tripinfo_flow_route_89_duration_20250327_2100.4" vType="car" speedFactor="0.92" vaporized=""/>
    <tripinfo id="flow_route_89_duration_20250327_2100.2" depart="12.00" departLane="380585338#0_0" departPos="27.63" departSpeed="0.00" departDelay="0.00" arrival="55.00" arrivalLane="380593307#0_2" arrivalPos="52.39" arrivalSpeed="11.67" duration="43.00" routeLength="235.03" waitingTime="6.00" waitingCount="1" stopTime="0.00" timeLoss="26.31" rerouteNo="0" devices="tripinfo_flow_route_89_duration_20250327_2100.2" vType="car" speedFactor="0.88" vaporized=""/>
    <tripinfo id="flow_route_76_duration_20250327_2100.1" depart="20.00" departLane="133342692#0_0" departPos="15.26" departSpeed="0.00" departDelay="0.00" arrival="55.00" arrivalLane="133000063_0" arrivalPos="38.43" arrivalSpeed="10.78" duration="35.00" routeLength="230.09" waitingTime="0.00" waitingCount="0" stopTime="0.00" timeLoss="20.55" rerouteNo="0" devices="tripinfo_flow_route_76_duration_20250327_2100.1" vType="car" speedFactor="1.02" vaporized=""/>
    <tripinfo id="flow_route_89_duration_20250327_2100.0" depart="0.00" departLane="380585338#0_0" departPos="55.91" departSpeed="0.00" departDelay="0.00" arrival="57.00" arrivalLane="380593307#0_1" arrivalPos="94.67" arrivalSpeed="14.62" duration="57.00" routeLength="249.03" waitingTime="19.00" waitingCount="1" stopTime="0.00" timeLoss="40.57" rerouteNo="0" devices="tripinfo_flow_route_89_duration_20250327_2100.0" vType="car" speedFactor="0.94" vaporized=""/>
    <tripinfo id="flow_route_89_duration_20250327_2100.1" depart="6.00" departLane="380585338#0_0" departPos="110.00" departSpeed="0.00" departDelay="0.00" arrival="57.00" arrivalLane="380593307#0_0" arrivalPos="89.06" arrivalSpeed="13.32" duration="51.00" routeLength="189.32" waitingTime="19.00" waitingCount="1" stopTime="0.00" timeLoss="39.51" rerouteNo="0" devices="tripinfo_flow_route_89_duration_20250327_2100.1" vType="car" speedFactor="1.03" vaporized=""/>
    <tripinfo id="flow_route_77_duration_20250327_2100.0" depart="0.00" departLane="133342692#0_0" departPos="115.39" departSpeed="0.00" departDelay="0.00" arrival="58.00" arrivalLane="423956929_0" arrivalPos="132.19" arrivalSpeed="14.86" duration="58.00" routeLength="199.33" waitingTime="27.00" waitingCount="1" stopTime="0.00" timeLoss="44.19" rerouteNo="0" devices="tripinfo_flow_route_77_duration_20250327_2100.0" vType="car" speedFactor="0.94" vaporized=""/>
    <tripinfo id="flow_route_89_duration_20250327_2100.3" depart="20.00" departLane="380585338#0_0" departPos="140.95" departSpeed="0.00" departDelay="2.00" arrival="58.00" arrivalLane="380593307#0_0" arrivalPos="71.41" arrivalSpeed="13.02" duration="38.00" routeLength="140.73" waitingTime="11.00" waitingCount="1" stopTime="0.00" timeLoss="29.21" rerouteNo="0" devices="tripinfo_flow_route_89_duration_20250327_2100.3" vType="car" speedFactor="1.16" vaporized=""/>
    <tripinfo id="flow_route_76_duration_20250327_2100.0" depart="0.00" departLane="133342692#0_0" departPos="1.03" departSpeed="0.00" departDelay="0.00" arrival="61.00" arrivalLane="133000063_0" arrivalPos="153.47" arrivalSpeed="16.59" duration="61.00" routeLength="359.35" waitingTime="17.00" waitingCount="1" stopTime="0.00" timeLoss="39.11" rerouteNo="0" devices="tripinfo_flow_route_76_duration_20250327_2100.0" vType="car" speedFactor="1.06" vaporized=""/>
    <tripinfo id="flow_route_90_duration_20250327_2100.2" depart="26.00" departLane="380585338#0_0" departPos="26.37" departSpeed="0.00" departDelay="6.00" arrival="62.00" arrivalLane="136617981_0" arrivalPos="68.41" arrivalSpeed="12.31" duration="36.00" routeLength="229.12" waitingTime="0.00" waitingCount="0" stopTime="0.00" timeLoss="19.29" rerouteNo="0" devices="tripinfo_flow_route_90_duration_20250327_2100.2" vType="car" speedFactor="0.89" vaporized=""/>
    <tripinfo id="flow_route_90_duration_20250327_2100.3" depart="32.00" departLane="380585338#0_0" departPos="125.35" departSpeed="0.00" departDelay="2.00" arrival="62.00" arrivalLane="136617981_0" arrivalPos="88.95" arrivalSpeed="13.85" duration="30.00" routeLength="150.67" waitingTime="0.00" waitingCount="0" stopTime="0.00" timeLoss="19.60" rerouteNo="0" devices="tripinfo_flow_route_90_duration_20250327_2100.3" vType="car" speedFactor="1.01" vaporized=""/>
    <tripinfo id="flow_route_89_duration_20250327_2100.6" depart="36.00" departLane="380585338#0_0" departPos="106.81" departSpeed="0.00" departDelay="0.00" arrival="63.00" arrivalLane="380593307#0_1" arrivalPos="117.83" arrivalSpeed="16.28" duration="27.00" routeLength="221.28" waitingTime="0.00" waitingCount="0" stopTime="0.00" timeLoss="13.32" rerouteNo="0" devices="tripinfo_flow_route_89_duration_20250327_2100.6" vType="car" speedFactor="1.02" vaporized=""/>
    <tripinfo id="flow_route_89_duration_20250327_2100.5" depart="31.00" departLane="380585338#0_0" departPos="8.13" departSpeed="0.00" departDelay="1.00" arrival="66.00" arrivalLane="380593307#0_2" arrivalPos="172.27" arrivalSpeed="16.41" duration="35.00" routeLength="374.40" waitingTime="0.00" waitingCount="0" stopTime="0.00" timeLoss="12.20" rerouteNo="0" devices="tripinfo_flow_route_89_duration_20250327_2100.5" vType="car" speedFactor="1.15" vaporized=""/>
    <tripinfo id="flow_route_80_duration_20250327_2100.3" depart="37.00" departLane="380344611#0_0" departPos="110.52" departSpeed="0.00" departDelay="1.00" arrival="66.00" arrivalLane="380593307#0_0" arrivalPos="36.87" arrivalSpeed="10.34" duration="29.00" routeLength="218.97" waitingTime="0.00" waitingCount="0" stopTime="0.00" timeLoss="14.76" rerouteNo="0" devices="tripinfo_flow_route_80_duration_20250327_2100.3" vType="car" speedFactor="0.99" vaporized=""/>
    <tripinfo id="flow_route_80_duration_20250327_2100.2" depart="24.00" departLane="380344611#0_0" departPos="51.99" departSpeed="0.00" departDelay="0.00" arrival="67.00" arrivalLane="380593307#0_0" arrivalPos="100.71" arrivalSpeed="13.17" duration="43.00" routeLength="341.33" waitingTime="0.00" waitingCount="0" stopTime="0.00" timeLoss="17.74" rerouteNo="0" devices="tripinfo_flow_route_80_duration_20250327_2100.2" vType="car" speedFactor="0.87" vaporized=""/>
    <tripinfo id="flow_route_77_duration_20250327_2100.1" depart="31.00" departLane="133342692#0_0" departPos="30.97" departSpeed="0.00" departDelay="1.00" arrival="67.00" arrivalLane="423956929_0" arrivalPos="172.19" arrivalSpeed="16.50" duration="36.00" routeLength="323.75" waitingTime="0.00" waitingCount="0" stopTime="0.00" timeLoss="15.55" rerouteNo="0" devices="tripinfo_flow_route_77_duration_20250327_2100.1" vType="car" speedFactor="1.13" vaporized=""/>
    <tripinfo id="flow_route_78_duration_20250327_2100.0" depart="0.00" departLane="133342692#0_0" departPos="79.92" departSpeed="0.00" departDelay="0.00" arrival="68.00" arrivalLane="136617981_2" arrivalPos="12.89" arrivalSpeed="6.18" duration="68.00" routeLength="138.43" waitingTime="35.00" waitingCount="2" stopTime="0.00" timeLoss="58.98" rerouteNo="0" devices="tripinfo_flow_route_78_duration_20250327_2100.0" vType="car" speedFactor="1.01" vaporized=""/>
    <tripinfo id="flow_route_90_duration_20250327_2100.1" depart="10.00" departLane="380585338#0_0" departPos="68.87" departSpeed="0.00" departDelay="0.00" arrival="68.00" arrivalLane="136617981_0" arrivalPos="233.63" arrivalSpeed="16.38" duration="58.00" routeLength="351.83" waitingTime="10.00" waitingCount="1" stopTime="0.00" timeLoss="36.01" rerouteNo="0" devices="tripinfo_flow_route_90_duration_20250327_2100.1" vType="car" speedFactor="1.12" vaporized=""/>
    <tripinfo id="flow_route_76_duration_20250327_2100.2" depart="40.00" departLane="133342692#0_0" departPos="4.09" departSpeed="0.00" departDelay="0.00" arrival="70.00" arrivalLane="133000063_0" arrivalPos="100.76" arrivalSpeed="16.32" duration="30.00" routeLength="303.59" waitingTime="0.00" waitingCount="0" stopTime="0.00" timeLoss="11.22" rerouteNo="0" devices="tripinfo_flow_route_76_duration_20250327_2100.2" vType="car" speedFactor="1.18" vaporized=""/>
    <tripinfo id="flow_route_78_duration_20250327_2100.1" depart="6.00" departLane="133342692#0_0" departPos="52.65" departSpeed="0.00" departDelay="0.55" arrival="71.00" arrivalLane="136617981_2" arrivalPos="13.09" arrivalSpeed="7.93" duration="65.00" routeLength="165.91" waitingTime="28.00" waitingCount="2" stopTime="0.00" timeLoss="54.05" rerouteNo="0" devices="tripinfo_flow_route_78_duration_20250327_2100.1" vType="car" speedFactor="1.09" vaporized=""/>
    <tripinfo id="flow_route_78_duration_20250327_2100.3" depart="17.00" departLane="133342692#0_0" departPos="21.50" departSpeed="0.00" departDelay="0.64" arrival="80.00" arrivalLane="136617981_2" arrivalPos="36.67" arrivalSpeed="10.72" duration="63.00" routeLength="220.63" waitingTime="20.00" waitingCount="3" stopTime="0.00" timeLoss="47.94" rerouteNo="0" devices="tripinfo_flow_route_78_duration_20250327_2100.3" vType="car" speedFactor="0.94" vaporized=""/>
    <tripinfo id="flow_route_80_duration_20250327_2100.4" depart="48.00" departLane="380344611#0_0" departPos="132.24" departSpeed="0.00" departDelay="0.00" arrival="83.00" arrivalLane="380593307#0_0" arrivalPos="121.44" arrivalSpeed="14.98" duration="35.00" routeLength="281.82" waitingTime="0.00" waitingCount="0" stopTime="0.00" timeLoss="17.16" rerouteNo="0" devices="tripinfo_flow_route_80_duration_20250327_2100.4" vType="car" speedFactor="1.04" vaporized=""/>
    <tripinfo id="flow_route_78_duration_20250327_2100.2" depart="11.00" departLane="133342692#0_0" departPos="40.59" departSpeed="0.00" departDelay="0.09" arrival="84.00" arrivalLane="136617981_2" arrivalPos="154.27" arrivalSpeed="16.26" duration="73.00" routeLength="319.14" waitingTime="22.00" waitingCount="2" stopTime="0.00" timeLoss="52.67" rerouteNo="0" devices="tripinfo_flow_route_78_duration_20250327_2100.2" vType="car" speedFactor="0.99" vaporized=""/>
    <tripinfo id="flow_route_78_duration_20250327_2100.5" depart="28.00" departLane="133342692#0_0" departPos="93.74" departSpeed="0.00" departDelay="0.73" arrival="85.00" arrivalLane="136617981_2" arrivalPos="79.03" arrivalSpeed="13.63" duration="57.00" routeLength="190.75" waitingTime="16.00" waitingCount="3" stopTime="0.00" timeLoss="44.08" rerouteNo="0" devices="tripinfo_flow_route_78_duration_20250327_2100.5" vType="car" speedFactor="0.95" vaporized=""/>
    <tripinfo id="flow_route_78_duration_20250327_2100.7" depart="39.00" departLane="133342692#0_0" departPos="141.54" departSpeed="0.00" departDelay="0.82" arrival="86.00" arrivalLane="136617981_2" arrivalPos="145.34" arrivalSpeed="16.15" duration="47.00" routeLength="209.27" waitingTime="12.00" waitingCount="2" stopTime="0.00" timeLoss="32.56" rerouteNo="0" devices="tripinfo_flow_route_78_duration_20250327_2100.7" vType="car" speedFactor="0.97" vaporized=""/>
    <tripinfo id="flow_route_78_duration_20250327_2100.6" depart="33.00" departLane="133342692#0_0" departPos="49.73" departSpeed="0.00" departDelay="0.28" arrival="92.00" arrivalLane="136617981_2" arrivalPos="99.72" arrivalSpeed="14.12" duration="59.00" routeLength="255.45" waitingTime="7.00" waitingCount="1" stopTime="0.00" timeLoss="43.01" rerouteNo="0" devices="tripinfo_flow_route_78_duration_20250327_2100.6" vType="car" speedFactor="1.17" vaporized=""/>
    <tripinfo id="flow_route_84_duration_20250327_2100.1" depart="16.00" departLane="1091883842_0" departPos="61.53" departSpeed="0.00" departDelay="1.00" arrival="98.00" arrivalLane="136617981_0" arrivalPos="8.45" arrivalSpeed="8.25" duration="82.00" routeLength="165.22" waitingTime="51.00" waitingCount="1" stopTime="0.00" timeLoss="70.97" rerouteNo="0" devices="tripinfo_flow_route_84_duration_20250327_2100.1" vType="car" speedFactor="0.94" vaporized=""/>
    <tripinfo id="flow_route_78_duration_20250327_2100.8" depart="45.00" departLane="133342692#0_0" departPos="70.48" departSpeed="0.00" departDelay="1.37" arrival="98.00" arrivalLane="136617981_2" arrivalPos="129.18" arrivalSpeed="16.13" duration="53.00" routeLength="264.16" waitingTime="7.00" waitingCount="1" stopTime="0.00" timeLoss="35.89" rerouteNo="0" devices="tripinfo_flow_route_78_duration_20250327_2100.8" vType="car" speedFactor="1.09" vaporized=""/>
    <tripinfo id="flow_route_84_duration_20250327_2100.2" depart="30.00" departLane="1091883842_0" departPos="105.32" departSpeed="0.00" departDelay="0.00" arrival="101.00" arrivalLane="136617981_1" arrivalPos="50.73" arrivalSpeed="11.06" duration="71.00" routeLength="163.69" waitingTime="42.00" waitingCount="1" stopTime="0.00" timeLoss="61.10" rerouteNo="0" devices="tripinfo_flow_route_84_duration_20250327_2100.2" vType="car" speedFactor="1.18" vaporized=""/>
    <tripinfo id="flow_route_78_duration_20250327_2100.4" depart="22.00" departLane="133342692#0_0" departPos="52.77" departSpeed="0.00" departDelay="0.18" arrival="103.00" arrivalLane="136617981_1" arrivalPos="265.01" arrivalSpeed="13.56" duration="81.00" routeLength="417.70" waitingTime="13.00" waitingCount="2" stopTime="0.00" timeLoss="49.01" rerouteNo="0" devices="tripinfo_flow_route_78_duration_20250327_2100.4" vType="car" speedFactor="0.83" vaporized=""/>
    <tripinfo id="flow_route_79_duration_20250327_2100.2" depart="40.00" departLane="380344611#0_0" departPos="85.85" departSpeed="0.00" departDelay="0.00" arrival="104.00" arrivalLane="423956929_0" arrivalPos="77.40" arrivalSpeed="12.93" duration="64.00" routeLength="307.37" waitingTime="22.00" waitingCount="1" stopTime="0.00" timeLoss="45.47" rerouteNo="0" devices="tripinfo_flow_route_79_duration_20250327_2100.2" vType="car" speedFactor="1.10" vaporized=""/>
    <tripinfo id="flow_route_81_duration_20250327_2100.3" depart="30.00" departLane="380344611#0_0" departPos="24.39" departSpeed="0.00" departDelay="0.00" arrival="106.00" arrivalLane="133000063_2" arrivalPos="11.54" arrivalSpeed="6.65" duration="76.00" routeLength="303.01" waitingTime="31.00" waitingCount="2" stopTime="0.00" timeLoss="55.58" rerouteNo="0" devices="tripinfo_flow_route_81_duration_20250327_2100.3" vType="car" speedFactor="0.93" vaporized=""/>
    <tripinfo id="flow_route_78_duration_20250327_2100.9" depart="50.00" departLane="133342692#0_0" departPos="21.31" departSpeed="0.00" departDelay="0.91" arrival="106.00" arrivalLane="136617981_2" arrivalPos="221.35" arrivalSpeed="16.27" duration="56.00" routeLength="405.50" waitingTime="2.00" waitingCount="1" stopTime="0.00" timeLoss="30.20" rerouteNo="0" devices="tripinfo_flow_route_78_duration_20250327_2100.9" vType="car" speedFactor="1.00" vaporized=""/>
    <tripinfo id="flow_route_81_duration_20250327_2100.5" depart="50.00" departLane="380344611#0_0" departPos="202.26" departSpeed="0.00" departDelay="0.00" arrival="112.00" arrivalLane="133000063_2" arrivalPos="48.44" arrivalSpeed="10.71" duration="62.00" routeLength="162.04" waitingTime="24.00" waitingCount="2" stopTime="0.00" timeLoss="50.29" rerouteNo="0" devices="tripinfo_flow_route_81_duration_20250327_2100.5" vType="car" speedFactor="0.90" vaporized=""/>
    <tripinfo id="flow_route_81_duration_20250327_2100.4" depart="40.00" departLane="380344611#0_0" departPos="29.70" departSpeed="0.00" departDelay="0.00" arrival="115.00" arrivalLane="133000063_2" arrivalPos="62.90" arrivalSpeed="12.16" duration="75.00" routeLength="349.07" waitingTime="23.00" waitingCount="2" stopTime="0.00" timeLoss="50.93" rerouteNo="0" devices="tripinfo_flow_route_81_duration_20250327_2100.4" vType="car" speedFactor="0.90" vaporized=""/>
    <tripinfo id="flow_route_84_duration_20250327_2100.3" depart="45.00" departLane="1091883842_0" departPos="63.67" departSpeed="0.00" departDelay="0.00" arrival="119.00" arrivalLane="136617981_0" arrivalPos="275.34" arrivalSpeed="16.50" duration="74.00" routeLength="429.95" waitingTime="24.00" waitingCount="1" stopTime="0.00" timeLoss="47.60" rerouteNo="0" devices="tripinfo_flow_route_84_duration_20250327_2100.3" vType="car" speedFactor="1.04" vaporized=""/>
    <tripinfo id="flow_route_89_duration_20250327_2100.8" depart="48.00" departLane="380585338#0_0" departPos="114.92" departSpeed="0.00" departDelay="0.00" arrival="139.00" arrivalLane="380593307#0_0" arrivalPos="17.63" arrivalSpeed="9.02" duration="91.00" routeLength="112.97" waitingTime="65.00" waitingCount="1" stopTime="0.00" timeLoss="83.90" rerouteNo="0" devices="tripinfo_flow_route_89_duration_20250327_2100.8" vType="car" speedFactor="1.09" vaporized=""/>
    <tripinfo id="flow_route_89_duration_20250327_2100.7" depart="45.00" departLane="380585338#0_0" departPos="51.46" departSpeed="0.00" departDelay="3.00" arrival="150.00" arrivalLane="380593307#0_1" arrivalPos="160.57" arrivalSpeed="15.93" duration="105.00" routeLength="319.39" waitingTime="62.00" waitingCount="1" stopTime="0.00" timeLoss="84.28" rerouteNo="0" devices="tripinfo_flow_route_89_duration_20250327_2100.7" vType="car" speedFactor="0.96" vaporized=""/>
    <tripinfo id="flow_route_89_duration_20250327_2100.9" depart="54.00" departLane="380585338#0_0" departPos="64.53" departSpeed="0.00" departDelay="0.00" arrival="150.00" arrivalLane="380593307#0_2" arrivalPos="153.12" arrivalSpeed="13.94" duration="96.00" routeLength="298.86" waitingTime="54.00" waitingCount="1" stopTime="0.00" timeLoss="74.61" rerouteNo="0" devices="tripinfo_flow_route_89_duration_20250327_2100.9" vType="car" speedFactor="0.85" vaporized=""/>
    <tripinfo id="flow_route_90_duration_20250327_2100.5" depart="50.00" departLane="380585338#0_0" departPos="24.51" departSpeed="0.00" departDelay="0.00" arrival="156.00" arrivalLane="136617981_0" arrivalPos="201.86" arrivalSpeed="14.49" duration="106.00" routeLength="364.41" waitingTime="56.00" waitingCount="1" stopTime="0.00" timeLoss="78.94" rerouteNo="0" devices="tripinfo_flow_route_90_duration_20250327_2100.5" vType="car" speedFactor="0.88" vaporized=""/>
    <tripinfo id="flow_route_78_duration_20250327_2100.10" depart="55.00" departLane="133342692#0_0" departPos="7.30" departSpeed="0.00" departDelay="0.46" arrival="156.00" arrivalLane="136617981_2" arrivalPos="136.05" arrivalSpeed="13.89" duration="101.00" routeLength="334.21" waitingTime="42.00" waitingCount="2" stopTime="0.00" timeLoss="75.90" rerouteNo="0" devices="tripinfo_flow_route_78_duration_20250327_2100.10" vType="car" speedFactor="0.85" vaporized=""/>
    <tripinfo id="flow_route_90_duration_20250327_2100.4" depart="42.00" departLane="380585338#0_0" departPos="85.55" departSpeed="0.00" departDelay="2.00" arrival="158.00" arrivalLane="136617981_0" arrivalPos="276.85" arrivalSpeed="16.12" duration="116.00" routeLength="378.37" waitingTime="64.00" waitingCount="1" stopTime="0.00" timeLoss="91.82" rerouteNo="0" devices="tripinfo_flow_route_90_duration_20250327_2100.4" vType="car" speedFactor="1.03" vaporized=""/>
</tripinfos>
