<?xml version="1.0" encoding="UTF-8"?>

<!-- generated on 2025-05-06 21:08:15 by Eclipse SUMO sumo Version 1.20.0
<configuration xmlns:xsi="http://www.w3.org/2001/XMLSchema-instance" xsi:noNamespaceSchemaLocation="http://sumo.dlr.de/xsd/sumoConfiguration.xsd">

    <input>
        <net-file value="osm.net.xml"/>
        <route-files value="xml/route_static_cluster_11644940323_11644940324_3828703845_3.rou.xml"/>
    </input>

    <output>
        <tripinfo-output value="xml/tripinfo_static_cluster_11644940323_11644940324_3828703845_3.xml"/>
    </output>

    <traci_server>
        <remote-port value="45361"/>
    </traci_server>

</configuration>
-->

<tripinfos xmlns:xsi="http://www.w3.org/2001/XMLSchema-instance" xsi:noNamespaceSchemaLocation="http://sumo.dlr.de/xsd/tripinfo_file.xsd">
    <tripinfo id="flow_route_3_duration_20250327_1940.0" depart="0.00" departLane="1318793173#0_0" departPos="80.53" departSpeed="0.00" departDelay="0.00" arrival="19.00" arrivalLane="291974733#0_1" arrivalPos="66.76" arrivalSpeed="13.99" duration="19.00" routeLength="123.20" waitingTime="0.00" waitingCount="0" stopTime="0.00" timeLoss="10.27" rerouteNo="0" devices="tripinfo_flow_route_3_duration_20250327_1940.0" vType="car" speedFactor="0.94" vaporized=""/>
    <tripinfo id="flow_route_2_duration_20250327_1940.0" depart="0.00" departLane="1318793173#0_0" departPos="58.93" departSpeed="0.00" departDelay="0.00" arrival="21.00" arrivalLane="189835257_0" arrivalPos="46.92" arrivalSpeed="16.11" duration="21.00" routeLength="167.93" waitingTime="0.00" waitingCount="0" stopTime="0.00" timeLoss="9.54" rerouteNo="0" devices="tripinfo_flow_route_2_duration_20250327_1940.0" vType="car" speedFactor="1.06" vaporized=""/>
    <tripinfo id="flow_route_16_duration_20250327_1940.0" depart="0.00" departLane="137406408#0_0" departPos="52.27" departSpeed="0.00" departDelay="0.00" arrival="21.00" arrivalLane="133126040#0_0" arrivalPos="80.39" arrivalSpeed="14.43" duration="21.00" routeLength="149.31" waitingTime="0.00" waitingCount="0" stopTime="0.00" timeLoss="11.31" rerouteNo="0" devices="tripinfo_flow_route_16_duration_20250327_1940.0" vType="car" speedFactor="1.05" vaporized=""/>
    <tripinfo id="flow_route_17_duration_20250327_1940.0" depart="0.00" departLane="137406408#0_0" departPos="24.41" departSpeed="0.00" departDelay="0.00" arrival="22.00" arrivalLane="1254771874#0_0" arrivalPos="63.27" arrivalSpeed="16.22" duration="22.00" routeLength="182.06" waitingTime="0.00" waitingCount="0" stopTime="0.00" timeLoss="9.94" rerouteNo="0" devices="tripinfo_flow_route_17_duration_20250327_1940.0" vType="car" speedFactor="0.89" vaporized=""/>
    <tripinfo id="flow_route_3_duration_20250327_1940.1" depart="12.00" departLane="1318793173#0_0" departPos="103.38" departSpeed="0.00" departDelay="0.00" arrival="23.00" arrivalLane="291974733#0_1" arrivalPos="14.91" arrivalSpeed="8.03" duration="11.00" routeLength="48.49" waitingTime="0.00" waitingCount="0" stopTime="0.00" timeLoss="7.83" rerouteNo="0" devices="tripinfo_flow_route_3_duration_20250327_1940.1" vType="car" speedFactor="0.93" vaporized=""/>
    <tripinfo id="flow_route_9_duration_20250327_1940.1" depart="7.00" departLane="1318793173#0_0" departPos="68.46" departSpeed="0.00" departDelay="1.55" arrival="24.00" arrivalLane="1254771874#0_1" arrivalPos="11.81" arrivalSpeed="11.05" duration="17.00" routeLength="101.82" waitingTime="0.00" waitingCount="0" stopTime="0.00" timeLoss="9.77" rerouteNo="0" devices="tripinfo_flow_route_9_duration_20250327_1940.1" vType="car" speedFactor="1.09" vaporized=""/>
    <tripinfo id="flow_route_2_duration_20250327_1940.2" depart="6.00" departLane="1318793173#0_0" departPos="55.44" departSpeed="0.00" departDelay="0.55" arrival="28.00" arrivalLane="189835257_0" arrivalPos="36.00" arrivalSpeed="13.50" duration="22.00" routeLength="160.50" waitingTime="0.00" waitingCount="0" stopTime="0.00" timeLoss="9.64" rerouteNo="0" devices="tripinfo_flow_route_2_duration_20250327_1940.2" vType="car" speedFactor="0.86" vaporized=""/>
    <tripinfo id="flow_route_9_duration_20250327_1940.2" depart="11.00" departLane="1318793173#0_0" departPos="82.62" departSpeed="0.00" departDelay="0.09" arrival="29.00" arrivalLane="1254771874#0_1" arrivalPos="8.29" arrivalSpeed="10.98" duration="18.00" routeLength="84.14" waitingTime="1.00" waitingCount="1" stopTime="0.00" timeLoss="11.43" rerouteNo="0" devices="tripinfo_flow_route_9_duration_20250327_1940.2" vType="car" speedFactor="0.99" vaporized=""/>
    <tripinfo id="flow_route_2_duration_20250327_1940.1" depart="3.00" departLane="1318793173#0_0" departPos="34.79" departSpeed="0.00" departDelay="0.27" arrival="30.00" arrivalLane="189835257_0" arrivalPos="46.11" arrivalSpeed="14.60" duration="27.00" routeLength="191.25" waitingTime="0.00" waitingCount="0" stopTime="0.00" timeLoss="13.93" rerouteNo="0" devices="tripinfo_flow_route_2_duration_20250327_1940.1" vType="car" speedFactor="0.94" vaporized=""/>
    <tripinfo id="flow_route_9_duration_20250327_1940.0" depart="0.00" departLane="1318793173#0_0" departPos="0.65" departSpeed="0.00" departDelay="0.00" arrival="32.00" arrivalLane="1254771874#0_1" arrivalPos="11.63" arrivalSpeed="11.07" duration="32.00" routeLength="169.44" waitingTime="1.00" waitingCount="1" stopTime="0.00" timeLoss="20.44" rerouteNo="0" devices="tripinfo_flow_route_9_duration_20250327_1940.0" vType="car" speedFactor="1.01" vaporized=""/>
    <tripinfo id="flow_route_2_duration_20250327_1940.3" depart="10.00" departLane="1318793173#0_0" departPos="42.86" departSpeed="0.00" departDelay="1.82" arrival="32.00" arrivalLane="189835257_0" arrivalPos="49.45" arrivalSpeed="16.07" duration="22.00" routeLength="186.53" waitingTime="0.00" waitingCount="0" stopTime="0.00" timeLoss="10.15" rerouteNo="0" devices="tripinfo_flow_route_2_duration_20250327_1940.3" vType="car" speedFactor="1.03" vaporized=""/>
    <tripinfo id="flow_route_2_duration_20250327_1940.4" depart="11.00" departLane="1318793173#0_0" departPos="32.61" departSpeed="0.00" departDelay="0.09" arrival="32.00" arrivalLane="189835257_0" arrivalPos="12.47" arrivalSpeed="14.84" duration="21.00" routeLength="159.79" waitingTime="0.00" waitingCount="0" stopTime="0.00" timeLoss="10.19" rerouteNo="0" devices="tripinfo_flow_route_2_duration_20250327_1940.4" vType="car" speedFactor="1.12" vaporized=""/>
    <tripinfo id="flow_route_2_duration_20250327_1940.6" depart="18.00" departLane="1318793173#0_0" departPos="28.54" departSpeed="0.00" departDelay="1.64" arrival="42.00" arrivalLane="189835257_0" arrivalPos="6.60" arrivalSpeed="12.43" duration="24.00" routeLength="158.00" waitingTime="0.00" waitingCount="0" stopTime="0.00" timeLoss="12.71" rerouteNo="0" devices="tripinfo_flow_route_2_duration_20250327_1940.6" vType="car" speedFactor="0.94" vaporized=""/>
    <tripinfo id="flow_route_2_duration_20250327_1940.8" depart="25.00" departLane="1318793173#0_0" departPos="103.20" departSpeed="0.00" departDelay="3.18" arrival="42.00" arrivalLane="189835257_0" arrivalPos="37.68" arrivalSpeed="13.37" duration="17.00" routeLength="114.42" waitingTime="0.00" waitingCount="0" stopTime="0.00" timeLoss="9.53" rerouteNo="0" devices="tripinfo_flow_route_2_duration_20250327_1940.8" vType="car" speedFactor="1.01" vaporized=""/>
    <tripinfo id="flow_route_13_duration_20250327_1940.0" depart="0.00" departLane="1252820503#0_0" departPos="99.64" departSpeed="0.00" departDelay="0.00" arrival="43.00" arrivalLane="291974733#0_0" arrivalPos="46.05" arrivalSpeed="8.49" duration="43.00" routeLength="103.57" waitingTime="18.00" waitingCount="1" stopTime="0.00" timeLoss="36.05" rerouteNo="0" devices="tripinfo_flow_route_13_duration_20250327_1940.0" vType="car" speedFactor="1.08" vaporized=""/>
    <tripinfo id="flow_route_2_duration_20250327_1940.5" depart="16.00" departLane="1318793173#0_0" departPos="13.98" departSpeed="0.00" departDelay="2.37" arrival="43.00" arrivalLane="189835257_0" arrivalPos="1.57" arrivalSpeed="11.90" duration="27.00" routeLength="167.53" waitingTime="0.00" waitingCount="0" stopTime="0.00" timeLoss="14.65" rerouteNo="0" devices="tripinfo_flow_route_2_duration_20250327_1940.5" vType="car" speedFactor="0.88" vaporized=""/>
    <tripinfo id="flow_route_15_duration_20250327_1940.0" depart="1.00" departLane="1252820503#0_0" departPos="8.92" departSpeed="0.00" departDelay="1.00" arrival="44.00" arrivalLane="133126040#0_1" arrivalPos="4.72" arrivalSpeed="7.97" duration="43.00" routeLength="174.98" waitingTime="10.00" waitingCount="1" stopTime="0.00" timeLoss="31.29" rerouteNo="0" devices="tripinfo_flow_route_15_duration_20250327_1940.0" vType="car" speedFactor="0.83" vaporized=""/>
    <tripinfo id="flow_route_14_duration_20250327_1940.2" depart="20.00" departLane="1252820503#0_0" departPos="13.18" departSpeed="0.00" departDelay="0.00" arrival="54.00" arrivalLane="1254771874#0_0" arrivalPos="61.70" arrivalSpeed="14.19" duration="34.00" routeLength="258.40" waitingTime="0.00" waitingCount="0" stopTime="0.00" timeLoss="17.63" rerouteNo="0" devices="tripinfo_flow_route_14_duration_20250327_1940.2" vType="car" speedFactor="1.02" vaporized=""/>
    <tripinfo id="flow_route_13_duration_20250327_1940.1" depart="30.00" departLane="1252820503#0_0" departPos="26.75" departSpeed="0.00" departDelay="0.00" arrival="54.00" arrivalLane="291974733#0_0" arrivalPos="29.41" arrivalSpeed="8.59" duration="24.00" routeLength="159.82" waitingTime="0.00" waitingCount="0" stopTime="0.00" timeLoss="12.89" rerouteNo="0" devices="tripinfo_flow_route_13_duration_20250327_1940.1" vType="car" speedFactor="1.13" vaporized=""/>
    <tripinfo id="flow_route_14_duration_20250327_1940.0" depart="0.00" departLane="1252820503#0_0" departPos="69.02" departSpeed="0.00" departDelay="0.00" arrival="55.00" arrivalLane="1254771874#0_0" arrivalPos="150.80" arrivalSpeed="16.12" duration="55.00" routeLength="291.67" waitingTime="15.00" waitingCount="1" stopTime="0.00" timeLoss="37.35" rerouteNo="0" devices="tripinfo_flow_route_14_duration_20250327_1940.0" vType="car" speedFactor="1.03" vaporized=""/>
    <tripinfo id="flow_route_2_duration_20250327_1940.11" depart="37.00" departLane="1318793173#0_0" departPos="105.57" departSpeed="0.00" departDelay="7.00" arrival="56.00" arrivalLane="189835257_0" arrivalPos="52.25" arrivalSpeed="13.20" duration="19.00" routeLength="126.63" waitingTime="0.00" waitingCount="0" stopTime="0.00" timeLoss="10.05" rerouteNo="0" devices="tripinfo_flow_route_2_duration_20250327_1940.11" vType="car" speedFactor="0.95" vaporized=""/>
    <tripinfo id="flow_route_2_duration_20250327_1940.13" depart="38.00" departLane="1318793173#0_0" departPos="94.62" departSpeed="0.00" departDelay="2.55" arrival="57.00" arrivalLane="189835257_0" arrivalPos="43.47" arrivalSpeed="12.88" duration="19.00" routeLength="128.79" waitingTime="0.00" waitingCount="0" stopTime="0.00" timeLoss="10.23" rerouteNo="0" devices="tripinfo_flow_route_2_duration_20250327_1940.13" vType="car" speedFactor="0.99" vaporized=""/>
    <tripinfo id="flow_route_2_duration_20250327_1940.10" depart="34.00" departLane="1318793173#0_0" departPos="66.48" departSpeed="0.00" departDelay="6.73" arrival="58.00" arrivalLane="189835257_0" arrivalPos="28.79" arrivalSpeed="12.96" duration="24.00" routeLength="142.26" waitingTime="0.00" waitingCount="0" stopTime="0.00" timeLoss="13.10" rerouteNo="0" devices="tripinfo_flow_route_2_duration_20250327_1940.10" vType="car" speedFactor="0.87" vaporized=""/>
    <tripinfo id="flow_route_14_duration_20250327_1940.3" depart="30.00" departLane="1252820503#0_0" departPos="6.94" departSpeed="0.00" departDelay="0.00" arrival="59.00" arrivalLane="1254771874#0_1" arrivalPos="86.66" arrivalSpeed="16.27" duration="29.00" routeLength="289.60" waitingTime="0.00" waitingCount="0" stopTime="0.00" timeLoss="10.69" rerouteNo="0" devices="tripinfo_flow_route_14_duration_20250327_1940.3" vType="car" speedFactor="0.93" vaporized=""/>
    <tripinfo id="flow_route_2_duration_20250327_1940.9" depart="27.00" departLane="1318793173#0_0" departPos="30.13" departSpeed="0.00" departDelay="2.46" arrival="60.00" arrivalLane="189835257_0" arrivalPos="30.55" arrivalSpeed="13.23" duration="33.00" routeLength="180.35" waitingTime="0.00" waitingCount="0" stopTime="0.00" timeLoss="18.89" rerouteNo="0" devices="tripinfo_flow_route_2_duration_20250327_1940.9" vType="car" speedFactor="0.83" vaporized=""/>
    <tripinfo id="flow_route_14_duration_20250327_1940.1" depart="10.00" departLane="1252820503#0_0" departPos="80.59" departSpeed="0.00" departDelay="0.00" arrival="62.00" arrivalLane="1254771874#0_0" arrivalPos="226.89" arrivalSpeed="16.25" duration="52.00" routeLength="356.19" waitingTime="8.00" waitingCount="1" stopTime="0.00" timeLoss="30.43" rerouteNo="0" devices="tripinfo_flow_route_14_duration_20250327_1940.1" vType="car" speedFactor="1.05" vaporized=""/>
    <tripinfo id="flow_route_2_duration_20250327_1940.7" depart="25.00" departLane="1318793173#0_0" departPos="18.20" departSpeed="0.00" departDelay="5.91" arrival="62.00" arrivalLane="189835257_0" arrivalPos="30.10" arrivalSpeed="14.05" duration="37.00" routeLength="191.84" waitingTime="0.00" waitingCount="0" stopTime="0.00" timeLoss="24.41" rerouteNo="0" devices="tripinfo_flow_route_2_duration_20250327_1940.7" vType="car" speedFactor="1.16" vaporized=""/>
    <tripinfo id="flow_route_2_duration_20250327_1940.12" depart="37.00" departLane="1318793173#0_0" departPos="2.58" departSpeed="0.00" departDelay="4.28" arrival="65.00" arrivalLane="189835257_0" arrivalPos="11.18" arrivalSpeed="14.30" duration="28.00" routeLength="188.55" waitingTime="0.00" waitingCount="0" stopTime="0.00" timeLoss="15.13" rerouteNo="0" devices="tripinfo_flow_route_2_duration_20250327_1940.12" vType="car" speedFactor="1.01" vaporized=""/>
    <tripinfo id="flow_route_2_duration_20250327_1940.14" depart="41.00" departLane="1318793173#0_0" departPos="32.02" departSpeed="0.00" departDelay="2.82" arrival="65.00" arrivalLane="189835257_0" arrivalPos="48.71" arrivalSpeed="15.76" duration="24.00" routeLength="196.62" waitingTime="0.00" waitingCount="0" stopTime="0.00" timeLoss="11.24" rerouteNo="0" devices="tripinfo_flow_route_2_duration_20250327_1940.14" vType="car" speedFactor="0.97" vaporized=""/>
    <tripinfo id="flow_route_16_duration_20250327_1940.1" depart="30.00" departLane="137406408#0_0" departPos="7.38" departSpeed="0.00" departDelay="0.00" arrival="69.00" arrivalLane="133126040#0_0" arrivalPos="9.30" arrivalSpeed="7.30" duration="39.00" routeLength="123.11" waitingTime="12.00" waitingCount="1" stopTime="0.00" timeLoss="31.58" rerouteNo="0" devices="tripinfo_flow_route_16_duration_20250327_1940.1" vType="car" speedFactor="1.18" vaporized=""/>
    <tripinfo id="flow_route_3_duration_20250327_1940.2" depart="27.00" departLane="1318793173#0_0" departPos="3.01" departSpeed="0.00" departDelay="3.00" arrival="71.00" arrivalLane="291974733#0_1" arrivalPos="28.84" arrivalSpeed="9.46" duration="44.00" routeLength="162.79" waitingTime="13.00" waitingCount="1" stopTime="0.00" timeLoss="32.82" rerouteNo="0" devices="tripinfo_flow_route_3_duration_20250327_1940.2" vType="car" speedFactor="0.89" vaporized=""/>
    <tripinfo id="flow_route_2_duration_20250327_1940.19" depart="57.00" departLane="1318793173#0_0" departPos="95.88" departSpeed="0.00" departDelay="5.19" arrival="75.00" arrivalLane="189835257_0" arrivalPos="31.02" arrivalSpeed="12.57" duration="18.00" routeLength="115.08" waitingTime="0.00" waitingCount="0" stopTime="0.00" timeLoss="9.55" rerouteNo="0" devices="tripinfo_flow_route_2_duration_20250327_1940.19" vType="car" speedFactor="0.90" vaporized=""/>
    <tripinfo id="flow_route_3_duration_20250327_1940.3" depart="39.00" departLane="1318793173#0_0" departPos="45.94" departSpeed="0.00" departDelay="3.00" arrival="76.00" arrivalLane="291974733#0_1" arrivalPos="54.82" arrivalSpeed="11.30" duration="37.00" routeLength="145.84" waitingTime="9.00" waitingCount="1" stopTime="0.00" timeLoss="28.02" rerouteNo="0" devices="tripinfo_flow_route_3_duration_20250327_1940.3" vType="car" speedFactor="1.02" vaporized=""/>
    <tripinfo id="flow_route_3_duration_20250327_1940.4" depart="53.00" departLane="1318793173#0_0" departPos="61.96" departSpeed="0.00" departDelay="5.00" arrival="76.00" arrivalLane="291974733#0_1" arrivalPos="34.82" arrivalSpeed="9.76" duration="23.00" routeLength="109.82" waitingTime="0.00" waitingCount="0" stopTime="0.00" timeLoss="16.32" rerouteNo="0" devices="tripinfo_flow_route_3_duration_20250327_1940.4" vType="car" speedFactor="1.04" vaporized=""/>
    <tripinfo id="flow_route_17_duration_20250327_1940.1" depart="30.00" departLane="137406408#0_0" departPos="66.63" departSpeed="0.00" departDelay="0.00" arrival="82.00" arrivalLane="1254771874#0_0" arrivalPos="144.97" arrivalSpeed="16.26" duration="52.00" routeLength="221.56" waitingTime="21.00" waitingCount="1" stopTime="0.00" timeLoss="38.31" rerouteNo="0" devices="tripinfo_flow_route_17_duration_20250327_1940.1" vType="car" speedFactor="1.15" vaporized=""/>
    <tripinfo id="flow_route_2_duration_20250327_1940.17" depart="52.00" departLane="1318793173#0_0" departPos="41.01" departSpeed="0.00" departDelay="5.64" arrival="83.00" arrivalLane="189835257_0" arrivalPos="7.43" arrivalSpeed="12.98" duration="31.00" routeLength="146.37" waitingTime="0.00" waitingCount="0" stopTime="0.00" timeLoss="21.52" rerouteNo="0" devices="tripinfo_flow_route_2_duration_20250327_1940.17" vType="car" speedFactor="1.09" vaporized=""/>
    <tripinfo id="flow_route_2_duration_20250327_1940.18" depart="56.00" departLane="1318793173#0_0" departPos="59.36" departSpeed="0.00" departDelay="6.91" arrival="83.00" arrivalLane="189835257_0" arrivalPos="35.56" arrivalSpeed="13.75" duration="27.00" routeLength="156.15" waitingTime="0.00" waitingCount="0" stopTime="0.00" timeLoss="16.98" rerouteNo="0" devices="tripinfo_flow_route_2_duration_20250327_1940.18" vType="car" speedFactor="1.04" vaporized=""/>
    <tripinfo id="flow_route_9_duration_20250327_1940.3" depart="22.00" departLane="1318793173#0_0" departPos="74.74" departSpeed="0.00" departDelay="5.64" arrival="88.00" arrivalLane="1254771874#0_1" arrivalPos="105.15" arrivalSpeed="15.62" duration="66.00" routeLength="188.88" waitingTime="32.00" waitingCount="2" stopTime="0.00" timeLoss="52.45" rerouteNo="0" devices="tripinfo_flow_route_9_duration_20250327_1940.3" vType="car" speedFactor="0.94" vaporized=""/>
    <tripinfo id="flow_route_2_duration_20250327_1940.16" depart="50.00" departLane="1318793173#0_0" departPos="16.60" departSpeed="0.00" departDelay="6.37" arrival="88.00" arrivalLane="189835257_0" arrivalPos="41.13" arrivalSpeed="15.64" duration="38.00" routeLength="204.47" waitingTime="0.00" waitingCount="0" stopTime="0.00" timeLoss="24.54" rerouteNo="0" devices="tripinfo_flow_route_2_duration_20250327_1940.16" vType="car" speedFactor="1.03" vaporized=""/>
    <tripinfo id="flow_route_2_duration_20250327_1940.15" depart="49.00" departLane="1318793173#0_0" departPos="4.60" departSpeed="0.00" departDelay="8.10" arrival="91.00" arrivalLane="189835257_0" arrivalPos="51.16" arrivalSpeed="14.76" duration="42.00" routeLength="226.50" waitingTime="0.00" waitingCount="0" stopTime="0.00" timeLoss="25.70" rerouteNo="0" devices="tripinfo_flow_route_2_duration_20250327_1940.15" vType="car" speedFactor="0.90" vaporized=""/>
    <tripinfo id="flow_route_2_duration_20250327_1940.20" depart="58.00" departLane="1318793173#0_0" departPos="18.10" departSpeed="0.00" departDelay="3.46" arrival="92.00" arrivalLane="189835257_0" arrivalPos="33.76" arrivalSpeed="14.51" duration="34.00" routeLength="195.60" waitingTime="0.00" waitingCount="0" stopTime="0.00" timeLoss="19.25" rerouteNo="0" devices="tripinfo_flow_route_2_duration_20250327_1940.20" vType="car" speedFactor="0.88" vaporized=""/>
    <tripinfo id="flow_route_9_duration_20250327_1940.4" depart="26.00" departLane="1318793173#0_0" departPos="69.34" departSpeed="0.00" departDelay="4.18" arrival="93.00" arrivalLane="1254771874#0_0" arrivalPos="152.41" arrivalSpeed="16.35" duration="67.00" routeLength="241.54" waitingTime="29.00" waitingCount="2" stopTime="0.00" timeLoss="50.64" rerouteNo="0" devices="tripinfo_flow_route_9_duration_20250327_1940.4" vType="car" speedFactor="0.97" vaporized=""/>
    <tripinfo id="flow_route_9_duration_20250327_1940.7" depart="43.00" departLane="1318793173#0_0" departPos="50.40" departSpeed="0.00" departDelay="4.82" arrival="95.00" arrivalLane="1254771874#0_1" arrivalPos="125.94" arrivalSpeed="16.42" duration="52.00" routeLength="234.01" waitingTime="11.00" waitingCount="2" stopTime="0.00" timeLoss="36.46" rerouteNo="0" devices="tripinfo_flow_route_9_duration_20250327_1940.7" vType="car" speedFactor="1.18" vaporized=""/>
    <tripinfo id="flow_route_2_duration_20250327_1940.21" depart="61.00" departLane="1318793173#0_0" departPos="0.09" departSpeed="0.00" departDelay="3.73" arrival="95.00" arrivalLane="189835257_0" arrivalPos="47.57" arrivalSpeed="14.21" duration="34.00" routeLength="227.42" waitingTime="0.00" waitingCount="0" stopTime="0.00" timeLoss="16.49" rerouteNo="0" devices="tripinfo_flow_route_2_duration_20250327_1940.21" vType="car" speedFactor="0.85" vaporized=""/>
    <tripinfo id="flow_route_9_duration_20250327_1940.5" depart="37.00" departLane="1318793173#0_0" departPos="39.46" departSpeed="0.00" departDelay="9.73" arrival="100.00" arrivalLane="1254771874#0_0" arrivalPos="237.24" arrivalSpeed="16.19" duration="63.00" routeLength="356.25" waitingTime="15.00" waitingCount="2" stopTime="0.00" timeLoss="38.87" rerouteNo="0" devices="tripinfo_flow_route_9_duration_20250327_1940.5" vType="car" speedFactor="0.92" vaporized=""/>
    <tripinfo id="flow_route_9_duration_20250327_1940.8" depart="52.00" departLane="1318793173#0_0" departPos="29.97" departSpeed="0.00" departDelay="8.37" arrival="101.00" arrivalLane="1254771874#0_1" arrivalPos="71.88" arrivalSpeed="13.76" duration="49.00" routeLength="200.39" waitingTime="4.00" waitingCount="2" stopTime="0.00" timeLoss="35.14" rerouteNo="0" devices="tripinfo_flow_route_9_duration_20250327_1940.8" vType="car" speedFactor="0.96" vaporized=""/>
    <tripinfo id="flow_route_9_duration_20250327_1940.6" depart="38.00" departLane="1318793173#0_0" departPos="11.32" departSpeed="0.00" departDelay="5.28" arrival="104.00" arrivalLane="1254771874#0_1" arrivalPos="173.48" arrivalSpeed="16.54" duration="66.00" routeLength="320.64" waitingTime="10.00" waitingCount="3" stopTime="0.00" timeLoss="45.24" rerouteNo="0" devices="tripinfo_flow_route_9_duration_20250327_1940.6" vType="car" speedFactor="1.17" vaporized=""/>
    <tripinfo id="flow_route_9_duration_20250327_1940.10" depart="59.00" departLane="1318793173#0_0" departPos="86.24" departSpeed="0.00" departDelay="4.46" arrival="104.00" arrivalLane="1254771874#0_1" arrivalPos="209.89" arrivalSpeed="16.29" duration="45.00" routeLength="282.12" waitingTime="12.00" waitingCount="2" stopTime="0.00" timeLoss="25.91" rerouteNo="0" devices="tripinfo_flow_route_9_duration_20250327_1940.10" vType="car" speedFactor="0.85" vaporized=""/>
    <tripinfo id="flow_route_14_duration_20250327_1940.4" depart="42.00" departLane="1252820503#0_0" departPos="15.03" departSpeed="0.00" departDelay="2.00" arrival="113.00" arrivalLane="1254771874#0_1" arrivalPos="116.51" arrivalSpeed="16.31" duration="71.00" routeLength="311.35" waitingTime="27.00" waitingCount="1" stopTime="0.00" timeLoss="51.40" rerouteNo="0" devices="tripinfo_flow_route_14_duration_20250327_1940.4" vType="car" speedFactor="1.10" vaporized=""/>
    <tripinfo id="flow_route_14_duration_20250327_1940.5" depart="52.00" departLane="1252820503#0_0" departPos="87.75" departSpeed="0.00" departDelay="2.00" arrival="120.00" arrivalLane="1254771874#0_0" arrivalPos="216.12" arrivalSpeed="16.36" duration="68.00" routeLength="338.26" waitingTime="25.00" waitingCount="1" stopTime="0.00" timeLoss="46.75" rerouteNo="0" devices="tripinfo_flow_route_14_duration_20250327_1940.5" vType="car" speedFactor="1.00" vaporized=""/>
    <tripinfo id="flow_route_9_duration_20250327_1940.9" depart="56.00" departLane="1318793173#0_0" departPos="1.58" departSpeed="0.00" departDelay="6.91" arrival="149.00" arrivalLane="1254771874#0_0" arrivalPos="250.05" arrivalSpeed="16.14" duration="93.00" routeLength="406.94" waitingTime="29.00" waitingCount="2" stopTime="0.00" timeLoss="66.68" rerouteNo="0" devices="tripinfo_flow_route_9_duration_20250327_1940.9" vType="car" speedFactor="1.09" vaporized=""/>
</tripinfos>
