<?xml version="1.0" encoding="UTF-8"?>

<!-- generated on 2025-05-06 21:08:22 by Eclipse SUMO sumo Version 1.20.0
<configuration xmlns:xsi="http://www.w3.org/2001/XMLSchema-instance" xsi:noNamespaceSchemaLocation="http://sumo.dlr.de/xsd/sumoConfiguration.xsd">

    <input>
        <net-file value="osm.net.xml"/>
        <route-files value="xml/route_rl_cluster_11644940323_11644940324_3828703845_4.rou.xml"/>
    </input>

    <output>
        <tripinfo-output value="xml/tripinfo_rl_cluster_11644940323_11644940324_3828703845_4.xml"/>
    </output>

    <traci_server>
        <remote-port value="38675"/>
    </traci_server>

</configuration>
-->

<tripinfos xmlns:xsi="http://www.w3.org/2001/XMLSchema-instance" xsi:noNamespaceSchemaLocation="http://sumo.dlr.de/xsd/tripinfo_file.xsd">
    <tripinfo id="flow_route_3_duration_20250327_1920.0" depart="0.00" departLane="1318793173#0_0" departPos="80.53" departSpeed="0.00" departDelay="0.00" arrival="19.00" arrivalLane="291974733#0_1" arrivalPos="66.76" arrivalSpeed="13.43" duration="19.00" routeLength="123.20" waitingTime="0.00" waitingCount="0" stopTime="0.00" timeLoss="10.43" rerouteNo="0" devices="tripinfo_flow_route_3_duration_20250327_1920.0" vType="car" speedFactor="0.94" vaporized=""/>
    <tripinfo id="flow_route_2_duration_20250327_1920.2" depart="1.00" departLane="1318793173#0_0" departPos="104.24" departSpeed="0.00" departDelay="0.91" arrival="19.00" arrivalLane="189835257_0" arrivalPos="46.11" arrivalSpeed="13.35" duration="18.00" routeLength="121.81" waitingTime="0.00" waitingCount="0" stopTime="0.00" timeLoss="8.61" rerouteNo="0" devices="tripinfo_flow_route_2_duration_20250327_1920.2" vType="car" speedFactor="0.86" vaporized=""/>
    <tripinfo id="flow_route_16_duration_20250327_1920.0" depart="0.00" departLane="137406408#0_0" departPos="52.27" departSpeed="0.00" departDelay="0.00" arrival="21.00" arrivalLane="133126040#0_0" arrivalPos="80.39" arrivalSpeed="14.99" duration="21.00" routeLength="149.31" waitingTime="0.00" waitingCount="0" stopTime="0.00" timeLoss="11.38" rerouteNo="0" devices="tripinfo_flow_route_16_duration_20250327_1920.0" vType="car" speedFactor="1.05" vaporized=""/>
    <tripinfo id="flow_route_16_duration_20250327_1920.1" depart="3.00" departLane="137406408#0_0" departPos="42.07" departSpeed="0.00" departDelay="0.86" arrival="22.00" arrivalLane="133126040#0_1" arrivalPos="53.29" arrivalSpeed="14.87" duration="19.00" routeLength="132.41" waitingTime="0.00" waitingCount="0" stopTime="0.00" timeLoss="9.97" rerouteNo="0" devices="tripinfo_flow_route_16_duration_20250327_1920.1" vType="car" speedFactor="0.97" vaporized=""/>
    <tripinfo id="flow_route_2_duration_20250327_1920.6" depart="6.00" departLane="1318793173#0_0" departPos="101.66" departSpeed="0.00" departDelay="5.72" arrival="23.00" arrivalLane="189835257_0" arrivalPos="27.01" arrivalSpeed="12.33" duration="17.00" routeLength="105.29" waitingTime="0.00" waitingCount="0" stopTime="0.00" timeLoss="10.17" rerouteNo="0" devices="tripinfo_flow_route_2_duration_20250327_1920.6" vType="car" speedFactor="1.12" vaporized=""/>
    <tripinfo id="flow_route_2_duration_20250327_1920.1" depart="1.00" departLane="1318793173#0_0" departPos="44.45" departSpeed="0.00" departDelay="0.95" arrival="26.00" arrivalLane="189835257_0" arrivalPos="3.17" arrivalSpeed="12.15" duration="25.00" routeLength="138.66" waitingTime="0.00" waitingCount="0" stopTime="0.00" timeLoss="15.51" rerouteNo="0" devices="tripinfo_flow_route_2_duration_20250327_1920.1" vType="car" speedFactor="0.94" vaporized=""/>
    <tripinfo id="flow_route_2_duration_20250327_1920.4" depart="5.00" departLane="1318793173#0_0" departPos="88.55" departSpeed="0.00" departDelay="4.81" arrival="26.00" arrivalLane="189835257_0" arrivalPos="36.00" arrivalSpeed="13.90" duration="21.00" routeLength="127.39" waitingTime="0.00" waitingCount="0" stopTime="0.00" timeLoss="12.23" rerouteNo="0" devices="tripinfo_flow_route_2_duration_20250327_1920.4" vType="car" speedFactor="1.03" vaporized=""/>
    <tripinfo id="flow_route_2_duration_20250327_1920.0" depart="0.00" departLane="1318793173#0_0" departPos="58.93" departSpeed="0.00" departDelay="0.00" arrival="28.00" arrivalLane="189835257_0" arrivalPos="46.92" arrivalSpeed="14.33" duration="28.00" routeLength="167.93" waitingTime="0.00" waitingCount="0" stopTime="0.00" timeLoss="16.91" rerouteNo="0" devices="tripinfo_flow_route_2_duration_20250327_1920.0" vType="car" speedFactor="1.06" vaporized=""/>
    <tripinfo id="flow_route_17_duration_20250327_1920.0" depart="0.00" departLane="137406408#0_0" departPos="24.41" departSpeed="0.00" departDelay="0.00" arrival="30.00" arrivalLane="1254771874#0_0" arrivalPos="63.27" arrivalSpeed="13.10" duration="30.00" routeLength="182.06" waitingTime="0.00" waitingCount="0" stopTime="0.00" timeLoss="17.90" rerouteNo="0" devices="tripinfo_flow_route_17_duration_20250327_1920.0" vType="car" speedFactor="0.89" vaporized=""/>
    <tripinfo id="flow_route_2_duration_20250327_1920.3" depart="1.00" departLane="1318793173#0_0" departPos="28.54" departSpeed="0.00" departDelay="0.86" arrival="30.00" arrivalLane="189835257_0" arrivalPos="16.95" arrivalSpeed="12.83" duration="29.00" routeLength="168.36" waitingTime="0.00" waitingCount="0" stopTime="0.00" timeLoss="18.33" rerouteNo="0" devices="tripinfo_flow_route_2_duration_20250327_1920.3" vType="car" speedFactor="1.09" vaporized=""/>
    <tripinfo id="flow_route_16_duration_20250327_1920.2" depart="7.00" departLane="137406408#0_0" departPos="21.32" departSpeed="0.00" departDelay="2.72" arrival="30.00" arrivalLane="133126040#0_1" arrivalPos="92.08" arrivalSpeed="16.44" duration="23.00" routeLength="191.95" waitingTime="0.00" waitingCount="0" stopTime="0.00" timeLoss="11.05" rerouteNo="0" devices="tripinfo_flow_route_16_duration_20250327_1920.2" vType="car" speedFactor="1.00" vaporized=""/>
    <tripinfo id="flow_route_16_duration_20250327_1920.3" depart="11.00" departLane="137406408#0_0" departPos="86.33" departSpeed="0.00" departDelay="4.57" arrival="30.00" arrivalLane="133126040#0_0" arrivalPos="97.87" arrivalSpeed="13.70" duration="19.00" routeLength="132.73" waitingTime="0.00" waitingCount="0" stopTime="0.00" timeLoss="9.53" rerouteNo="0" devices="tripinfo_flow_route_16_duration_20250327_1920.3" vType="car" speedFactor="0.90" vaporized=""/>
    <tripinfo id="flow_route_2_duration_20250327_1920.5" depart="6.00" departLane="1318793173#0_0" departPos="25.77" departSpeed="0.00" departDelay="5.77" arrival="33.00" arrivalLane="189835257_0" arrivalPos="2.43" arrivalSpeed="13.52" duration="27.00" routeLength="156.61" waitingTime="0.00" waitingCount="0" stopTime="0.00" timeLoss="16.55" rerouteNo="0" devices="tripinfo_flow_route_2_duration_20250327_1920.5" vType="car" speedFactor="1.05" vaporized=""/>
    <tripinfo id="flow_route_2_duration_20250327_1920.8" depart="12.00" departLane="1318793173#0_0" departPos="57.13" departSpeed="0.00" departDelay="11.62" arrival="33.00" arrivalLane="189835257_0" arrivalPos="33.36" arrivalSpeed="14.05" duration="21.00" routeLength="156.17" waitingTime="0.00" waitingCount="0" stopTime="0.00" timeLoss="10.33" rerouteNo="0" devices="tripinfo_flow_route_2_duration_20250327_1920.8" vType="car" speedFactor="0.93" vaporized=""/>
    <tripinfo id="flow_route_2_duration_20250327_1920.7" depart="11.00" departLane="1318793173#0_0" departPos="29.00" departSpeed="0.00" departDelay="10.67" arrival="36.00" arrivalLane="189835257_0" arrivalPos="16.17" arrivalSpeed="14.58" duration="25.00" routeLength="167.11" waitingTime="1.00" waitingCount="1" stopTime="0.00" timeLoss="13.47" rerouteNo="0" devices="tripinfo_flow_route_2_duration_20250327_1920.7" vType="car" speedFactor="0.99" vaporized=""/>
    <tripinfo id="flow_route_16_duration_20250327_1920.6" depart="16.00" departLane="137406408#0_0" departPos="53.45" departSpeed="0.00" departDelay="3.15" arrival="39.00" arrivalLane="133126040#0_0" arrivalPos="100.95" arrivalSpeed="15.81" duration="23.00" routeLength="168.70" waitingTime="0.00" waitingCount="0" stopTime="0.00" timeLoss="11.98" rerouteNo="0" devices="tripinfo_flow_route_16_duration_20250327_1920.6" vType="car" speedFactor="1.03" vaporized=""/>
    <tripinfo id="flow_route_17_duration_20250327_1920.1" depart="16.00" departLane="137406408#0_0" departPos="65.53" departSpeed="0.00" departDelay="8.50" arrival="40.00" arrivalLane="1254771874#0_0" arrivalPos="122.44" arrivalSpeed="16.34" duration="24.00" routeLength="200.12" waitingTime="0.00" waitingCount="0" stopTime="0.00" timeLoss="11.20" rerouteNo="0" devices="tripinfo_flow_route_17_duration_20250327_1920.1" vType="car" speedFactor="1.07" vaporized=""/>
    <tripinfo id="flow_route_16_duration_20250327_1920.5" depart="16.00" departLane="137406408#0_0" departPos="13.06" departSpeed="0.00" departDelay="5.29" arrival="41.00" arrivalLane="133126040#0_1" arrivalPos="92.39" arrivalSpeed="16.42" duration="25.00" routeLength="200.52" waitingTime="0.00" waitingCount="0" stopTime="0.00" timeLoss="12.49" rerouteNo="0" devices="tripinfo_flow_route_16_duration_20250327_1920.5" vType="car" speedFactor="1.16" vaporized=""/>
    <tripinfo id="flow_route_16_duration_20250327_1920.7" depart="16.00" departLane="137406408#0_0" departPos="1.13" departSpeed="0.00" departDelay="1.01" arrival="41.00" arrivalLane="133126040#0_0" arrivalPos="66.83" arrivalSpeed="15.16" duration="25.00" routeLength="186.89" waitingTime="0.00" waitingCount="0" stopTime="0.00" timeLoss="13.22" rerouteNo="0" devices="tripinfo_flow_route_16_duration_20250327_1920.7" vType="car" speedFactor="1.01" vaporized=""/>
    <tripinfo id="flow_route_16_duration_20250327_1920.4" depart="16.00" departLane="137406408#0_0" departPos="21.98" departSpeed="0.00" departDelay="7.43" arrival="42.00" arrivalLane="133126040#0_0" arrivalPos="100.14" arrivalSpeed="16.49" duration="26.00" routeLength="199.35" waitingTime="0.00" waitingCount="0" stopTime="0.00" timeLoss="13.02" rerouteNo="0" devices="tripinfo_flow_route_16_duration_20250327_1920.4" vType="car" speedFactor="1.01" vaporized=""/>
    <tripinfo id="flow_route_2_duration_20250327_1920.12" depart="26.00" departLane="1318793173#0_0" departPos="84.13" departSpeed="0.00" departDelay="25.44" arrival="44.00" arrivalLane="189835257_0" arrivalPos="20.88" arrivalSpeed="13.19" duration="18.00" routeLength="116.70" waitingTime="0.00" waitingCount="0" stopTime="0.00" timeLoss="10.11" rerouteNo="0" devices="tripinfo_flow_route_2_duration_20250327_1920.12" vType="car" speedFactor="1.16" vaporized=""/>
    <tripinfo id="flow_route_2_duration_20250327_1920.11" depart="22.00" departLane="1318793173#0_0" departPos="53.49" departSpeed="0.00" departDelay="21.48" arrival="48.00" arrivalLane="189835257_0" arrivalPos="46.74" arrivalSpeed="14.52" duration="26.00" routeLength="173.20" waitingTime="0.00" waitingCount="0" stopTime="0.00" timeLoss="13.83" rerouteNo="0" devices="tripinfo_flow_route_2_duration_20250327_1920.11" vType="car" speedFactor="0.94" vaporized=""/>
    <tripinfo id="flow_route_9_duration_20250327_1920.0" depart="0.00" departLane="1318793173#0_0" departPos="0.65" departSpeed="0.00" departDelay="0.00" arrival="49.00" arrivalLane="1254771874#0_1" arrivalPos="11.63" arrivalSpeed="9.75" duration="49.00" routeLength="169.44" waitingTime="18.00" waitingCount="1" stopTime="0.00" timeLoss="37.09" rerouteNo="0" devices="tripinfo_flow_route_9_duration_20250327_1920.0" vType="car" speedFactor="1.01" vaporized=""/>
    <tripinfo id="flow_route_2_duration_20250327_1920.10" depart="22.00" departLane="1318793173#0_0" departPos="42.41" departSpeed="0.00" departDelay="21.53" arrival="49.00" arrivalLane="189835257_0" arrivalPos="43.41" arrivalSpeed="13.86" duration="27.00" routeLength="180.94" waitingTime="0.00" waitingCount="0" stopTime="0.00" timeLoss="14.80" rerouteNo="0" devices="tripinfo_flow_route_2_duration_20250327_1920.10" vType="car" speedFactor="0.94" vaporized=""/>
    <tripinfo id="flow_route_17_duration_20250327_1920.2" depart="17.00" departLane="137406408#0_0" departPos="38.90" departSpeed="0.00" departDelay="2.00" arrival="49.00" arrivalLane="1254771874#0_0" arrivalPos="221.95" arrivalSpeed="16.43" duration="32.00" routeLength="326.27" waitingTime="0.00" waitingCount="0" stopTime="0.00" timeLoss="11.37" rerouteNo="0" devices="tripinfo_flow_route_17_duration_20250327_1920.2" vType="car" speedFactor="0.99" vaporized=""/>
    <tripinfo id="flow_route_2_duration_20250327_1920.14" depart="26.00" departLane="1318793173#0_0" departPos="19.69" departSpeed="0.00" departDelay="25.34" arrival="51.00" arrivalLane="189835257_0" arrivalPos="12.47" arrivalSpeed="14.26" duration="25.00" routeLength="172.72" waitingTime="0.00" waitingCount="0" stopTime="0.00" timeLoss="13.27" rerouteNo="0" devices="tripinfo_flow_route_2_duration_20250327_1920.14" vType="car" speedFactor="1.01" vaporized=""/>
    <tripinfo id="flow_route_2_duration_20250327_1920.9" depart="18.00" departLane="1318793173#0_0" departPos="2.58" departSpeed="0.00" departDelay="17.58" arrival="52.00" arrivalLane="189835257_0" arrivalPos="49.45" arrivalSpeed="14.50" duration="34.00" routeLength="226.81" waitingTime="0.00" waitingCount="0" stopTime="0.00" timeLoss="16.98" rerouteNo="0" devices="tripinfo_flow_route_2_duration_20250327_1920.9" vType="car" speedFactor="0.88" vaporized=""/>
    <tripinfo id="flow_route_2_duration_20250327_1920.15" depart="26.00" departLane="1318793173#0_0" departPos="11.24" departSpeed="0.00" departDelay="25.30" arrival="52.00" arrivalLane="189835257_0" arrivalPos="1.71" arrivalSpeed="13.28" duration="26.00" routeLength="170.41" waitingTime="0.00" waitingCount="0" stopTime="0.00" timeLoss="14.18" rerouteNo="0" devices="tripinfo_flow_route_2_duration_20250327_1920.15" vType="car" speedFactor="0.97" vaporized=""/>
    <tripinfo id="flow_route_2_duration_20250327_1920.13" depart="26.00" departLane="1318793173#0_0" departPos="0.96" departSpeed="0.00" departDelay="25.39" arrival="55.00" arrivalLane="189835257_0" arrivalPos="28.66" arrivalSpeed="14.13" duration="29.00" routeLength="207.65" waitingTime="0.00" waitingCount="0" stopTime="0.00" timeLoss="16.03" rerouteNo="0" devices="tripinfo_flow_route_2_duration_20250327_1920.13" vType="car" speedFactor="1.02" vaporized=""/>
    <tripinfo id="flow_route_3_duration_20250327_1920.1" depart="47.00" departLane="1318793173#0_0" departPos="104.69" departSpeed="0.00" departDelay="46.61" arrival="60.00" arrivalLane="291974733#0_1" arrivalPos="31.04" arrivalSpeed="9.62" duration="13.00" routeLength="63.31" waitingTime="0.00" waitingCount="0" stopTime="0.00" timeLoss="8.73" rerouteNo="0" devices="tripinfo_flow_route_3_duration_20250327_1920.1" vType="car" speedFactor="0.93" vaporized=""/>
    <tripinfo id="flow_route_2_duration_20250327_1920.21" depart="47.00" departLane="1318793173#0_0" departPos="95.91" departSpeed="0.00" departDelay="46.01" arrival="65.00" arrivalLane="189835257_0" arrivalPos="36.08" arrivalSpeed="13.74" duration="18.00" routeLength="120.11" waitingTime="0.00" waitingCount="0" stopTime="0.00" timeLoss="9.56" rerouteNo="0" devices="tripinfo_flow_route_2_duration_20250327_1920.21" vType="car" speedFactor="1.13" vaporized=""/>
    <tripinfo id="flow_route_2_duration_20250327_1920.18" depart="42.00" departLane="1318793173#0_0" departPos="54.96" departSpeed="0.00" departDelay="41.15" arrival="66.00" arrivalLane="189835257_0" arrivalPos="8.38" arrivalSpeed="11.53" duration="24.00" routeLength="133.35" waitingTime="0.00" waitingCount="0" stopTime="0.00" timeLoss="13.78" rerouteNo="0" devices="tripinfo_flow_route_2_duration_20250327_1920.18" vType="car" speedFactor="0.87" vaporized=""/>
    <tripinfo id="flow_route_2_duration_20250327_1920.19" depart="44.00" departLane="1318793173#0_0" departPos="69.11" departSpeed="0.00" departDelay="43.11" arrival="68.00" arrivalLane="189835257_0" arrivalPos="50.37" arrivalSpeed="13.82" duration="24.00" routeLength="161.20" waitingTime="0.00" waitingCount="0" stopTime="0.00" timeLoss="12.07" rerouteNo="0" devices="tripinfo_flow_route_2_duration_20250327_1920.19" vType="car" speedFactor="0.92" vaporized=""/>
    <tripinfo id="flow_route_2_duration_20250327_1920.16" depart="37.00" departLane="1318793173#0_0" departPos="25.91" departSpeed="0.00" departDelay="36.25" arrival="69.00" arrivalLane="189835257_0" arrivalPos="15.89" arrivalSpeed="13.63" duration="32.00" routeLength="169.92" waitingTime="0.00" waitingCount="0" stopTime="0.00" timeLoss="19.01" rerouteNo="0" devices="tripinfo_flow_route_2_duration_20250327_1920.16" vType="car" speedFactor="0.89" vaporized=""/>
    <tripinfo id="flow_route_2_duration_20250327_1920.20" depart="47.00" departLane="1318793173#0_0" departPos="21.06" departSpeed="0.00" departDelay="46.06" arrival="71.00" arrivalLane="189835257_0" arrivalPos="1.57" arrivalSpeed="12.67" duration="24.00" routeLength="160.45" waitingTime="0.00" waitingCount="0" stopTime="0.00" timeLoss="12.79" rerouteNo="0" devices="tripinfo_flow_route_2_duration_20250327_1920.20" vType="car" speedFactor="0.95" vaporized=""/>
    <tripinfo id="flow_route_2_duration_20250327_1920.17" depart="39.00" departLane="1318793173#0_0" departPos="7.04" departSpeed="0.00" departDelay="38.20" arrival="72.00" arrivalLane="189835257_0" arrivalPos="40.26" arrivalSpeed="13.43" duration="33.00" routeLength="213.16" waitingTime="0.00" waitingCount="0" stopTime="0.00" timeLoss="16.56" rerouteNo="0" devices="tripinfo_flow_route_2_duration_20250327_1920.17" vType="car" speedFactor="0.83" vaporized=""/>
    <tripinfo id="flow_route_2_duration_20250327_1920.23" depart="60.00" departLane="1318793173#0_0" departPos="61.21" departSpeed="0.00" departDelay="58.92" arrival="79.00" arrivalLane="189835257_0" arrivalPos="30.10" arrivalSpeed="14.74" duration="19.00" routeLength="148.83" waitingTime="0.00" waitingCount="0" stopTime="0.00" timeLoss="9.34" rerouteNo="0" devices="tripinfo_flow_route_2_duration_20250327_1920.23" vType="car" speedFactor="1.01" vaporized=""/>
    <tripinfo id="flow_route_2_duration_20250327_1920.28" depart="72.00" departLane="1318793173#0_0" departPos="104.01" departSpeed="0.00" departDelay="70.68" arrival="89.00" arrivalLane="189835257_0" arrivalPos="37.68" arrivalSpeed="13.34" duration="17.00" routeLength="113.62" waitingTime="0.00" waitingCount="0" stopTime="0.00" timeLoss="9.38" rerouteNo="0" devices="tripinfo_flow_route_2_duration_20250327_1920.28" vType="car" speedFactor="1.18" vaporized=""/>
    <tripinfo id="flow_route_15_duration_20250327_1920.0" depart="1.00" departLane="1252820503#0_0" departPos="18.56" departSpeed="0.00" departDelay="1.00" arrival="90.00" arrivalLane="133126040#0_1" arrivalPos="4.72" arrivalSpeed="9.66" duration="89.00" routeLength="165.33" waitingTime="53.00" waitingCount="1" stopTime="0.00" timeLoss="77.94" rerouteNo="0" devices="tripinfo_flow_route_15_duration_20250327_1920.0" vType="car" speedFactor="0.83" vaporized=""/>
    <tripinfo id="flow_route_15_duration_20250327_1920.2" depart="5.00" departLane="1252820503#0_0" departPos="138.60" departSpeed="0.00" departDelay="1.76" arrival="90.00" arrivalLane="133126040#0_1" arrivalPos="71.74" arrivalSpeed="12.50" duration="85.00" routeLength="112.32" waitingTime="63.00" waitingCount="1" stopTime="0.00" timeLoss="76.63" rerouteNo="0" devices="tripinfo_flow_route_15_duration_20250327_1920.2" vType="car" speedFactor="0.87" vaporized=""/>
    <tripinfo id="flow_route_13_duration_20250327_1920.4" depart="6.00" departLane="1252820503#0_0" departPos="135.91" departSpeed="0.00" departDelay="1.10" arrival="90.00" arrivalLane="291974733#0_0" arrivalPos="85.19" arrivalSpeed="12.29" duration="84.00" routeLength="106.43" waitingTime="65.00" waitingCount="1" stopTime="0.00" timeLoss="76.56" rerouteNo="0" devices="tripinfo_flow_route_13_duration_20250327_1920.4" vType="car" speedFactor="1.01" vaporized=""/>
    <tripinfo id="flow_route_13_duration_20250327_1920.0" depart="0.00" departLane="1252820503#0_0" departPos="99.64" departSpeed="0.00" departDelay="0.00" arrival="91.00" arrivalLane="291974733#0_0" arrivalPos="46.05" arrivalSpeed="9.78" duration="91.00" routeLength="103.57" waitingTime="63.00" waitingCount="1" stopTime="0.00" timeLoss="83.25" rerouteNo="0" devices="tripinfo_flow_route_13_duration_20250327_1920.0" vType="car" speedFactor="1.08" vaporized=""/>
    <tripinfo id="flow_route_2_duration_20250327_1920.24" depart="65.00" departLane="1318793173#0_0" departPos="54.85" departSpeed="0.00" departDelay="63.87" arrival="91.00" arrivalLane="189835257_0" arrivalPos="12.71" arrivalSpeed="12.51" duration="26.00" routeLength="137.80" waitingTime="0.00" waitingCount="0" stopTime="0.00" timeLoss="17.17" rerouteNo="0" devices="tripinfo_flow_route_2_duration_20250327_1920.24" vType="car" speedFactor="1.17" vaporized=""/>
    <tripinfo id="flow_route_2_duration_20250327_1920.25" depart="65.00" departLane="1318793173#0_0" departPos="62.59" departSpeed="0.00" departDelay="63.83" arrival="91.00" arrivalLane="189835257_0" arrivalPos="42.74" arrivalSpeed="14.15" duration="26.00" routeLength="160.09" waitingTime="0.00" waitingCount="0" stopTime="0.00" timeLoss="15.38" rerouteNo="0" devices="tripinfo_flow_route_2_duration_20250327_1920.25" vType="car" speedFactor="0.99" vaporized=""/>
    <tripinfo id="flow_route_15_duration_20250327_1920.1" depart="4.00" departLane="1252820503#0_0" departPos="41.05" departSpeed="0.00" departDelay="2.38" arrival="91.00" arrivalLane="133126040#0_1" arrivalPos="33.95" arrivalSpeed="11.00" duration="87.00" routeLength="172.08" waitingTime="55.00" waitingCount="1" stopTime="0.00" timeLoss="76.24" rerouteNo="0" devices="tripinfo_flow_route_15_duration_20250327_1920.1" vType="car" speedFactor="1.14" vaporized=""/>
    <tripinfo id="flow_route_2_duration_20250327_1920.22" depart="59.00" departLane="1318793173#0_0" departPos="21.94" departSpeed="0.00" departDelay="57.97" arrival="93.00" arrivalLane="189835257_0" arrivalPos="8.84" arrivalSpeed="13.11" duration="34.00" routeLength="166.84" waitingTime="0.00" waitingCount="0" stopTime="0.00" timeLoss="22.86" rerouteNo="0" devices="tripinfo_flow_route_2_duration_20250327_1920.22" vType="car" speedFactor="1.15" vaporized=""/>
    <tripinfo id="flow_route_2_duration_20250327_1920.26" depart="67.00" departLane="1318793173#0_0" departPos="37.76" departSpeed="0.00" departDelay="65.78" arrival="94.00" arrivalLane="189835257_0" arrivalPos="4.69" arrivalSpeed="12.33" duration="27.00" routeLength="146.86" waitingTime="0.00" waitingCount="0" stopTime="0.00" timeLoss="17.50" rerouteNo="0" devices="tripinfo_flow_route_2_duration_20250327_1920.26" vType="car" speedFactor="1.02" vaporized=""/>
    <tripinfo id="flow_route_13_duration_20250327_1920.3" depart="5.00" departLane="1252820503#0_0" departPos="72.17" departSpeed="0.00" departDelay="1.33" arrival="95.00" arrivalLane="291974733#0_0" arrivalPos="32.28" arrivalSpeed="8.10" duration="90.00" routeLength="117.28" waitingTime="61.00" waitingCount="1" stopTime="0.00" timeLoss="81.31" rerouteNo="0" devices="tripinfo_flow_route_13_duration_20250327_1920.3" vType="car" speedFactor="0.93" vaporized=""/>
    <tripinfo id="flow_route_13_duration_20250327_1920.1" depart="4.00" departLane="1252820503#0_0" departPos="87.22" departSpeed="0.00" departDelay="2.78" arrival="98.00" arrivalLane="291974733#0_0" arrivalPos="92.98" arrivalSpeed="12.85" duration="94.00" routeLength="162.92" waitingTime="62.00" waitingCount="1" stopTime="0.00" timeLoss="81.68" rerouteNo="0" devices="tripinfo_flow_route_13_duration_20250327_1920.1" vType="car" speedFactor="0.90" vaporized=""/>
    <tripinfo id="flow_route_14_duration_20250327_1920.0" depart="0.00" departLane="1252820503#0_0" departPos="69.02" departSpeed="0.00" departDelay="0.00" arrival="99.00" arrivalLane="1254771874#0_1" arrivalPos="150.80" arrivalSpeed="16.31" duration="99.00" routeLength="291.67" waitingTime="58.00" waitingCount="1" stopTime="0.00" timeLoss="80.52" rerouteNo="0" devices="tripinfo_flow_route_14_duration_20250327_1920.0" vType="car" speedFactor="1.03" vaporized=""/>
    <tripinfo id="flow_route_2_duration_20250327_1920.27" depart="70.00" departLane="1318793173#0_0" departPos="26.75" departSpeed="0.00" departDelay="68.73" arrival="99.00" arrivalLane="189835257_0" arrivalPos="35.18" arrivalSpeed="14.36" duration="29.00" routeLength="188.37" waitingTime="0.00" waitingCount="0" stopTime="0.00" timeLoss="16.30" rerouteNo="0" devices="tripinfo_flow_route_2_duration_20250327_1920.27" vType="car" speedFactor="0.97" vaporized=""/>
    <tripinfo id="flow_route_15_duration_20250327_1920.3" depart="14.00" departLane="1252820503#0_0" departPos="50.16" departSpeed="0.00" departDelay="9.14" arrival="99.00" arrivalLane="133126040#0_1" arrivalPos="12.37" arrivalSpeed="11.82" duration="85.00" routeLength="141.38" waitingTime="46.00" waitingCount="1" stopTime="0.00" timeLoss="75.99" rerouteNo="0" devices="tripinfo_flow_route_15_duration_20250327_1920.3" vType="car" speedFactor="1.02" vaporized=""/>
    <tripinfo id="flow_route_13_duration_20250327_1920.2" depart="4.00" departLane="1252820503#0_0" departPos="56.18" departSpeed="0.00" departDelay="1.55" arrival="100.00" arrivalLane="291974733#0_0" arrivalPos="58.58" arrivalSpeed="10.31" duration="96.00" routeLength="159.57" waitingTime="60.00" waitingCount="1" stopTime="0.00" timeLoss="84.95" rerouteNo="0" devices="tripinfo_flow_route_13_duration_20250327_1920.2" vType="car" speedFactor="1.00" vaporized=""/>
    <tripinfo id="flow_route_15_duration_20250327_1920.5" depart="22.00" departLane="1252820503#0_0" departPos="93.87" departSpeed="0.00" departDelay="13.90" arrival="100.00" arrivalLane="133126040#0_1" arrivalPos="70.30" arrivalSpeed="14.20" duration="78.00" routeLength="155.61" waitingTime="48.00" waitingCount="1" stopTime="0.00" timeLoss="67.98" rerouteNo="0" devices="tripinfo_flow_route_15_duration_20250327_1920.5" vType="car" speedFactor="1.02" vaporized=""/>
    <tripinfo id="flow_route_2_duration_20250327_1920.29" depart="73.00" departLane="1318793173#0_0" departPos="10.68" departSpeed="0.00" departDelay="71.64" arrival="101.00" arrivalLane="189835257_0" arrivalPos="31.40" arrivalSpeed="13.90" duration="28.00" routeLength="200.66" waitingTime="0.00" waitingCount="0" stopTime="0.00" timeLoss="14.63" rerouteNo="0" devices="tripinfo_flow_route_2_duration_20250327_1920.29" vType="car" speedFactor="1.10" vaporized=""/>
    <tripinfo id="flow_route_14_duration_20250327_1920.1" depart="5.00" departLane="1252820503#0_0" departPos="147.57" departSpeed="0.00" departDelay="2.86" arrival="102.00" arrivalLane="1254771874#0_0" arrivalPos="236.42" arrivalSpeed="16.56" duration="97.00" routeLength="298.74" waitingTime="68.00" waitingCount="1" stopTime="0.00" timeLoss="78.71" rerouteNo="0" devices="tripinfo_flow_route_14_duration_20250327_1920.1" vType="car" speedFactor="1.02" vaporized=""/>
    <tripinfo id="flow_route_13_duration_20250327_1920.5" depart="16.00" departLane="1252820503#0_0" departPos="16.13" departSpeed="0.00" departDelay="9.88" arrival="104.00" arrivalLane="291974733#0_0" arrivalPos="21.58" arrivalSpeed="7.85" duration="88.00" routeLength="162.61" waitingTime="48.00" waitingCount="1" stopTime="0.00" timeLoss="76.29" rerouteNo="0" devices="tripinfo_flow_route_13_duration_20250327_1920.5" vType="car" speedFactor="0.89" vaporized=""/>
    <tripinfo id="flow_route_15_duration_20250327_1920.4" depart="19.00" departLane="1252820503#0_0" departPos="84.44" departSpeed="0.00" departDelay="12.52" arrival="104.00" arrivalLane="133126040#0_1" arrivalPos="101.89" arrivalSpeed="15.85" duration="85.00" routeLength="196.64" waitingTime="50.00" waitingCount="2" stopTime="0.00" timeLoss="72.12" rerouteNo="0" devices="tripinfo_flow_route_15_duration_20250327_1920.4" vType="car" speedFactor="0.97" vaporized=""/>
    <tripinfo id="flow_route_15_duration_20250327_1920.6" depart="34.00" departLane="1252820503#0_0" departPos="15.28" departSpeed="0.00" departDelay="24.27" arrival="104.00" arrivalLane="133126040#0_1" arrivalPos="4.66" arrivalSpeed="11.91" duration="70.00" routeLength="168.57" waitingTime="36.00" waitingCount="1" stopTime="0.00" timeLoss="59.28" rerouteNo="0" devices="tripinfo_flow_route_15_duration_20250327_1920.6" vType="car" speedFactor="1.05" vaporized=""/>
    <tripinfo id="flow_route_13_duration_20250327_1920.6" depart="19.00" departLane="1252820503#0_0" departPos="52.47" departSpeed="0.00" departDelay="11.66" arrival="105.00" arrivalLane="291974733#0_0" arrivalPos="74.63" arrivalSpeed="11.89" duration="86.00" routeLength="179.32" waitingTime="48.00" waitingCount="1" stopTime="0.00" timeLoss="74.55" rerouteNo="0" devices="tripinfo_flow_route_13_duration_20250327_1920.6" vType="car" speedFactor="1.07" vaporized=""/>
    <tripinfo id="flow_route_14_duration_20250327_1920.4" depart="19.00" departLane="1252820503#0_0" departPos="99.03" departSpeed="0.00" departDelay="10.43" arrival="108.00" arrivalLane="1254771874#0_1" arrivalPos="215.54" arrivalSpeed="16.41" duration="89.00" routeLength="326.39" waitingTime="49.00" waitingCount="1" stopTime="0.00" timeLoss="68.91" rerouteNo="0" devices="tripinfo_flow_route_14_duration_20250327_1920.4" vType="car" speedFactor="0.99" vaporized=""/>
    <tripinfo id="flow_route_14_duration_20250327_1920.2" depart="11.00" departLane="1252820503#0_0" departPos="35.10" departSpeed="0.00" departDelay="6.72" arrival="109.00" arrivalLane="1254771874#0_1" arrivalPos="105.28" arrivalSpeed="16.25" duration="98.00" routeLength="280.06" waitingTime="48.00" waitingCount="3" stopTime="0.00" timeLoss="81.04" rerouteNo="0" devices="tripinfo_flow_route_14_duration_20250327_1920.2" vType="car" speedFactor="1.12" vaporized=""/>