<?xml version="1.0" encoding="UTF-8"?>

<!-- generated on 2025-05-06 21:09:15 by Eclipse SUMO sumo Version 1.20.0
<configuration xmlns:xsi="http://www.w3.org/2001/XMLSchema-instance" xsi:noNamespaceSchemaLocation="http://sumo.dlr.de/xsd/sumoConfiguration.xsd">

    <input>
        <net-file value="osm.net.xml"/>
        <route-files value="xml/route_rl_GS_cluster_1342409365_3839031467_9.rou.xml"/>
    </input>

    <output>
        <tripinfo-output value="xml/tripinfo_rl_GS_cluster_1342409365_3839031467_9.xml"/>
    </output>

    <traci_server>
        <remote-port value="37433"/>
    </traci_server>

</configuration>
-->

<tripinfos xmlns:xsi="http://www.w3.org/2001/XMLSchema-instance" xsi:noNamespaceSchemaLocation="http://sumo.dlr.de/xsd/tripinfo_file.xsd">
    <tripinfo id="flow_route_92_duration_20250327_2020.1" depart="3.00" departLane="133000063_0" departPos="161.74" departSpeed="0.00" departDelay="0.86" arrival="33.00" arrivalLane="186409193_0" arrivalPos="29.97" arrivalSpeed="15.74" duration="30.00" routeLength="260.09" waitingTime="0.00" waitingCount="0" stopTime="0.00" timeLoss="13.38" rerouteNo="0" devices="tripinfo_flow_route_92_duration_20250327_2020.1" vType="car" speedFactor="1.09" vaporized=""/>
    <tripinfo id="flow_route_128_duration_20250327_2020.2" depart="14.00" departLane="134133272_0" departPos="396.88" departSpeed="0.00" departDelay="0.67" arrival="33.00" arrivalLane="380585338#0_0" arrivalPos="11.63" arrivalSpeed="7.85" duration="19.00" routeLength="112.95" waitingTime="0.00" waitingCount="0" stopTime="0.00" timeLoss="11.37" rerouteNo="0" devices="tripinfo_flow_route_128_duration_20250327_2020.2" vType="car" speedFactor="1.17" vaporized=""/>
    <tripinfo id="flow_route_128_duration_20250327_2020.0" depart="0.00" departLane="134133272_0" departPos="226.49" departSpeed="0.00" departDelay="0.00" arrival="36.00" arrivalLane="380585338#0_0" arrivalPos="7.57" arrivalSpeed="5.17" duration="36.00" routeLength="279.28" waitingTime="0.00" waitingCount="0" stopTime="0.00" timeLoss="15.56" rerouteNo="0" devices="tripinfo_flow_route_128_duration_20250327_2020.0" vType="car" speedFactor="0.83" vaporized=""/>
    <tripinfo id="flow_route_92_duration_20250327_2020.3" depart="9.00" departLane="133000063_0" departPos="123.25" departSpeed="0.00" departDelay="2.57" arrival="41.00" arrivalLane="186409193_0" arrivalPos="7.56" arrivalSpeed="14.14" duration="32.00" routeLength="276.17" waitingTime="0.00" waitingCount="0" stopTime="0.00" timeLoss="13.05" rerouteNo="0" devices="tripinfo_flow_route_92_duration_20250327_2020.3" vType="car" speedFactor="0.94" vaporized=""/>
    <tripinfo id="flow_route_92_duration_20250327_2020.2" depart="5.00" departLane="133000063_0" departPos="51.98" departSpeed="0.00" departDelay="0.72" arrival="44.00" arrivalLane="186409193_0" arrivalPos="13.83" arrivalSpeed="14.76" duration="39.00" routeLength="353.71" waitingTime="0.00" waitingCount="0" stopTime="0.00" timeLoss="17.05" rerouteNo="0" devices="tripinfo_flow_route_92_duration_20250327_2020.2" vType="car" speedFactor="1.12" vaporized=""/>
    <tripinfo id="flow_route_91_duration_20250327_2020.0" depart="0.00" departLane="133000063_0" departPos="128.34" departSpeed="0.00" departDelay="0.00" arrival="48.00" arrivalLane="683079387#1_0" arrivalPos="9.10" arrivalSpeed="16.56" duration="48.00" routeLength="599.49" waitingTime="0.00" waitingCount="0" stopTime="0.00" timeLoss="11.21" rerouteNo="0" devices="tripinfo_flow_route_91_duration_20250327_2020.0" vType="car" speedFactor="1.06" vaporized=""/>
    <tripinfo id="flow_route_92_duration_20250327_2020.0" depart="0.00" departLane="133000063_0" departPos="1.04" departSpeed="0.00" departDelay="0.00" arrival="49.00" arrivalLane="186409193_0" arrivalPos="41.62" arrivalSpeed="15.19" duration="49.00" routeLength="432.44" waitingTime="0.00" waitingCount="0" stopTime="0.00" timeLoss="20.54" rerouteNo="0" devices="tripinfo_flow_route_92_duration_20250327_2020.0" vType="car" speedFactor="0.94" vaporized=""/>
    <tripinfo id="flow_route_128_duration_20250327_2020.1" depart="7.00" departLane="134133272_0" departPos="105.62" departSpeed="0.00" departDelay="0.33" arrival="52.00" arrivalLane="380585338#0_0" arrivalPos="71.43" arrivalSpeed="12.20" duration="45.00" routeLength="464.01" waitingTime="0.00" waitingCount="0" stopTime="0.00" timeLoss="15.91" rerouteNo="0" devices="tripinfo_flow_route_128_duration_20250327_2020.1" vType="car" speedFactor="1.16" vaporized=""/>
    <tripinfo id="flow_route_93_duration_20250327_2020.0" depart="0.00" departLane="133000063_0" departPos="115.92" departSpeed="0.00" departDelay="0.00" arrival="66.00" arrivalLane="380585336_1" arrivalPos="19.16" arrivalSpeed="16.33" duration="66.00" routeLength="758.54" waitingTime="0.00" waitingCount="0" stopTime="0.00" timeLoss="20.16" rerouteNo="0" devices="tripinfo_flow_route_93_duration_20250327_2020.0" vType="car" speedFactor="1.01" vaporized=""/>
    <tripinfo id="flow_route_145_duration_20250327_2020.0" depart="0.00" departLane="683079388#0_0" departPos="22.61" departSpeed="0.00" departDelay="0.00" arrival="68.00" arrivalLane="380585336_0" arrivalPos="229.76" arrivalSpeed="15.56" duration="68.00" routeLength="831.39" waitingTime="0.00" waitingCount="0" stopTime="0.00" timeLoss="15.36" rerouteNo="0" devices="tripinfo_flow_route_145_duration_20250327_2020.0" vType="car" speedFactor="0.94" vaporized=""/>
    <tripinfo id="flow_route_128_duration_20250327_2020.3" depart="22.00" departLane="134133272_0" departPos="137.14" departSpeed="0.00" departDelay="2.00" arrival="71.00" arrivalLane="380585338#0_0" arrivalPos="18.18" arrivalSpeed="6.47" duration="49.00" routeLength="379.25" waitingTime="0.00" waitingCount="0" stopTime="0.00" timeLoss="22.86" rerouteNo="0" devices="tripinfo_flow_route_128_duration_20250327_2020.3" vType="car" speedFactor="0.90" vaporized=""/>
    <tripinfo id="flow_route_128_duration_20250327_2020.5" depart="35.00" departLane="134133272_0" departPos="289.24" departSpeed="0.00" departDelay="1.67" arrival="73.00" arrivalLane="380585338#0_0" arrivalPos="84.64" arrivalSpeed="12.73" duration="38.00" routeLength="293.61" waitingTime="0.00" waitingCount="0" stopTime="0.00" timeLoss="18.55" rerouteNo="0" devices="tripinfo_flow_route_128_duration_20250327_2020.5" vType="car" speedFactor="0.98" vaporized=""/>
    <tripinfo id="flow_route_102_duration_20250327_2020.0" depart="0.00" departLane="1342963997_0" departPos="83.70" departSpeed="0.00" departDelay="0.00" arrival="74.00" arrivalLane="380585336_1" arrivalPos="207.08" arrivalSpeed="16.12" duration="74.00" routeLength="834.32" waitingTime="0.00" waitingCount="0" stopTime="0.00" timeLoss="22.53" rerouteNo="0" devices="tripinfo_flow_route_102_duration_20250327_2020.0" vType="car" speedFactor="1.08" vaporized=""/>
    <tripinfo id="flow_route_128_duration_20250327_2020.4" depart="30.00" departLane="134133272_0" departPos="67.00" departSpeed="0.00" departDelay="3.34" arrival="75.00" arrivalLane="380585338#0_0" arrivalPos="26.67" arrivalSpeed="9.27" duration="45.00" routeLength="457.87" waitingTime="0.00" waitingCount="0" stopTime="0.00" timeLoss="16.45" rerouteNo="0" devices="tripinfo_flow_route_128_duration_20250327_2020.4" vType="car" speedFactor="1.12" vaporized=""/>
    <tripinfo id="flow_route_128_duration_20250327_2020.6" depart="40.00" departLane="134133272_0" departPos="367.18" departSpeed="0.00" departDelay="0.00" arrival="75.00" arrivalLane="380585338#0_0" arrivalPos="163.35" arrivalSpeed="16.27" duration="35.00" routeLength="294.37" waitingTime="0.00" waitingCount="0" stopTime="0.00" timeLoss="16.02" rerouteNo="0" devices="tripinfo_flow_route_128_duration_20250327_2020.6" vType="car" speedFactor="1.02" vaporized=""/>
    <tripinfo id="flow_route_129_duration_20250327_2020.1" depart="8.00" departLane="134133272_0" departPos="96.55" departSpeed="0.00" departDelay="0.50" arrival="79.00" arrivalLane="683079387#1_1" arrivalPos="1.71" arrivalSpeed="16.50" duration="71.00" routeLength="946.10" waitingTime="0.00" waitingCount="0" stopTime="0.00" timeLoss="12.69" rerouteNo="0" devices="tripinfo_flow_route_129_duration_20250327_2020.1" vType="car" speedFactor="1.01" vaporized=""/>
    <tripinfo id="flow_route_93_duration_20250327_2020.4" depart="6.00" departLane="133000063_0" departPos="5.14" departSpeed="0.00" departDelay="1.10" arrival="81.00" arrivalLane="380585336_1" arrivalPos="13.66" arrivalSpeed="16.51" duration="75.00" routeLength="863.81" waitingTime="0.00" waitingCount="0" stopTime="0.00" timeLoss="22.36" rerouteNo="0" devices="tripinfo_flow_route_93_duration_20250327_2020.4" vType="car" speedFactor="0.99" vaporized=""/>
    <tripinfo id="flow_route_129_duration_20250327_2020.0" depart="0.00" departLane="134133272_0" departPos="105.80" departSpeed="0.00" departDelay="0.00" arrival="83.00" arrivalLane="683079387#1_0" arrivalPos="7.59" arrivalSpeed="16.32" duration="83.00" routeLength="945.90" waitingTime="0.00" waitingCount="0" stopTime="0.00" timeLoss="25.01" rerouteNo="0" devices="tripinfo_flow_route_129_duration_20250327_2020.0" vType="car" speedFactor="1.05" vaporized=""/>
    <tripinfo id="flow_route_93_duration_20250327_2020.2" depart="4.00" departLane="133000063_0" departPos="68.31" departSpeed="0.00" departDelay="1.55" arrival="83.00" arrivalLane="380585336_1" arrivalPos="129.38" arrivalSpeed="16.23" duration="79.00" routeLength="916.37" waitingTime="0.00" waitingCount="0" stopTime="0.00" timeLoss="22.91" rerouteNo="0" devices="tripinfo_flow_route_93_duration_20250327_2020.2" vType="car" speedFactor="1.03" vaporized=""/>
    <tripinfo id="flow_route_144_duration_20250327_2020.3" depart="18.00" departLane="683079388#0_0" departPos="10.77" departSpeed="0.00" departDelay="1.64" arrival="88.00" arrivalLane="380585338#0_2" arrivalPos="36.88" arrivalSpeed="9.97" duration="70.00" routeLength="605.85" waitingTime="10.00" waitingCount="1" stopTime="0.00" timeLoss="32.95" rerouteNo="0" devices="tripinfo_flow_route_144_duration_20250327_2020.3" vType="car" speedFactor="1.03" vaporized=""/>
    <tripinfo id="flow_route_144_duration_20250327_2020.6" depart="35.00" departLane="683079388#0_0" departPos="8.35" departSpeed="0.00" departDelay="2.28" arrival="88.00" arrivalLane="380585338#0_2" arrivalPos="19.86" arrivalSpeed="8.81" duration="53.00" routeLength="591.24" waitingTime="0.00" waitingCount="0" stopTime="0.00" timeLoss="16.56" rerouteNo="0" devices="tripinfo_flow_route_144_duration_20250327_2020.6" vType="car" speedFactor="0.98" vaporized=""/>
    <tripinfo id="flow_route_144_duration_20250327_2020.0" depart="0.00" departLane="683079388#0_0" departPos="1.56" departSpeed="0.00" departDelay="0.00" arrival="89.00" arrivalLane="380585338#0_0" arrivalPos="42.98" arrivalSpeed="9.88" duration="89.00" routeLength="621.16" waitingTime="24.00" waitingCount="1" stopTime="0.00" timeLoss="46.38" rerouteNo="0" devices="tripinfo_flow_route_144_duration_20250327_2020.0" vType="car" speedFactor="0.89" vaporized=""/>
    <tripinfo id="flow_route_93_duration_20250327_2020.1" depart="3.00" departLane="133000063_0" departPos="109.11" departSpeed="0.00" departDelay="1.78" arrival="90.00" arrivalLane="380585336_0" arrivalPos="288.04" arrivalSpeed="14.18" duration="87.00" routeLength="1034.22" waitingTime="0.00" waitingCount="0" stopTime="0.00" timeLoss="14.45" rerouteNo="0" devices="tripinfo_flow_route_93_duration_20250327_2020.1" vType="car" speedFactor="0.86" vaporized=""/>
    <tripinfo id="flow_route_144_duration_20250327_2020.5" depart="30.00" departLane="683079388#0_0" departPos="8.93" departSpeed="0.00" departDelay="2.73" arrival="93.00" arrivalLane="380585338#0_0" arrivalPos="48.15" arrivalSpeed="10.66" duration="63.00" routeLength="618.96" waitingTime="0.00" waitingCount="0" stopTime="0.00" timeLoss="23.23" rerouteNo="0" devices="tripinfo_flow_route_144_duration_20250327_2020.5" vType="car" speedFactor="0.94" vaporized=""/>
    <tripinfo id="flow_route_144_duration_20250327_2020.7" depart="39.00" departLane="683079388#0_0" departPos="4.92" departSpeed="0.00" departDelay="0.82" arrival="93.00" arrivalLane="380585338#0_1" arrivalPos="55.71" arrivalSpeed="11.53" duration="54.00" routeLength="630.53" waitingTime="0.00" waitingCount="0" stopTime="0.00" timeLoss="15.61" rerouteNo="0" devices="tripinfo_flow_route_144_duration_20250327_2020.7" vType="car" speedFactor="1.01" vaporized=""/>
    <tripinfo id="flow_route_144_duration_20250327_2020.2" depart="12.00" departLane="683079388#0_0" departPos="3.92" departSpeed="0.00" departDelay="1.09" arrival="94.00" arrivalLane="380585338#0_0" arrivalPos="85.54" arrivalSpeed="12.91" duration="82.00" routeLength="661.35" waitingTime="17.00" waitingCount="1" stopTime="0.00" timeLoss="41.87" rerouteNo="0" devices="tripinfo_flow_route_144_duration_20250327_2020.2" vType="car" speedFactor="1.13" vaporized=""/>
    <tripinfo id="flow_route_144_duration_20250327_2020.8" depart="47.00" departLane="683079388#0_0" departPos="8.95" departSpeed="0.00" departDelay="3.37" arrival="94.00" arrivalLane="380585338#0_0" arrivalPos="14.77" arrivalSpeed="16.50" duration="47.00" routeLength="585.56" waitingTime="0.00" waitingCount="0" stopTime="0.00" timeLoss="11.59" rerouteNo="0" devices="tripinfo_flow_route_144_duration_20250327_2020.8" vType="car" speedFactor="1.12" vaporized=""/>
    <tripinfo id="flow_route_103_duration_20250327_2020.0" depart="1.00" departLane="1342963997_0" departPos="57.81" departSpeed="0.00" departDelay="1.00" arrival="95.00" arrivalLane="683079387#1_0" arrivalPos="6.02" arrivalSpeed="16.58" duration="94.00" routeLength="524.42" waitingTime="35.00" waitingCount="1" stopTime="0.00" timeLoss="61.22" rerouteNo="0" devices="tripinfo_flow_route_103_duration_20250327_2020.0" vType="car" speedFactor="1.03" vaporized=""/>
    <tripinfo id="flow_route_129_duration_20250327_2020.5" depart="39.00" departLane="134133272_0" departPos="340.28" departSpeed="0.00" departDelay="1.50" arrival="95.00" arrivalLane="683079387#1_1" arrivalPos="1.17" arrivalSpeed="16.14" duration="56.00" routeLength="705.00" waitingTime="0.00" waitingCount="0" stopTime="0.00" timeLoss="11.92" rerouteNo="0" devices="tripinfo_flow_route_129_duration_20250327_2020.5" vType="car" speedFactor="0.98" vaporized=""/>
    <tripinfo id="flow_route_93_duration_20250327_2020.3" depart="4.00" departLane="133000063_0" departPos="93.75" departSpeed="0.00" departDelay="0.33" arrival="96.00" arrivalLane="380585336_1" arrivalPos="374.01" arrivalSpeed="16.53" duration="92.00" routeLength="1135.55" waitingTime="0.00" waitingCount="0" stopTime="0.00" timeLoss="23.05" rerouteNo="0" devices="tripinfo_flow_route_93_duration_20250327_2020.3" vType="car" speedFactor="1.05" vaporized=""/>
    <tripinfo id="flow_route_144_duration_20250327_2020.1" depart="6.00" departLane="683079388#0_0" departPos="8.55" departSpeed="0.00" departDelay="0.55" arrival="97.00" arrivalLane="380585338#0_0" arrivalPos="166.11" arrivalSpeed="14.56" duration="91.00" routeLength="737.30" waitingTime="19.00" waitingCount="1" stopTime="0.00" timeLoss="40.48" rerouteNo="0" devices="tripinfo_flow_route_144_duration_20250327_2020.1" vType="car" speedFactor="0.88" vaporized=""/>
    <tripinfo id="flow_route_129_duration_20250327_2020.4" depart="30.00" departLane="134133272_0" departPos="188.10" departSpeed="0.00" departDelay="0.00" arrival="98.00" arrivalLane="683079387#1_0" arrivalPos="9.06" arrivalSpeed="16.45" duration="68.00" routeLength="865.07" waitingTime="0.00" waitingCount="0" stopTime="0.00" timeLoss="14.73" rerouteNo="0" devices="tripinfo_flow_route_129_duration_20250327_2020.4" vType="car" speedFactor="1.02" vaporized=""/>
    <tripinfo id="flow_route_145_duration_20250327_2020.1" depart="31.00" departLane="683079388#0_0" departPos="23.72" departSpeed="0.00" departDelay="1.00" arrival="98.00" arrivalLane="380585336_0" arrivalPos="203.39" arrivalSpeed="16.41" duration="67.00" routeLength="803.91" waitingTime="0.00" waitingCount="0" stopTime="0.00" timeLoss="17.98" rerouteNo="0" devices="tripinfo_flow_route_145_duration_20250327_2020.1" vType="car" speedFactor="1.02" vaporized=""/>
    <tripinfo id="flow_route_144_duration_20250327_2020.4" depart="22.00" departLane="683079388#0_0" departPos="2.62" departSpeed="0.00" departDelay="0.18" arrival="99.00" arrivalLane="380585338#0_1" arrivalPos="168.70" arrivalSpeed="16.58" duration="77.00" routeLength="745.82" waitingTime="8.00" waitingCount="1" stopTime="0.00" timeLoss="31.47" rerouteNo="0" devices="tripinfo_flow_route_144_duration_20250327_2020.4" vType="car" speedFactor="1.17" vaporized=""/>
    <tripinfo id="flow_route_129_duration_20250327_2020.3" depart="23.00" departLane="134133272_0" departPos="112.47" departSpeed="0.00" departDelay="0.50" arrival="100.00" arrivalLane="683079387#1_0" arrivalPos="6.76" arrivalSpeed="16.29" duration="77.00" routeLength="938.39" waitingTime="0.00" waitingCount="0" stopTime="0.00" timeLoss="20.07" rerouteNo="0" devices="tripinfo_flow_route_129_duration_20250327_2020.3" vType="car" speedFactor="1.10" vaporized=""/>
    <tripinfo id="flow_route_92_duration_20250327_2020.4" depart="24.00" departLane="133000063_0" departPos="122.85" departSpeed="0.00" departDelay="15.43" arrival="102.00" arrivalLane="186409193_0" arrivalPos="5.20" arrivalSpeed="13.55" duration="78.00" routeLength="274.21" waitingTime="39.00" waitingCount="1" stopTime="0.00" timeLoss="59.04" rerouteNo="0" devices="tripinfo_flow_route_92_duration_20250327_2020.4" vType="car" speedFactor="0.89" vaporized=""/>
    <tripinfo id="flow_route_129_duration_20250327_2020.2" depart="15.00" departLane="134133272_0" departPos="18.74" departSpeed="0.00" departDelay="0.00" arrival="102.00" arrivalLane="683079387#1_0" arrivalPos="5.79" arrivalSpeed="16.54" duration="87.00" routeLength="1031.16" waitingTime="0.00" waitingCount="0" stopTime="0.00" timeLoss="24.19" rerouteNo="0" devices="tripinfo_flow_route_129_duration_20250327_2020.2" vType="car" speedFactor="1.18" vaporized=""/>
    <tripinfo id="flow_route_144_duration_20250327_2020.9" depart="54.00" departLane="683079388#0_0" departPos="6.24" departSpeed="0.00" departDelay="4.91" arrival="105.00" arrivalLane="380585338#0_0" arrivalPos="5.47" arrivalSpeed="14.01" duration="51.00" routeLength="578.98" waitingTime="0.00" waitingCount="0" stopTime="0.00" timeLoss="10.89" rerouteNo="0" devices="tripinfo_flow_route_144_duration_20250327_2020.9" vType="car" speedFactor="0.87" vaporized=""/>
    <tripinfo id="flow_route_144_duration_20250327_2020.10" depart="55.00" departLane="683079388#0_0" departPos="23.73" departSpeed="0.00" departDelay="0.46" arrival="106.00" arrivalLane="380585338#0_0" arrivalPos="113.83" arrivalSpeed="16.50" duration="51.00" routeLength="669.84" waitingTime="0.00" waitingCount="0" stopTime="0.00" timeLoss="10.51" rerouteNo="0" devices="tripinfo_flow_route_144_duration_20250327_2020.10" vType="car" speedFactor="1.03" vaporized=""/>
    <tripinfo id="flow_route_93_duration_20250327_2020.8" depart="27.00" departLane="133000063_0" departPos="155.78" departSpeed="0.00" departDelay="17.21" arrival="109.00" arrivalLane="380585336_0" arrivalPos="291.42" arrivalSpeed="14.21" duration="82.00" routeLength="990.93" waitingTime="0.00" waitingCount="0" stopTime="0.00" timeLoss="14.13" rerouteNo="0" devices="tripinfo_flow_route_93_duration_20250327_2020.8" vType="car" speedFactor="0.87" vaporized=""/>
    <tripinfo id="flow_route_92_duration_20250327_2020.5" depart="29.00" departLane="133000063_0" departPos="147.53" departSpeed="0.00" departDelay="18.29" arrival="111.00" arrivalLane="186409193_0" arrivalPos="56.08" arrivalSpeed="15.28" duration="82.00" routeLength="300.41" waitingTime="34.00" waitingCount="1" stopTime="0.00" timeLoss="61.29" rerouteNo="0" devices="tripinfo_flow_route_92_duration_20250327_2020.5" vType="car" speedFactor="0.92" vaporized=""/>
    <tripinfo id="flow_route_102_duration_20250327_2020.1" depart="6.00" departLane="1342963997_0" departPos="123.01" departSpeed="0.00" departDelay="0.55" arrival="112.00" arrivalLane="380585336_1" arrivalPos="67.04" arrivalSpeed="15.12" duration="106.00" routeLength="654.98" waitingTime="36.00" waitingCount="1" stopTime="0.00" timeLoss="63.41" rerouteNo="0" devices="tripinfo_flow_route_102_duration_20250327_2020.1" vType="car" speedFactor="0.93" vaporized=""/>
    <tripinfo id="flow_route_103_duration_20250327_2020.2" depart="30.00" departLane="1342963997_0" departPos="143.28" departSpeed="0.00" departDelay="0.00" arrival="118.00" arrivalLane="683079387#1_0" arrivalPos="10.02" arrivalSpeed="16.46" duration="88.00" routeLength="442.94" waitingTime="33.00" waitingCount="2" stopTime="0.00" timeLoss="59.99" rerouteNo="0" devices="tripinfo_flow_route_103_duration_20250327_2020.2" vType="car" speedFactor="1.04" vaporized=""/>
    <tripinfo id="flow_route_91_duration_20250327_2020.1" depart="22.00" departLane="133000063_0" departPos="51.04" departSpeed="0.00" departDelay="13.43" arrival="120.00" arrivalLane="683079387#1_0" arrivalPos="8.29" arrivalSpeed="16.02" duration="98.00" routeLength="675.98" waitingTime="33.00" waitingCount="1" stopTime="0.00" timeLoss="56.36" rerouteNo="0" devices="tripinfo_flow_route_91_duration_20250327_2020.1" vType="car" speedFactor="0.97" vaporized=""/>
    <tripinfo id="flow_route_128_duration_20250327_2020.8" depart="55.00" departLane="134133272_0" departPos="4.44" departSpeed="0.00" departDelay="1.67" arrival="121.00" arrivalLane="380585338#0_0" arrivalPos="55.41" arrivalSpeed="10.45" duration="66.00" routeLength="549.17" waitingTime="9.00" waitingCount="1" stopTime="0.00" timeLoss="29.71" rerouteNo="0" devices="tripinfo_flow_route_128_duration_20250327_2020.8" vType="car" speedFactor="0.94" vaporized=""/>
    <tripinfo id="flow_route_92_duration_20250327_2020.6" depart="36.00" departLane="133000063_0" departPos="63.13" departSpeed="0.00" departDelay="23.15" arrival="124.00" arrivalLane="186409193_0" arrivalPos="1.63" arrivalSpeed="11.11" duration="88.00" routeLength="330.36" waitingTime="15.00" waitingCount="2" stopTime="0.00" timeLoss="67.14" rerouteNo="0" devices="tripinfo_flow_route_92_duration_20250327_2020.6" vType="car" speedFactor="1.18" vaporized=""/>
    <tripinfo id="flow_route_128_duration_20250327_2020.7" depart="50.00" departLane="134133272_0" departPos="80.77" departSpeed="0.00" departDelay="3.34" arrival="126.00" arrivalLane="380585338#0_0" arrivalPos="159.00" arrivalSpeed="15.19" duration="76.00" routeLength="576.43" waitingTime="18.00" waitingCount="1" stopTime="0.00" timeLoss="40.36" rerouteNo="0" devices="tripinfo_flow_route_128_duration_20250327_2020.7" vType="car" speedFactor="1.07" vaporized=""/>
    <tripinfo id="flow_route_92_duration_20250327_2020.7" depart="42.00" departLane="133000063_0" departPos="5.96" departSpeed="0.00" departDelay="27.01" arrival="128.00" arrivalLane="186409193_0" arrivalPos="18.34" arrivalSpeed="12.58" duration="86.00" routeLength="404.23" waitingTime="0.00" waitingCount="0" stopTime="0.00" timeLoss="60.78" rerouteNo="0" devices="tripinfo_flow_route_92_duration_20250327_2020.7" vType="car" speedFactor="0.99" vaporized=""/>
    <tripinfo id="flow_route_92_duration_20250327_2020.9" depart="61.00" departLane="133000063_0" departPos="41.44" departSpeed="0.00" departDelay="41.72" arrival="130.00" arrivalLane="186409193_0" arrivalPos="1.39" arrivalSpeed="12.12" duration="69.00" routeLength="351.81" waitingTime="0.00" waitingCount="0" stopTime="0.00" timeLoss="46.98" rerouteNo="0" devices="tripinfo_flow_route_92_duration_20250327_2020.9" vType="car" speedFactor="1.09" vaporized=""/>
    <tripinfo id="flow_route_92_duration_20250327_2020.8" depart="49.00" departLane="133000063_0" departPos="2.29" departSpeed="0.00" departDelay="31.86" arrival="131.00" arrivalLane="186409193_0" arrivalPos="29.96" arrivalSpeed="14.30" duration="82.00" routeLength="419.53" waitingTime="0.00" waitingCount="0" stopTime="0.00" timeLoss="55.38" rerouteNo="0" devices="tripinfo_flow_route_92_duration_20250327_2020.8" vType="car" speedFactor="1.09" vaporized=""/>
    <tripinfo id="flow_route_102_duration_20250327_2020.2" depart="11.00" departLane="1342963997_0" departPos="30.24" departSpeed="0.00" departDelay="0.09" arrival="134.00" arrivalLane="380585336_1" arrivalPos="129.69" arrivalSpeed="15.43" duration="123.00" routeLength="810.40" waitingTime="38.00" waitingCount="2" stopTime="0.00" timeLoss="71.85" rerouteNo="0" devices="tripinfo_flow_route_102_duration_20250327_2020.2" vType="car" speedFactor="0.95" vaporized=""/>
    <tripinfo id="flow_route_91_duration_20250327_2020.2" depart="48.00" departLane="133000063_0" departPos="142.65" departSpeed="0.00" departDelay="30.86" arrival="136.00" arrivalLane="683079387#1_1" arrivalPos="3.98" arrivalSpeed="15.73" duration="88.00" routeLength="580.06" waitingTime="22.00" waitingCount="2" stopTime="0.00" timeLoss="51.34" rerouteNo="0" devices="tripinfo_flow_route_91_duration_20250327_2020.2" vType="car" speedFactor="0.96" vaporized=""/>
    <tripinfo id="flow_route_92_duration_20250327_2020.10" depart="72.00" departLane="133000063_0" departPos="2.83" departSpeed="0.00" departDelay="50.58" arrival="138.00" arrivalLane="186409193_0" arrivalPos="51.05" arrivalSpeed="14.07" duration="66.00" routeLength="440.08" waitingTime="0.00" waitingCount="0" stopTime="0.00" timeLoss="34.02" rerouteNo="0" devices="tripinfo_flow_route_92_duration_20250327_2020.10" vType="car" speedFactor="0.85" vaporized=""/>
    <tripinfo id="flow_route_92_duration_20250327_2020.11" depart="78.00" departLane="133000063_0" departPos="1.35" departSpeed="0.00" departDelay="54.44" arrival="139.00" arrivalLane="186409193_0" arrivalPos="41.61" arrivalSpeed="14.92" duration="61.00" routeLength="432.12" waitingTime="0.00" waitingCount="0" stopTime="0.00" timeLoss="34.05" rerouteNo="0" devices="tripinfo_flow_route_92_duration_20250327_2020.11" vType="car" speedFactor="1.00" vaporized=""/>
    <tripinfo id="flow_route_102_duration_20250327_2020.3" depart="17.00" departLane="1342963997_0" departPos="75.99" departSpeed="0.00" departDelay="0.64" arrival="142.00" arrivalLane="380585336_1" arrivalPos="122.21" arrivalSpeed="14.92" duration="125.00" routeLength="757.17" waitingTime="29.00" waitingCount="4" stopTime="0.00" timeLoss="75.08" rerouteNo="0" devices="tripinfo_flow_route_102_duration_20250327_2020.3" vType="car" speedFactor="0.90" vaporized=""/>
    <tripinfo id="flow_route_93_duration_20250327_2020.6" depart="21.00" departLane="133000063_0" departPos="73.22" departSpeed="0.00" departDelay="13.66" arrival="144.00" arrivalLane="380585336_1" arrivalPos="94.02" arrivalSpeed="16.22" duration="123.00" routeLength="876.09" waitingTime="26.00" waitingCount="1" stopTime="0.00" timeLoss="69.45" rerouteNo="0" devices="tripinfo_flow_route_93_duration_20250327_2020.6" vType="car" speedFactor="1.02" vaporized=""/>
    <tripinfo id="flow_route_91_duration_20250327_2020.3" depart="91.00" departLane="133000063_0" departPos="45.01" departSpeed="0.00" departDelay="65.29" arrival="145.00" arrivalLane="683079387#1_1" arrivalPos="0.43" arrivalSpeed="16.59" duration="54.00" routeLength="674.15" waitingTime="0.00" waitingCount="0" stopTime="0.00" timeLoss="13.22" rerouteNo="0" devices="tripinfo_flow_route_91_duration_20250327_2020.3" vType="car" speedFactor="1.14" vaporized=""/>
    <tripinfo id="flow_route_93_duration_20250327_2020.5" depart="21.00" departLane="133000063_0" departPos="84.86" departSpeed="0.00" departDelay="14.88" arrival="147.00" arrivalLane="380585336_1" arrivalPos="52.83" arrivalSpeed="15.57" duration="126.00" routeLength="823.26" waitingTime="33.00" waitingCount="1" stopTime="0.00" timeLoss="72.79" rerouteNo="0" devices="tripinfo_flow_route_93_duration_20250327_2020.5" vType="car" speedFactor="0.94" vaporized=""/>
    <tripinfo id="flow_route_102_duration_20250327_2020.4" depart="22.00" departLane="1342963997_0" departPos="125.60" departSpeed="0.00" departDelay="0.18" arrival="147.00" arrivalLane="380585336_0" arrivalPos="241.71" arrivalSpeed="13.81" duration="125.00" routeLength="827.07" waitingTime="35.00" waitingCount="2" stopTime="0.00" timeLoss="67.31" rerouteNo="0" devices="tripinfo_flow_route_102_duration_20250327_2020.4" vType="car" speedFactor="0.85" vaporized=""/>
    <tripinfo id="flow_route_93_duration_20250327_2020.12" depart="42.00" departLane="133000063_0" departPos="129.11" departSpeed="0.00" departDelay="27.31" arrival="153.00" arrivalLane="380585336_2" arrivalPos="142.85" arrivalSpeed="16.26" duration="111.00" routeLength="869.03" waitingTime="23.00" waitingCount="1" stopTime="0.00" timeLoss="58.23" rerouteNo="0" devices="tripinfo_flow_route_93_duration_20250327_2020.12" vType="car" speedFactor="1.02" vaporized=""/>
    <tripinfo id="flow_route_93_duration_20250327_2020.9" depart="35.00" departLane="133000063_0" departPos="26.41" departSpeed="0.00" departDelay="23.98" arrival="154.00" arrivalLane="380585336_1" arrivalPos="77.26" arrivalSpeed="15.25" duration="119.00" routeLength="906.14" waitingTime="11.00" waitingCount="2" stopTime="0.00" timeLoss="60.85" rerouteNo="0" devices="tripinfo_flow_route_93_duration_20250327_2020.9" vType="car" speedFactor="0.93" vaporized=""/>
    <tripinfo id="flow_route_129_duration_20250327_2020.7" depart="55.00" departLane="134133272_0" departPos="295.71" departSpeed="0.00" departDelay="2.50" arrival="159.00" arrivalLane="683079387#1_0" arrivalPos="3.93" arrivalSpeed="16.19" duration="104.00" routeLength="752.33" waitingTime="35.00" waitingCount="1" stopTime="0.00" timeLoss="58.35" rerouteNo="0" devices="tripinfo_flow_route_129_duration_20250327_2020.7" vType="car" speedFactor="1.00" vaporized=""/>