<?xml version="1.0" encoding="UTF-8"?>

<!-- generated on 2025-05-06 21:08:02 by Eclipse SUMO sumo Version 1.20.0
<configuration xmlns:xsi="http://www.w3.org/2001/XMLSchema-instance" xsi:noNamespaceSchemaLocation="http://sumo.dlr.de/xsd/sumoConfiguration.xsd">

    <input>
        <net-file value="osm.net.xml"/>
        <route-files value="xml/route_rl_J7_2.rou.xml"/>
    </input>

    <output>
        <tripinfo-output value="xml/tripinfo_rl_J7_2.xml"/>
    </output>

    <traci_server>
        <remote-port value="56213"/>
    </traci_server>

</configuration>
-->

<tripinfos xmlns:xsi="http://www.w3.org/2001/XMLSchema-instance" xsi:noNamespaceSchemaLocation="http://sumo.dlr.de/xsd/tripinfo_file.xsd">
    <tripinfo id="flow_route_121_duration_20250327_2120.1" depart="11.00" departLane="799091563#0_0" departPos="366.26" departSpeed="0.00" departDelay="2.43" arrival="22.00" arrivalLane="134194079#0_0" arrivalPos="9.56" arrivalSpeed="6.74" duration="11.00" routeLength="32.47" waitingTime="0.00" waitingCount="0" stopTime="0.00" timeLoss="7.58" rerouteNo="0" devices="tripinfo_flow_route_121_duration_20250327_2120.1" vType="car" speedFactor="0.93" vaporized=""/>
    <tripinfo id="flow_route_127_duration_20250327_2120.1" depart="5.00" departLane="-138000461_0" departPos="187.58" departSpeed="0.00" departDelay="0.00" arrival="25.00" arrivalLane="189240000#0-AddedOnRampEdge_0" arrivalPos="88.65" arrivalSpeed="15.33" duration="20.00" routeLength="160.18" waitingTime="0.00" waitingCount="0" stopTime="0.00" timeLoss="9.73" rerouteNo="0" devices="tripinfo_flow_route_127_duration_20250327_2120.1" vType="car" speedFactor="1.05" vaporized=""/>
    <tripinfo id="flow_route_131_duration_20250327_2120.0" depart="0.00" departLane="714011134#0_0" departPos="6.35" departSpeed="0.00" departDelay="0.00" arrival="26.00" arrivalLane="134194079#0_1" arrivalPos="73.02" arrivalSpeed="14.32" duration="26.00" routeLength="232.63" waitingTime="0.00" waitingCount="0" stopTime="0.00" timeLoss="10.16" rerouteNo="0" devices="tripinfo_flow_route_131_duration_20250327_2120.0" vType="car" speedFactor="0.89" vaporized=""/>
    <tripinfo id="flow_route_127_duration_20250327_2120.0" depart="0.00" departLane="-138000461_0" departPos="55.90" departSpeed="0.00" departDelay="0.00" arrival="31.00" arrivalLane="189240000#0-AddedOnRampEdge_0" arrivalPos="70.17" arrivalSpeed="13.95" duration="31.00" routeLength="273.38" waitingTime="0.00" waitingCount="0" stopTime="0.00" timeLoss="13.25" rerouteNo="0" devices="tripinfo_flow_route_127_duration_20250327_2120.0" vType="car" speedFactor="1.05" vaporized=""/>
    <tripinfo id="flow_route_132_duration_20250327_2120.0" depart="0.00" departLane="714011134#0_0" departPos="92.28" departSpeed="0.00" departDelay="0.00" arrival="35.00" arrivalLane="189240000#0-AddedOnRampEdge_1" arrivalPos="51.48" arrivalSpeed="15.25" duration="35.00" routeLength="375.34" waitingTime="0.00" waitingCount="0" stopTime="0.00" timeLoss="10.03" rerouteNo="0" devices="tripinfo_flow_route_132_duration_20250327_2120.0" vType="car" speedFactor="0.94" vaporized=""/>
    <tripinfo id="flow_route_121_duration_20250327_2120.0" depart="1.00" departLane="799091563#0_0" departPos="259.58" departSpeed="0.00" departDelay="1.00" arrival="37.00" arrivalLane="134194079#0_0" arrivalPos="144.99" arrivalSpeed="15.71" duration="36.00" routeLength="274.57" waitingTime="0.00" waitingCount="0" stopTime="0.00" timeLoss="17.47" rerouteNo="0" devices="tripinfo_flow_route_121_duration_20250327_2120.0" vType="car" speedFactor="1.08" vaporized=""/>
    <tripinfo id="flow_route_116_duration_20250327_2120.0" depart="0.00" departLane="177211987#1_0" departPos="0.88" departSpeed="0.00" departDelay="0.00" arrival="40.00" arrivalLane="688883939#0_0" arrivalPos="93.94" arrivalSpeed="16.55" duration="40.00" routeLength="448.08" waitingTime="0.00" waitingCount="0" stopTime="0.00" timeLoss="12.33" rerouteNo="0" devices="tripinfo_flow_route_116_duration_20250327_2120.0" vType="car" speedFactor="1.06" vaporized=""/>
    <tripinfo id="flow_route_132_duration_20250327_2120.3" depart="9.00" departLane="714011134#0_0" departPos="100.82" departSpeed="0.00" departDelay="0.00" arrival="42.00" arrivalLane="189240000#0-AddedOnRampEdge_1" arrivalPos="28.49" arrivalSpeed="14.30" duration="33.00" routeLength="343.81" waitingTime="0.00" waitingCount="0" stopTime="0.00" timeLoss="9.48" rerouteNo="0" devices="tripinfo_flow_route_132_duration_20250327_2120.3" vType="car" speedFactor="0.88" vaporized=""/>
    <tripinfo id="flow_route_132_duration_20250327_2120.2" depart="6.00" departLane="714011134#0_0" departPos="57.37" departSpeed="0.00" departDelay="0.00" arrival="43.00" arrivalLane="189240000#0-AddedOnRampEdge_2" arrivalPos="37.44" arrivalSpeed="16.11" duration="37.00" routeLength="396.22" waitingTime="0.00" waitingCount="0" stopTime="0.00" timeLoss="12.84" rerouteNo="0" devices="tripinfo_flow_route_132_duration_20250327_2120.2" vType="car" speedFactor="1.12" vaporized=""/>
    <tripinfo id="flow_route_132_duration_20250327_2120.1" depart="3.00" departLane="714011134#0_0" departPos="32.36" departSpeed="0.00" departDelay="0.00" arrival="45.00" arrivalLane="189240000#0-AddedOnRampEdge_1" arrivalPos="48.43" arrivalSpeed="16.47" duration="42.00" routeLength="432.21" waitingTime="0.00" waitingCount="0" stopTime="0.00" timeLoss="15.88" rerouteNo="0" devices="tripinfo_flow_route_132_duration_20250327_2120.1" vType="car" speedFactor="1.09" vaporized=""/>
    <tripinfo id="flow_route_127_duration_20250327_2120.3" depart="15.00" departLane="-138000461_0" departPos="65.04" departSpeed="0.00" departDelay="0.00" arrival="45.00" arrivalLane="189240000#0-AddedOnRampEdge_0" arrivalPos="56.29" arrivalSpeed="12.84" duration="30.00" routeLength="250.36" waitingTime="0.00" waitingCount="0" stopTime="0.00" timeLoss="13.35" rerouteNo="0" devices="tripinfo_flow_route_127_duration_20250327_2120.3" vType="car" speedFactor="0.97" vaporized=""/>
    <tripinfo id="flow_route_127_duration_20250327_2120.2" depart="10.00" departLane="-138000461_0" departPos="26.50" departSpeed="0.00" departDelay="0.00" arrival="48.00" arrivalLane="189240000#0-AddedOnRampEdge_0" arrivalPos="64.68" arrivalSpeed="13.45" duration="38.00" routeLength="297.29" waitingTime="0.00" waitingCount="0" stopTime="0.00" timeLoss="18.36" rerouteNo="0" devices="tripinfo_flow_route_127_duration_20250327_2120.2" vType="car" speedFactor="0.94" vaporized=""/>
    <tripinfo id="flow_route_126_duration_20250327_2120.0" depart="0.00" departLane="-138000461_0" departPos="119.67" departSpeed="0.00" departDelay="0.00" arrival="52.00" arrivalLane="138000492#0_1" arrivalPos="18.35" arrivalSpeed="13.77" duration="52.00" routeLength="582.25" waitingTime="0.00" waitingCount="0" stopTime="0.00" timeLoss="9.69" rerouteNo="0" devices="tripinfo_flow_route_126_duration_20250327_2120.0" vType="car" speedFactor="0.83" vaporized=""/>
    <tripinfo id="flow_route_132_duration_20250327_2120.7" depart="21.00" departLane="714011134#0_0" departPos="104.58" departSpeed="0.00" departDelay="0.00" arrival="53.00" arrivalLane="189240000#0-AddedOnRampEdge_1" arrivalPos="16.90" arrivalSpeed="15.24" duration="32.00" routeLength="328.46" waitingTime="0.00" waitingCount="0" stopTime="0.00" timeLoss="10.30" rerouteNo="0" devices="tripinfo_flow_route_132_duration_20250327_2120.7" vType="car" speedFactor="0.93" vaporized=""/>
    <tripinfo id="flow_route_127_duration_20250327_2120.6" depart="34.00" departLane="-138000461_0" departPos="147.82" departSpeed="0.00" departDelay="4.00" arrival="55.00" arrivalLane="189240000#0-AddedOnRampEdge_0" arrivalPos="34.48" arrivalSpeed="11.78" duration="21.00" routeLength="145.76" waitingTime="0.00" waitingCount="0" stopTime="0.00" timeLoss="11.56" rerouteNo="0" devices="tripinfo_flow_route_127_duration_20250327_2120.6" vType="car" speedFactor="1.03" vaporized=""/>
    <tripinfo id="flow_route_132_duration_20250327_2120.4" depart="16.00" departLane="714011134#0_0" departPos="51.91" departSpeed="0.00" departDelay="4.00" arrival="56.00" arrivalLane="189240000#0-AddedOnRampEdge_2" arrivalPos="21.07" arrivalSpeed="16.57" duration="40.00" routeLength="385.29" waitingTime="0.00" waitingCount="0" stopTime="0.00" timeLoss="16.54" rerouteNo="0" devices="tripinfo_flow_route_132_duration_20250327_2120.4" vType="car" speedFactor="1.16" vaporized=""/>
    <tripinfo id="flow_route_127_duration_20250327_2120.5" depart="25.00" departLane="-138000461_0" departPos="16.91" departSpeed="0.00" departDelay="0.00" arrival="57.00" arrivalLane="189240000#0-AddedOnRampEdge_0" arrivalPos="17.06" arrivalSpeed="10.08" duration="32.00" routeLength="259.26" waitingTime="0.00" waitingCount="0" stopTime="0.00" timeLoss="15.51" rerouteNo="0" devices="tripinfo_flow_route_127_duration_20250327_2120.5" vType="car" speedFactor="1.01" vaporized=""/>
    <tripinfo id="flow_route_132_duration_20250327_2120.5" depart="16.00" departLane="714011134#0_0" departPos="61.13" departSpeed="0.00" departDelay="1.00" arrival="58.00" arrivalLane="189240000#0-AddedOnRampEdge_1" arrivalPos="65.29" arrivalSpeed="14.35" duration="42.00" routeLength="420.30" waitingTime="0.00" waitingCount="0" stopTime="0.00" timeLoss="13.64" rerouteNo="0" devices="tripinfo_flow_route_132_duration_20250327_2120.5" vType="car" speedFactor="0.89" vaporized=""/>
    <tripinfo id="flow_route_127_duration_20250327_2120.4" depart="20.00" departLane="-138000461_0" departPos="14.15" departSpeed="0.00" departDelay="0.00" arrival="58.00" arrivalLane="189240000#0-AddedOnRampEdge_0" arrivalPos="51.62" arrivalSpeed="13.64" duration="38.00" routeLength="296.58" waitingTime="0.00" waitingCount="0" stopTime="0.00" timeLoss="19.15" rerouteNo="0" devices="tripinfo_flow_route_127_duration_20250327_2120.4" vType="car" speedFactor="1.13" vaporized=""/>
    <tripinfo id="flow_route_133_duration_20250327_2120.0" depart="0.00" departLane="714011134#0_0" departPos="33.93" departSpeed="0.00" departDelay="0.00" arrival="59.00" arrivalLane="138000492#0_0" arrivalPos="313.58" arrivalSpeed="14.27" duration="59.00" routeLength="604.48" waitingTime="0.00" waitingCount="0" stopTime="0.00" timeLoss="15.63" rerouteNo="0" devices="tripinfo_flow_route_133_duration_20250327_2120.0" vType="car" speedFactor="0.86" vaporized=""/>
    <tripinfo id="flow_route_117_duration_20250327_2120.1" depart="5.00" departLane="177211987#1_0" departPos="120.65" departSpeed="0.00" departDelay="0.72" arrival="60.00" arrivalLane="138000492#0_1" arrivalPos="266.59" arrivalSpeed="16.60" duration="55.00" routeLength="646.20" waitingTime="0.00" waitingCount="0" stopTime="0.00" timeLoss="15.09" rerouteNo="0" devices="tripinfo_flow_route_117_duration_20250327_2120.1" vType="car" speedFactor="1.03" vaporized=""/>
    <tripinfo id="flow_route_131_duration_20250327_2120.1" depart="30.00" departLane="714011134#0_0" departPos="97.48" departSpeed="0.00" departDelay="0.00" arrival="63.00" arrivalLane="134194079#0_0" arrivalPos="288.18" arrivalSpeed="15.73" duration="33.00" routeLength="356.67" waitingTime="0.00" waitingCount="0" stopTime="0.00" timeLoss="10.16" rerouteNo="0" devices="tripinfo_flow_route_131_duration_20250327_2120.1" vType="car" speedFactor="0.96" vaporized=""/>
    <tripinfo id="flow_route_132_duration_20250327_2120.6" depart="18.00" departLane="714011134#0_0" departPos="2.93" departSpeed="0.00" departDelay="0.00" arrival="64.00" arrivalLane="189240000#0-AddedOnRampEdge_1" arrivalPos="17.31" arrivalSpeed="14.88" duration="46.00" routeLength="430.52" waitingTime="0.00" waitingCount="0" stopTime="0.00" timeLoss="16.98" rerouteNo="0" devices="tripinfo_flow_route_132_duration_20250327_2120.6" vType="car" speedFactor="0.92" vaporized=""/>
    <tripinfo id="flow_route_132_duration_20250327_2120.10" depart="30.00" departLane="714011134#0_0" departPos="51.92" departSpeed="0.00" departDelay="0.00" arrival="64.00" arrivalLane="189240000#0-AddedOnRampEdge_2" arrivalPos="2.25" arrivalSpeed="16.22" duration="34.00" routeLength="366.47" waitingTime="0.00" waitingCount="0" stopTime="0.00" timeLoss="11.62" rerouteNo="0" devices="tripinfo_flow_route_132_duration_20250327_2120.10" vType="car" speedFactor="1.09" vaporized=""/>
    <tripinfo id="flow_route_117_duration_20250327_2120.0" depart="0.00" departLane="177211987#1_0" departPos="98.51" departSpeed="0.00" departDelay="0.00" arrival="67.00" arrivalLane="138000492#0_1" arrivalPos="299.85" arrivalSpeed="15.40" duration="67.00" routeLength="701.60" waitingTime="0.00" waitingCount="0" stopTime="0.00" timeLoss="21.03" rerouteNo="0" devices="tripinfo_flow_route_117_duration_20250327_2120.0" vType="car" speedFactor="0.94" vaporized=""/>
    <tripinfo id="flow_route_127_duration_20250327_2120.8" depart="40.00" departLane="-138000461_0" departPos="91.05" departSpeed="0.00" departDelay="0.00" arrival="69.00" arrivalLane="189240000#0-AddedOnRampEdge_0" arrivalPos="85.39" arrivalSpeed="15.83" duration="29.00" routeLength="253.44" waitingTime="0.00" waitingCount="0" stopTime="0.00" timeLoss="13.02" rerouteNo="0" devices="tripinfo_flow_route_127_duration_20250327_2120.8" vType="car" speedFactor="1.17" vaporized=""/>
    <tripinfo id="flow_route_132_duration_20250327_2120.9" depart="29.00" departLane="714011134#0_0" departPos="41.08" departSpeed="0.00" departDelay="2.00" arrival="70.00" arrivalLane="189240000#0-AddedOnRampEdge_1" arrivalPos="64.07" arrivalSpeed="16.59" duration="41.00" routeLength="439.14" waitingTime="0.00" waitingCount="0" stopTime="0.00" timeLoss="13.83" rerouteNo="0" devices="tripinfo_flow_route_132_duration_20250327_2120.9" vType="car" speedFactor="1.02" vaporized=""/>
    <tripinfo id="flow_route_132_duration_20250327_2120.8" depart="25.00" departLane="714011134#0_0" departPos="4.94" departSpeed="0.00" departDelay="1.00" arrival="71.00" arrivalLane="189240000#0-AddedOnRampEdge_1" arrivalPos="53.54" arrivalSpeed="16.23" duration="46.00" routeLength="464.75" waitingTime="0.00" waitingCount="0" stopTime="0.00" timeLoss="17.24" rerouteNo="0" devices="tripinfo_flow_route_132_duration_20250327_2120.8" vType="car" speedFactor="1.15" vaporized=""/>
    <tripinfo id="flow_route_127_duration_20250327_2120.7" depart="35.00" departLane="-138000461_0" departPos="29.83" departSpeed="0.00" departDelay="0.00" arrival="71.00" arrivalLane="189240000#0-AddedOnRampEdge_0" arrivalPos="73.73" arrivalSpeed="14.26" duration="36.00" routeLength="303.01" waitingTime="0.00" waitingCount="0" stopTime="0.00" timeLoss="17.09" rerouteNo="0" devices="tripinfo_flow_route_127_duration_20250327_2120.7" vType="car" speedFactor="1.00" vaporized=""/>
    <tripinfo id="flow_route_132_duration_20250327_2120.11" depart="34.00" departLane="714011134#0_0" departPos="10.70" departSpeed="0.00" departDelay="1.00" arrival="73.00" arrivalLane="189240000#0-AddedOnRampEdge_1" arrivalPos="54.16" arrivalSpeed="16.32" duration="39.00" routeLength="459.60" waitingTime="0.00" waitingCount="0" stopTime="0.00" timeLoss="10.53" rerouteNo="0" devices="tripinfo_flow_route_132_duration_20250327_2120.11" vType="car" speedFactor="1.04" vaporized=""/>
    <tripinfo id="flow_route_127_duration_20250327_2120.10" depart="50.00" departLane="-138000461_0" departPos="103.01" departSpeed="0.00" departDelay="0.00" arrival="74.00" arrivalLane="189240000#0-AddedOnRampEdge_0" arrivalPos="37.15" arrivalSpeed="13.16" duration="24.00" routeLength="193.25" waitingTime="0.00" waitingCount="0" stopTime="0.00" timeLoss="11.81" rerouteNo="0" devices="tripinfo_flow_route_127_duration_20250327_2120.10" vType="car" speedFactor="1.12" vaporized=""/>
    <tripinfo id="flow_route_127_duration_20250327_2120.9" depart="46.00" departLane="-138000461_0" departPos="0.18" departSpeed="0.00" departDelay="1.00" arrival="83.00" arrivalLane="189240000#0-AddedOnRampEdge_0" arrivalPos="92.61" arrivalSpeed="13.73" duration="37.00" routeLength="351.54" waitingTime="0.00" waitingCount="0" stopTime="0.00" timeLoss="13.19" rerouteNo="0" devices="tripinfo_flow_route_127_duration_20250327_2120.9" vType="car" speedFactor="0.90" vaporized=""/>
    <tripinfo id="flow_route_132_duration_20250327_2120.16" depart="49.00" departLane="714011134#0_0" departPos="89.72" departSpeed="0.00" departDelay="1.00" arrival="83.00" arrivalLane="189240000#0-AddedOnRampEdge_1" arrivalPos="45.92" arrivalSpeed="15.84" duration="34.00" routeLength="372.34" waitingTime="0.00" waitingCount="0" stopTime="0.00" timeLoss="10.94" rerouteNo="0" devices="tripinfo_flow_route_132_duration_20250327_2120.16" vType="car" speedFactor="0.97" vaporized=""/>
    <tripinfo id="flow_route_132_duration_20250327_2120.14" depart="47.00" departLane="714011134#0_0" departPos="69.41" departSpeed="0.00" departDelay="5.00" arrival="84.00" arrivalLane="189240000#0-AddedOnRampEdge_2" arrivalPos="35.82" arrivalSpeed="16.18" duration="37.00" routeLength="382.55" waitingTime="0.00" waitingCount="0" stopTime="0.00" timeLoss="13.73" rerouteNo="0" devices="tripinfo_flow_route_132_duration_20250327_2120.14" vType="car" speedFactor="1.02" vaporized=""/>
    <tripinfo id="flow_route_127_duration_20250327_2120.11" depart="55.00" departLane="-138000461_0" departPos="24.23" departSpeed="0.00" departDelay="0.00" arrival="84.00" arrivalLane="189240000#0-AddedOnRampEdge_0" arrivalPos="12.23" arrivalSpeed="9.22" duration="29.00" routeLength="247.10" waitingTime="0.00" waitingCount="0" stopTime="0.00" timeLoss="11.73" rerouteNo="0" devices="tripinfo_flow_route_127_duration_20250327_2120.11" vType="car" speedFactor="0.91" vaporized=""/>
    <tripinfo id="flow_route_122_duration_20250327_2120.2" depart="20.00" departLane="799091563#0_0" departPos="352.42" departSpeed="0.00" departDelay="0.00" arrival="89.00" arrivalLane="688883939#0_2" arrivalPos="29.40" arrivalSpeed="11.49" duration="69.00" routeLength="115.62" waitingTime="44.00" waitingCount="1" stopTime="0.00" timeLoss="61.43" rerouteNo="0" devices="tripinfo_flow_route_122_duration_20250327_2120.2" vType="car" speedFactor="0.95" vaporized=""/>
    <tripinfo id="flow_route_132_duration_20250327_2120.13" depart="45.00" departLane="714011134#0_0" departPos="50.87" departSpeed="0.00" departDelay="6.00" arrival="90.00" arrivalLane="189240000#0-AddedOnRampEdge_1" arrivalPos="63.76" arrivalSpeed="13.88" duration="45.00" routeLength="429.03" waitingTime="0.00" waitingCount="0" stopTime="0.00" timeLoss="14.14" rerouteNo="0" devices="tripinfo_flow_route_132_duration_20250327_2120.13" vType="car" speedFactor="0.85" vaporized=""/>
    <tripinfo id="flow_route_132_duration_20250327_2120.15" depart="49.00" departLane="714011134#0_0" departPos="12.05" departSpeed="0.00" departDelay="4.00" arrival="92.00" arrivalLane="189240000#0-AddedOnRampEdge_2" arrivalPos="83.76" arrivalSpeed="16.32" duration="43.00" routeLength="487.85" waitingTime="0.00" waitingCount="0" stopTime="0.00" timeLoss="13.25" rerouteNo="0" devices="tripinfo_flow_route_132_duration_20250327_2120.15" vType="car" speedFactor="1.14" vaporized=""/>
    <tripinfo id="flow_route_122_duration_20250327_2120.0" depart="1.00" departLane="799091563#0_0" departPos="17.54" departSpeed="0.00" departDelay="1.00" arrival="93.00" arrivalLane="688883939#0_2" arrivalPos="62.20" arrivalSpeed="13.65" duration="92.00" routeLength="483.30" waitingTime="41.00" waitingCount="1" stopTime="0.00" timeLoss="62.85" rerouteNo="0" devices="tripinfo_flow_route_122_duration_20250327_2120.0" vType="car" speedFactor="1.03" vaporized=""/>
    <tripinfo id="flow_route_122_duration_20250327_2120.1" depart="11.00" departLane="799091563#0_0" departPos="100.27" departSpeed="0.00" departDelay="1.00" arrival="93.00" arrivalLane="688883939#0_2" arrivalPos="3.14" arrivalSpeed="11.39" duration="82.00" routeLength="341.51" waitingTime="35.00" waitingCount="1" stopTime="0.00" timeLoss="59.83" rerouteNo="0" devices="tripinfo_flow_route_122_duration_20250327_2120.1" vType="car" speedFactor="0.94" vaporized=""/>
    <tripinfo id="flow_route_132_duration_20250327_2120.12" depart="38.00" departLane="714011134#0_0" departPos="4.49" departSpeed="0.00" departDelay="2.00" arrival="93.00" arrivalLane="189240000#0-AddedOnRampEdge_1" arrivalPos="83.27" arrivalSpeed="14.53" duration="55.00" routeLength="494.92" waitingTime="0.00" waitingCount="0" stopTime="0.00" timeLoss="21.33" rerouteNo="0" devices="tripinfo_flow_route_132_duration_20250327_2120.12" vType="car" speedFactor="0.90" vaporized=""/>
    <tripinfo id="flow_route_122_duration_20250327_2120.3" depart="30.00" departLane="799091563#0_0" departPos="332.46" departSpeed="0.00" departDelay="0.00" arrival="95.00" arrivalLane="688883939#0_2" arrivalPos="43.98" arrivalSpeed="13.66" duration="65.00" routeLength="150.16" waitingTime="36.00" waitingCount="1" stopTime="0.00" timeLoss="54.13" rerouteNo="0" devices="tripinfo_flow_route_122_duration_20250327_2120.3" vType="car" speedFactor="0.90" vaporized=""/>
    <tripinfo id="flow_route_122_duration_20250327_2120.4" depart="42.00" departLane="799091563#0_0" departPos="225.06" departSpeed="0.00" departDelay="2.00" arrival="97.00" arrivalLane="688883939#0_2" arrivalPos="16.19" arrivalSpeed="12.04" duration="55.00" routeLength="229.78" waitingTime="17.00" waitingCount="1" stopTime="0.00" timeLoss="38.61" rerouteNo="0" devices="tripinfo_flow_route_122_duration_20250327_2120.4" vType="car" speedFactor="0.85" vaporized=""/>
    <tripinfo id="flow_route_121_duration_20250327_2120.5" depart="45.00" departLane="799091563#0_0" departPos="63.60" departSpeed="0.00" departDelay="2.15" arrival="98.00" arrivalLane="134194079#0_0" arrivalPos="30.35" arrivalSpeed="8.04" duration="53.00" routeLength="355.91" waitingTime="0.00" waitingCount="0" stopTime="0.00" timeLoss="30.22" rerouteNo="0" devices="tripinfo_flow_route_121_duration_20250327_2120.5" vType="car" speedFactor="1.00" vaporized=""/>
    <tripinfo id="flow_route_121_duration_20250327_2120.3" depart="26.00" departLane="799091563#0_0" departPos="80.64" departSpeed="0.00" departDelay="0.29" arrival="99.00" arrivalLane="134194079#0_0" arrivalPos="103.80" arrivalSpeed="12.94" duration="73.00" routeLength="412.32" waitingTime="19.00" waitingCount="1" stopTime="0.00" timeLoss="46.77" rerouteNo="0" devices="tripinfo_flow_route_121_duration_20250327_2120.3" vType="car" speedFactor="0.99" vaporized=""/>
    <tripinfo id="flow_route_121_duration_20250327_2120.4" depart="35.00" departLane="799091563#0_0" departPos="270.85" departSpeed="0.00" departDelay="0.72" arrival="100.00" arrivalLane="134194079#0_0" arrivalPos="195.25" arrivalSpeed="16.10" duration="65.00" routeLength="313.56" waitingTime="22.00" waitingCount="1" stopTime="0.00" timeLoss="44.40" rerouteNo="0" devices="tripinfo_flow_route_121_duration_20250327_2120.4" vType="car" speedFactor="1.09" vaporized=""/>
    <tripinfo id="flow_route_120_duration_20250327_2120.0" depart="0.00" departLane="799091563#0_0" departPos="177.01" departSpeed="0.00" departDelay="0.00" arrival="102.00" arrivalLane="138000492#0_0" arrivalPos="19.14" arrivalSpeed="11.57" duration="102.00" routeLength="440.29" waitingTime="45.00" waitingCount="2" stopTime="0.00" timeLoss="75.29" rerouteNo="0" devices="tripinfo_flow_route_120_duration_20250327_2120.0" vType="car" speedFactor="1.01" vaporized=""/>
    <tripinfo id="flow_route_121_duration_20250327_2120.6" depart="53.00" departLane="799091563#0_0" departPos="139.17" departSpeed="0.00" departDelay="1.57" arrival="102.00" arrivalLane="134194079#0_0" arrivalPos="98.19" arrivalSpeed="12.93" duration="49.00" routeLength="348.18" waitingTime="0.00" waitingCount="0" stopTime="0.00" timeLoss="24.97" rerouteNo="0" devices="tripinfo_flow_route_121_duration_20250327_2120.6" vType="car" speedFactor="0.94" vaporized=""/>
    <tripinfo id="flow_route_122_duration_20250327_2120.5" depart="53.00" departLane="799091563#0_0" departPos="122.81" departSpeed="0.00" departDelay="3.00" arrival="104.00" arrivalLane="688883939#0_2" arrivalPos="86.38" arrivalSpeed="15.45" duration="51.00" routeLength="402.21" waitingTime="0.00" waitingCount="0" stopTime="0.00" timeLoss="26.54" rerouteNo="0" devices="tripinfo_flow_route_122_duration_20250327_2120.5" vType="car" speedFactor="1.08" vaporized=""/>
    <tripinfo id="flow_route_121_duration_20250327_2120.2" depart="18.00" departLane="799091563#0_0" departPos="57.65" departSpeed="0.00" departDelay="0.86" arrival="110.00" arrivalLane="134194079#0_0" arrivalPos="281.72" arrivalSpeed="14.22" duration="92.00" routeLength="613.22" waitingTime="22.00" waitingCount="1" stopTime="0.00" timeLoss="47.76" rerouteNo="0" devices="tripinfo_flow_route_121_duration_20250327_2120.2" vType="car" speedFactor="0.87" vaporized=""/>
    <tripinfo id="flow_route_120_duration_20250327_2120.3" depart="46.00" departLane="799091563#0_0" departPos="128.67" departSpeed="0.00" departDelay="1.00" arrival="111.00" arrivalLane="138000492#0_1" arrivalPos="6.15" arrivalSpeed="10.85" duration="65.00" routeLength="475.64" waitingTime="3.00" waitingCount="1" stopTime="0.00" timeLoss="36.06" rerouteNo="0" devices="tripinfo_flow_route_120_duration_20250327_2120.3" vType="car" speedFactor="1.00" vaporized=""/>
    <tripinfo id="flow_route_120_duration_20250327_2120.1" depart="15.00" departLane="799091563#0_0" departPos="364.51" departSpeed="0.00" departDelay="0.00" arrival="128.00" arrivalLane="138000492#0_0" arrivalPos="301.14" arrivalSpeed="16.40" duration="113.00" routeLength="534.79" waitingTime="53.00" waitingCount="2" stopTime="0.00" timeLoss="80.15" rerouteNo="0" devices="tripinfo_flow_route_120_duration_20250327_2120.1" vType="car" speedFactor="1.01" vaporized=""/>
    <tripinfo id="flow_route_120_duration_20250327_2120.2" depart="30.00" departLane="799091563#0_0" departPos="39.76" departSpeed="0.00" departDelay="0.00" arrival="128.00" arrivalLane="138000492#0_2" arrivalPos="246.20" arrivalSpeed="16.30" duration="98.00" routeLength="804.59" waitingTime="12.00" waitingCount="1" stopTime="0.00" timeLoss="48.87" rerouteNo="0" devices="tripinfo_flow_route_120_duration_20250327_2120.2" vType="car" speedFactor="1.10" vaporized=""/>
    <tripinfo id="flow_route_116_duration_20250327_2120.1" depart="35.00" departLane="177211987#1_0" departPos="41.16" departSpeed="0.00" departDelay="5.00" arrival="166.00" arrivalLane="688883939#0_1" arrivalPos="54.07" arrivalSpeed="12.70" duration="131.00" routeLength="367.93" waitingTime="84.00" waitingCount="1" stopTime="0.00" timeLoss="107.96" rerouteNo="0" devices="tripinfo_flow_route_116_duration_20250327_2120.1" vType="car" speedFactor="0.97" vaporized=""/>
    <tripinfo id="flow_route_132_duration_20250327_2120.19" depart="60.00" departLane="714011134#0_0" departPos="49.09" departSpeed="0.00" departDelay="3.00" arrival="179.00" arrivalLane="189240000#0-AddedOnRampEdge_1" arrivalPos="18.44" arrivalSpeed="16.30" duration="119.00" routeLength="385.49" waitingTime="75.00" waitingCount="1" stopTime="0.00" timeLoss="94.92" rerouteNo="0" devices="tripinfo_flow_route_132_duration_20250327_2120.19" vType="car" speedFactor="1.04" vaporized=""/>
    <tripinfo id="flow_route_117_duration_20250327_2120.4" depart="18.00" departLane="177211987#1_0" departPos="93.92" departSpeed="0.00" departDelay="0.86" arrival="180.00" arrivalLane="138000492#0_1" arrivalPos="70.87" arrivalSpeed="13.27" duration="162.00" routeLength="477.21" waitingTime="105.00" waitingCount="1" stopTime="0.00" timeLoss="126.66" rerouteNo="0" devices="tripinfo_flow_route_117_duration_20250327_2120.4" vType="car" speedFactor="0.83" vaporized=""/>
    <tripinfo id="flow_route_117_duration_20250327_2120.2" depart="12.00" departLane="177211987#1_0" departPos="24.58" departSpeed="0.00" departDelay="3.43" arrival="185.00" arrivalLane="138000492#0_2" arrivalPos="99.62" arrivalSpeed="14.84" duration="173.00" routeLength="575.30" waitingTime="104.00" waitingCount="1" stopTime="0.00" timeLoss="137.39" rerouteNo="0" devices="tripinfo_flow_route_117_duration_20250327_2120.2" vType="car" speedFactor="0.99" vaporized=""/>
    <tripinfo id="flow_route_132_duration_20250327_2120.18" depart="58.00" departLane="714011134#0_0" departPos="33.81" departSpeed="0.00" departDelay="4.00" arrival="186.00" arrivalLane="189240000#0-AddedOnRampEdge_1" arrivalPos="75.69" arrivalSpeed="14.68" duration="128.00" routeLength="458.02" waitingTime="73.00" waitingCount="1" stopTime="0.00" timeLoss="96.76" rerouteNo="0" devices="tripinfo_flow_route_132_duration_20250327_2120.18" vType="car" speedFactor="0.88" vaporized=""/>
    <tripinfo id="flow_route_117_duration_20250327_2120.3" depart="13.00" departLane="177211987#1_0" departPos="13.03" departSpeed="0.00" departDelay="0.15" arrival="188.00" arrivalLane="138000492#0_1" arrivalPos="101.59" arrivalSpeed="14.46" duration="175.00" routeLength="588.82" waitingTime="103.00" waitingCount="1" stopTime="0.00" timeLoss="138.45" rerouteNo="0" devices="tripinfo_flow_route_117_duration_20250327_2120.3" vType="car" speedFactor="1.02" vaporized=""/>
    <tripinfo id="flow_route_132_duration_20250327_2120.17" depart="54.00" departLane="714011134#0_0" departPos="16.61" departSpeed="0.00" departDelay="3.00" arrival="188.00" arrivalLane="189240000#0-AddedOnRampEdge_2" arrivalPos="88.38" arrivalSpeed="16.20" duration="134.00" routeLength="487.91" waitingTime="71.00" waitingCount="1" stopTime="0.00" timeLoss="103.71" rerouteNo="0" devices="tripinfo_flow_route_132_duration_20250327_2120.17" vType="car" speedFactor="1.02" vaporized=""/>
    <tripinfo id="flow_route_117_duration_20250327_2120.11" depart="48.00" departLane="177211987#1_0" departPos="60.28" departSpeed="0.00" departDelay="0.87" arrival="190.00" arrivalLane="138000492#0_1" arrivalPos="4.91" arrivalSpeed="10.36" duration="142.00" routeLength="444.89" waitingTime="87.00" waitingCount="1" stopTime="0.00" timeLoss="114.76" rerouteNo="0" devices="tripinfo_flow_route_117_duration_20250327_2120.11" vType="car" speedFactor="1.02" vaporized=""/>