<?xml version="1.0" encoding="UTF-8"?>

<!-- generated on 2025-05-06 21:08:23 by Eclipse SUMO sumo Version 1.20.0
<configuration xmlns:xsi="http://www.w3.org/2001/XMLSchema-instance" xsi:noNamespaceSchemaLocation="http://sumo.dlr.de/xsd/sumoConfiguration.xsd">

    <input>
        <net-file value="osm.net.xml"/>
        <route-files value="xml/route_rl_632031937_4.rou.xml"/>
    </input>

    <output>
        <tripinfo-output value="xml/tripinfo_rl_632031937_4.xml"/>
    </output>

    <traci_server>
        <remote-port value="53669"/>
    </traci_server>

</configuration>
-->

<tripinfos xmlns:xsi="http://www.w3.org/2001/XMLSchema-instance" xsi:noNamespaceSchemaLocation="http://sumo.dlr.de/xsd/tripinfo_file.xsd">
    <tripinfo id="flow_route_66_duration_20250327_1910.0" depart="0.00" departLane="-138002002#2_0" departPos="85.87" departSpeed="0.00" departDelay="0.00" arrival="20.00" arrivalLane="-138002006#3_1" arrivalPos="3.87" arrivalSpeed="12.41" duration="20.00" routeLength="121.39" waitingTime="0.00" waitingCount="0" stopTime="0.00" timeLoss="10.96" rerouteNo="0" devices="tripinfo_flow_route_66_duration_20250327_1910.0" vType="car" speedFactor="0.83" vaporized=""/>
    <tripinfo id="flow_route_53_duration_20250327_1910.0" depart="0.00" departLane="138002006#0_0" departPos="48.40" departSpeed="0.00" departDelay="0.00" arrival="22.00" arrivalLane="1369578052#0_0" arrivalPos="131.33" arrivalSpeed="15.15" duration="22.00" routeLength="190.85" waitingTime="0.00" waitingCount="0" stopTime="0.00" timeLoss="9.61" rerouteNo="0" devices="tripinfo_flow_route_53_duration_20250327_1910.0" vType="car" speedFactor="0.94" vaporized=""/>
    <tripinfo id="flow_route_53_duration_20250327_1910.1" depart="2.00" departLane="138002006#0_0" departPos="5.35" departSpeed="0.00" departDelay="0.24" arrival="23.00" arrivalLane="1369578052#0_1" arrivalPos="48.76" arrivalSpeed="14.32" duration="21.00" routeLength="151.33" waitingTime="0.00" waitingCount="0" stopTime="0.00" timeLoss="10.18" rerouteNo="0" devices="tripinfo_flow_route_53_duration_20250327_1910.1" vType="car" speedFactor="0.89" vaporized=""/>
    <tripinfo id="flow_route_53_duration_20250327_1910.3" depart="6.00" departLane="138002006#0_0" departPos="56.23" departSpeed="0.00" departDelay="0.71" arrival="25.00" arrivalLane="1369578052#0_0" arrivalPos="94.56" arrivalSpeed="14.94" duration="19.00" routeLength="146.24" waitingTime="0.00" waitingCount="0" stopTime="0.00" timeLoss="10.05" rerouteNo="0" devices="tripinfo_flow_route_53_duration_20250327_1910.3" vType="car" speedFactor="1.09" vaporized=""/>
    <tripinfo id="flow_route_67_duration_20250327_1910.1" depart="6.00" departLane="-138002002#2_0" departPos="172.98" departSpeed="0.00" departDelay="0.55" arrival="27.00" arrivalLane="380351865#0_0" arrivalPos="5.24" arrivalSpeed="11.06" duration="21.00" routeLength="165.31" waitingTime="0.00" waitingCount="0" stopTime="0.00" timeLoss="6.27" rerouteNo="0" devices="tripinfo_flow_route_67_duration_20250327_1910.1" vType="car" speedFactor="1.03" vaporized=""/>
    <tripinfo id="flow_route_52_duration_20250327_1910.0" depart="0.00" departLane="138002006#0_0" departPos="21.97" departSpeed="0.00" departDelay="0.00" arrival="30.00" arrivalLane="380351865#0_1" arrivalPos="15.21" arrivalSpeed="11.62" duration="30.00" routeLength="234.80" waitingTime="0.00" waitingCount="0" stopTime="0.00" timeLoss="10.57" rerouteNo="0" devices="tripinfo_flow_route_52_duration_20250327_1910.0" vType="car" speedFactor="1.06" vaporized=""/>
    <tripinfo id="flow_route_53_duration_20250327_1910.2" depart="4.00" departLane="138002006#0_0" departPos="28.58" departSpeed="0.00" departDelay="0.47" arrival="31.00" arrivalLane="1369578052#0_0" arrivalPos="161.40" arrivalSpeed="15.35" duration="27.00" routeLength="240.74" waitingTime="0.00" waitingCount="0" stopTime="0.00" timeLoss="11.36" rerouteNo="0" devices="tripinfo_flow_route_53_duration_20250327_1910.2" vType="car" speedFactor="0.94" vaporized=""/>
    <tripinfo id="flow_route_67_duration_20250327_1910.0" depart="1.00" departLane="-138002002#2_0" departPos="104.31" departSpeed="0.00" departDelay="1.00" arrival="32.00" arrivalLane="380351865#0_0" arrivalPos="12.69" arrivalSpeed="11.37" duration="31.00" routeLength="241.42" waitingTime="0.00" waitingCount="0" stopTime="0.00" timeLoss="10.91" rerouteNo="0" devices="tripinfo_flow_route_67_duration_20250327_1910.0" vType="car" speedFactor="1.05" vaporized=""/>
    <tripinfo id="flow_route_66_duration_20250327_1910.1" depart="10.00" departLane="-138002002#2_0" departPos="29.31" departSpeed="0.00" departDelay="0.00" arrival="33.00" arrivalLane="-138002006#3_1" arrivalPos="2.88" arrivalSpeed="15.41" duration="23.00" routeLength="176.96" waitingTime="0.00" waitingCount="0" stopTime="0.00" timeLoss="10.61" rerouteNo="0" devices="tripinfo_flow_route_66_duration_20250327_1910.1" vType="car" speedFactor="0.93" vaporized=""/>
    <tripinfo id="flow_route_53_duration_20250327_1910.5" depart="13.00" departLane="138002006#0_0" departPos="23.44" departSpeed="0.00" departDelay="4.18" arrival="34.00" arrivalLane="1369578052#0_1" arrivalPos="73.10" arrivalSpeed="14.80" duration="21.00" routeLength="157.58" waitingTime="0.00" waitingCount="0" stopTime="0.00" timeLoss="11.04" rerouteNo="0" devices="tripinfo_flow_route_53_duration_20250327_1910.5" vType="car" speedFactor="1.12" vaporized=""/>
    <tripinfo id="flow_route_53_duration_20250327_1910.8" depart="20.00" departLane="138002006#0_0" departPos="15.89" departSpeed="0.00" departDelay="5.89" arrival="37.00" arrivalLane="1369578052#0_1" arrivalPos="16.41" arrivalSpeed="12.49" duration="17.00" routeLength="108.44" waitingTime="0.00" waitingCount="0" stopTime="0.00" timeLoss="10.12" rerouteNo="0" devices="tripinfo_flow_route_53_duration_20250327_1910.8" vType="car" speedFactor="1.01" vaporized=""/>
    <tripinfo id="flow_route_53_duration_20250327_1910.4" depart="12.00" departLane="138002006#0_0" departPos="11.13" departSpeed="0.00" departDelay="4.94" arrival="40.00" arrivalLane="1369578052#0_1" arrivalPos="151.94" arrivalSpeed="16.56" duration="28.00" routeLength="248.73" waitingTime="0.00" waitingCount="0" stopTime="0.00" timeLoss="12.86" rerouteNo="0" devices="tripinfo_flow_route_53_duration_20250327_1910.4" vType="car" speedFactor="1.05" vaporized=""/>
    <tripinfo id="flow_route_52_duration_20250327_1910.1" depart="15.00" departLane="138002006#0_0" departPos="63.52" departSpeed="0.00" departDelay="3.00" arrival="40.00" arrivalLane="380351865#0_1" arrivalPos="2.21" arrivalSpeed="10.35" duration="25.00" routeLength="180.25" waitingTime="0.00" waitingCount="0" stopTime="0.00" timeLoss="7.29" rerouteNo="0" devices="tripinfo_flow_route_52_duration_20250327_1910.1" vType="car" speedFactor="0.94" vaporized=""/>
    <tripinfo id="flow_route_67_duration_20250327_1910.3" depart="17.00" departLane="-138002002#2_0" departPos="175.90" departSpeed="0.00" departDelay="0.64" arrival="42.00" arrivalLane="380351865#0_0" arrivalPos="9.90" arrivalSpeed="9.13" duration="25.00" routeLength="167.05" waitingTime="0.00" waitingCount="0" stopTime="0.00" timeLoss="5.83" rerouteNo="0" devices="tripinfo_flow_route_67_duration_20250327_1910.3" vType="car" speedFactor="0.83" vaporized=""/>
    <tripinfo id="flow_route_53_duration_20250327_1910.9" depart="20.00" departLane="138002006#0_0" departPos="88.08" departSpeed="0.00" departDelay="4.12" arrival="43.00" arrivalLane="1369578052#0_0" arrivalPos="176.95" arrivalSpeed="14.34" duration="23.00" routeLength="196.78" waitingTime="0.00" waitingCount="0" stopTime="0.00" timeLoss="9.63" rerouteNo="0" devices="tripinfo_flow_route_53_duration_20250327_1910.9" vType="car" speedFactor="0.89" vaporized=""/>
    <tripinfo id="flow_route_53_duration_20250327_1910.6" depart="14.00" departLane="138002006#0_0" departPos="50.74" departSpeed="0.00" departDelay="3.42" arrival="45.00" arrivalLane="1369578052#0_0" arrivalPos="176.33" arrivalSpeed="14.21" duration="31.00" routeLength="233.51" waitingTime="0.00" waitingCount="0" stopTime="0.00" timeLoss="14.77" rerouteNo="0" devices="tripinfo_flow_route_53_duration_20250327_1910.6" vType="car" speedFactor="0.88" vaporized=""/>
    <tripinfo id="flow_route_67_duration_20250327_1910.2" depart="11.00" departLane="-138002002#2_0" departPos="61.03" departSpeed="0.00" departDelay="0.09" arrival="45.00" arrivalLane="380351865#0_0" arrivalPos="0.51" arrivalSpeed="10.25" duration="34.00" routeLength="272.53" waitingTime="0.00" waitingCount="0" stopTime="0.00" timeLoss="11.35" rerouteNo="0" devices="tripinfo_flow_route_67_duration_20250327_1910.2" vType="car" speedFactor="0.94" vaporized=""/>
    <tripinfo id="flow_route_53_duration_20250327_1910.10" depart="23.00" departLane="138002006#0_0" departPos="31.23" departSpeed="0.00" departDelay="5.36" arrival="45.00" arrivalLane="1369578052#0_1" arrivalPos="33.80" arrivalSpeed="12.15" duration="22.00" routeLength="110.48" waitingTime="0.00" waitingCount="0" stopTime="0.00" timeLoss="13.87" rerouteNo="0" devices="tripinfo_flow_route_53_duration_20250327_1910.10" vType="car" speedFactor="0.87" vaporized=""/>
    <tripinfo id="flow_route_53_duration_20250327_1910.12" depart="28.00" departLane="138002006#0_0" departPos="55.50" departSpeed="0.00" departDelay="6.83" arrival="48.00" arrivalLane="1369578052#0_0" arrivalPos="38.19" arrivalSpeed="10.44" duration="20.00" routeLength="90.61" waitingTime="0.00" waitingCount="0" stopTime="0.00" timeLoss="13.82" rerouteNo="0" devices="tripinfo_flow_route_53_duration_20250327_1910.12" vType="car" speedFactor="0.93" vaporized=""/>
    <tripinfo id="flow_route_53_duration_20250327_1910.13" depart="28.00" departLane="138002006#0_0" departPos="82.10" departSpeed="0.00" departDelay="5.07" arrival="49.00" arrivalLane="1369578052#0_0" arrivalPos="133.06" arrivalSpeed="15.66" duration="21.00" routeLength="158.88" waitingTime="0.00" waitingCount="0" stopTime="0.00" timeLoss="10.68" rerouteNo="0" devices="tripinfo_flow_route_53_duration_20250327_1910.13" vType="car" speedFactor="1.15" vaporized=""/>
    <tripinfo id="flow_route_53_duration_20250327_1910.14" depart="33.00" departLane="138002006#0_0" departPos="78.30" departSpeed="0.00" departDelay="8.30" arrival="50.00" arrivalLane="1369578052#0_0" arrivalPos="94.53" arrivalSpeed="13.87" duration="17.00" routeLength="124.15" waitingTime="0.00" waitingCount="0" stopTime="0.00" timeLoss="9.28" rerouteNo="0" devices="tripinfo_flow_route_53_duration_20250327_1910.14" vType="car" speedFactor="0.99" vaporized=""/>
    <tripinfo id="flow_route_53_duration_20250327_1910.7" depart="19.00" departLane="138002006#0_0" departPos="2.47" departSpeed="0.00" departDelay="6.65" arrival="51.00" arrivalLane="1369578052#0_1" arrivalPos="177.79" arrivalSpeed="16.14" duration="32.00" routeLength="283.24" waitingTime="0.00" waitingCount="0" stopTime="0.00" timeLoss="14.23" rerouteNo="0" devices="tripinfo_flow_route_53_duration_20250327_1910.7" vType="car" speedFactor="1.16" vaporized=""/>
    <tripinfo id="flow_route_53_duration_20250327_1910.11" depart="27.00" departLane="138002006#0_0" departPos="2.12" departSpeed="0.00" departDelay="7.60" arrival="59.00" arrivalLane="1369578052#0_1" arrivalPos="171.08" arrivalSpeed="15.78" duration="32.00" routeLength="276.88" waitingTime="0.00" waitingCount="0" stopTime="0.00" timeLoss="14.23" rerouteNo="0" devices="tripinfo_flow_route_53_duration_20250327_1910.11" vType="car" speedFactor="0.95" vaporized=""/>
    <tripinfo id="flow_route_52_duration_20250327_1910.2" depart="30.00" departLane="138002006#0_0" departPos="30.44" departSpeed="0.00" departDelay="6.00" arrival="59.00" arrivalLane="380351865#0_1" arrivalPos="11.59" arrivalSpeed="10.94" duration="29.00" routeLength="222.71" waitingTime="0.00" waitingCount="0" stopTime="0.00" timeLoss="9.68" rerouteNo="0" devices="tripinfo_flow_route_52_duration_20250327_1910.2" vType="car" speedFactor="1.01" vaporized=""/>
    <tripinfo id="flow_route_53_duration_20250327_1910.16" depart="33.00" departLane="138002006#0_0" departPos="42.61" departSpeed="0.00" departDelay="4.78" arrival="59.00" arrivalLane="1369578052#0_0" arrivalPos="84.01" arrivalSpeed="13.67" duration="26.00" routeLength="149.32" waitingTime="0.00" waitingCount="0" stopTime="0.00" timeLoss="16.60" rerouteNo="0" devices="tripinfo_flow_route_53_duration_20250327_1910.16" vType="car" speedFactor="1.10" vaporized=""/>
    <tripinfo id="flow_route_53_duration_20250327_1910.18" depart="34.00" departLane="138002006#0_0" departPos="13.63" departSpeed="0.00" departDelay="2.25" arrival="59.00" arrivalLane="1369578052#0_1" arrivalPos="131.28" arrivalSpeed="16.35" duration="25.00" routeLength="225.57" waitingTime="0.00" waitingCount="0" stopTime="0.00" timeLoss="10.84" rerouteNo="0" devices="tripinfo_flow_route_53_duration_20250327_1910.18" vType="car" speedFactor="1.04" vaporized=""/>
    <tripinfo id="flow_route_53_duration_20250327_1910.17" depart="33.00" departLane="138002006#0_0" departPos="3.78" departSpeed="0.00" departDelay="3.01" arrival="60.00" arrivalLane="1369578052#0_1" arrivalPos="105.74" arrivalSpeed="14.78" duration="27.00" routeLength="209.88" waitingTime="0.00" waitingCount="0" stopTime="0.00" timeLoss="12.85" rerouteNo="0" devices="tripinfo_flow_route_53_duration_20250327_1910.17" vType="car" speedFactor="0.90" vaporized=""/>
    <tripinfo id="flow_route_53_duration_20250327_1910.19" depart="39.00" departLane="138002006#0_0" departPos="72.89" departSpeed="0.00" departDelay="5.48" arrival="62.00" arrivalLane="1369578052#0_0" arrivalPos="155.85" arrivalSpeed="16.41" duration="23.00" routeLength="190.88" waitingTime="0.00" waitingCount="0" stopTime="0.00" timeLoss="10.69" rerouteNo="0" devices="tripinfo_flow_route_53_duration_20250327_1910.19" vType="car" speedFactor="1.00" vaporized=""/>
    <tripinfo id="flow_route_53_duration_20250327_1910.15" depart="33.00" departLane="138002006#0_0" departPos="32.99" departSpeed="0.00" departDelay="6.54" arrival="67.00" arrivalLane="1369578052#0_0" arrivalPos="180.06" arrivalSpeed="16.10" duration="34.00" routeLength="254.99" waitingTime="0.00" waitingCount="0" stopTime="0.00" timeLoss="18.45" rerouteNo="0" devices="tripinfo_flow_route_53_duration_20250327_1910.15" vType="car" speedFactor="1.02" vaporized=""/>
    <tripinfo id="flow_route_53_duration_20250327_1910.20" depart="48.00" departLane="138002006#0_0" departPos="39.64" departSpeed="0.00" departDelay="12.72" arrival="68.00" arrivalLane="1369578052#0_0" arrivalPos="79.42" arrivalSpeed="13.68" duration="20.00" routeLength="147.70" waitingTime="0.00" waitingCount="0" stopTime="0.00" timeLoss="9.75" rerouteNo="0" devices="tripinfo_flow_route_53_duration_20250327_1910.20" vType="car" speedFactor="0.88" vaporized=""/>
    <tripinfo id="flow_route_53_duration_20250327_1910.24" depart="50.00" departLane="138002006#0_0" departPos="20.06" departSpeed="0.00" departDelay="7.66" arrival="70.00" arrivalLane="1369578052#0_0" arrivalPos="62.46" arrivalSpeed="13.94" duration="20.00" routeLength="150.32" waitingTime="0.00" waitingCount="0" stopTime="0.00" timeLoss="9.91" rerouteNo="0" devices="tripinfo_flow_route_53_duration_20250327_1910.24" vType="car" speedFactor="0.90" vaporized=""/>
    <tripinfo id="flow_route_53_duration_20250327_1910.21" depart="48.00" departLane="138002006#0_0" departPos="28.71" departSpeed="0.00" departDelay="10.96" arrival="72.00" arrivalLane="1369578052#0_0" arrivalPos="109.25" arrivalSpeed="13.94" duration="24.00" routeLength="188.46" waitingTime="0.00" waitingCount="0" stopTime="0.00" timeLoss="10.41" rerouteNo="0" devices="tripinfo_flow_route_53_duration_20250327_1910.21" vType="car" speedFactor="0.85" vaporized=""/>
    <tripinfo id="flow_route_53_duration_20250327_1910.22" depart="48.00" departLane="138002006#0_0" departPos="64.19" departSpeed="0.00" departDelay="9.19" arrival="72.00" arrivalLane="1369578052#0_0" arrivalPos="157.89" arrivalSpeed="16.19" duration="24.00" routeLength="201.62" waitingTime="0.00" waitingCount="0" stopTime="0.00" timeLoss="11.09" rerouteNo="0" devices="tripinfo_flow_route_53_duration_20250327_1910.22" vType="car" speedFactor="1.17" vaporized=""/>
    <tripinfo id="flow_route_53_duration_20250327_1910.25" depart="54.00" departLane="138002006#0_0" departPos="7.51" departSpeed="0.00" departDelay="9.90" arrival="73.00" arrivalLane="1369578052#0_1" arrivalPos="21.08" arrivalSpeed="13.13" duration="19.00" routeLength="121.49" waitingTime="0.00" waitingCount="0" stopTime="0.00" timeLoss="11.62" rerouteNo="0" devices="tripinfo_flow_route_53_duration_20250327_1910.25" vType="car" speedFactor="1.02" vaporized=""/>
    <tripinfo id="flow_route_53_duration_20250327_1910.23" depart="50.00" departLane="138002006#0_0" departPos="8.67" departSpeed="0.00" departDelay="9.43" arrival="74.00" arrivalLane="1369578052#0_0" arrivalPos="88.97" arrivalSpeed="16.24" duration="24.00" routeLength="188.22" waitingTime="0.00" waitingCount="0" stopTime="0.00" timeLoss="11.96" rerouteNo="0" devices="tripinfo_flow_route_53_duration_20250327_1910.23" vType="car" speedFactor="1.00" vaporized=""/>
    <tripinfo id="flow_route_52_duration_20250327_1910.3" depart="43.00" departLane="138002006#0_0" departPos="0.08" departSpeed="0.00" departDelay="7.00" arrival="77.00" arrivalLane="380351865#0_1" arrivalPos="11.32" arrivalSpeed="10.00" duration="34.00" routeLength="252.81" waitingTime="0.00" waitingCount="0" stopTime="0.00" timeLoss="9.85" rerouteNo="0" devices="tripinfo_flow_route_52_duration_20250327_1910.3" vType="car" speedFactor="0.90" vaporized=""/>
    <tripinfo id="flow_route_58_duration_20250327_1910.0" depart="0.00" departLane="186407685_0" departPos="1.07" departSpeed="0.00" departDelay="0.00" arrival="85.00" arrivalLane="-138002006#3_1" arrivalPos="43.63" arrivalSpeed="9.60" duration="85.00" routeLength="235.82" waitingTime="49.00" waitingCount="1" stopTime="0.00" timeLoss="69.99" rerouteNo="0" devices="tripinfo_flow_route_58_duration_20250327_1910.0" vType="car" speedFactor="1.08" vaporized=""/>
    <tripinfo id="flow_route_58_duration_20250327_1910.1" depart="31.00" departLane="186407685_0" departPos="49.79" departSpeed="0.00" departDelay="1.00" arrival="85.00" arrivalLane="-138002006#3_1" arrivalPos="26.31" arrivalSpeed="8.85" duration="54.00" routeLength="169.77" waitingTime="23.00" waitingCount="1" stopTime="0.00" timeLoss="42.46" rerouteNo="0" devices="tripinfo_flow_route_58_duration_20250327_1910.1" vType="car" speedFactor="0.96" vaporized=""/>
    <tripinfo id="flow_route_59_duration_20250327_1910.2" depart="10.00" departLane="186407685_0" departPos="135.37" departSpeed="0.00" departDelay="0.77" arrival="88.00" arrivalLane="1369578052#0_0" arrivalPos="43.63" arrivalSpeed="9.41" duration="78.00" routeLength="94.37" waitingTime="55.00" waitingCount="1" stopTime="0.00" timeLoss="71.29" rerouteNo="0" devices="tripinfo_flow_route_59_duration_20250327_1910.2" vType="car" speedFactor="0.99" vaporized=""/>
    <tripinfo id="flow_route_59_duration_20250327_1910.3" depart="15.00" departLane="186407685_0" departPos="122.46" departSpeed="0.00" departDelay="1.16" arrival="89.00" arrivalLane="1369578052#0_0" arrivalPos="30.96" arrivalSpeed="8.84" duration="74.00" routeLength="94.61" waitingTime="51.00" waitingCount="1" stopTime="0.00" timeLoss="67.60" rerouteNo="0" devices="tripinfo_flow_route_59_duration_20250327_1910.3" vType="car" speedFactor="1.02" vaporized=""/>
    <tripinfo id="flow_route_59_duration_20250327_1910.0" depart="0.00" departLane="186407685_0" departPos="119.17" departSpeed="0.00" departDelay="0.00" arrival="92.00" arrivalLane="1369578052#0_0" arrivalPos="108.75" arrivalSpeed="14.31" duration="92.00" routeLength="175.69" waitingTime="60.00" waitingCount="1" stopTime="0.00" timeLoss="80.05" rerouteNo="0" devices="tripinfo_flow_route_59_duration_20250327_1910.0" vType="car" speedFactor="1.03" vaporized=""/>
    <tripinfo id="flow_route_57_duration_20250327_1910.0" depart="0.00" departLane="186407685_0" departPos="131.94" departSpeed="0.00" departDelay="0.00" arrival="94.00" arrivalLane="380351865#0_0" arrivalPos="0.78" arrivalSpeed="10.82" duration="94.00" routeLength="205.45" waitingTime="61.00" waitingCount="1" stopTime="0.00" timeLoss="76.73" rerouteNo="0" devices="tripinfo_flow_route_57_duration_20250327_1910.0" vType="car" speedFactor="1.01" vaporized=""/>
    <tripinfo id="flow_route_57_duration_20250327_1910.1" depart="16.00" departLane="186407685_0" departPos="87.22" departSpeed="0.00" departDelay="1.00" arrival="94.00" arrivalLane="380351865#0_1" arrivalPos="11.40" arrivalSpeed="10.67" duration="78.00" routeLength="260.80" waitingTime="40.00" waitingCount="1" stopTime="0.00" timeLoss="57.16" rerouteNo="0" devices="tripinfo_flow_route_57_duration_20250327_1910.1" vType="car" speedFactor="0.97" vaporized=""/>
    <tripinfo id="flow_route_59_duration_20250327_1910.4" depart="20.00" departLane="186407685_0" departPos="60.03" departSpeed="0.00" departDelay="1.54" arrival="95.00" arrivalLane="1369578052#0_0" arrivalPos="27.99" arrivalSpeed="8.06" duration="75.00" routeLength="154.07" waitingTime="42.00" waitingCount="1" stopTime="0.00" timeLoss="64.07" rerouteNo="0" devices="tripinfo_flow_route_59_duration_20250327_1910.4" vType="car" speedFactor="0.92" vaporized=""/>
    <tripinfo id="flow_route_57_duration_20250327_1910.2" depart="30.00" departLane="186407685_0" departPos="17.98" departSpeed="0.00" departDelay="0.00" arrival="97.00" arrivalLane="380351865#0_1" arrivalPos="16.58" arrivalSpeed="11.33" duration="67.00" routeLength="335.22" waitingTime="22.00" waitingCount="1" stopTime="0.00" timeLoss="41.89" rerouteNo="0" devices="tripinfo_flow_route_57_duration_20250327_1910.2" vType="car" speedFactor="1.03" vaporized=""/>
    <tripinfo id="flow_route_59_duration_20250327_1910.6" depart="28.00" departLane="186407685_0" departPos="75.27" departSpeed="0.00" departDelay="0.31" arrival="98.00" arrivalLane="1369578052#0_0" arrivalPos="19.30" arrivalSpeed="7.91" duration="70.00" routeLength="130.14" waitingTime="38.00" waitingCount="1" stopTime="0.00" timeLoss="61.37" rerouteNo="0" devices="tripinfo_flow_route_59_duration_20250327_1910.6" vType="car" speedFactor="0.97" vaporized=""/>
    <tripinfo id="flow_route_57_duration_20250327_1910.3" depart="49.00" departLane="186407685_0" departPos="27.91" departSpeed="0.00" departDelay="4.00" arrival="100.00" arrivalLane="380351865#0_1" arrivalPos="14.53" arrivalSpeed="10.45" duration="51.00" routeLength="323.23" waitingTime="4.00" waitingCount="1" stopTime="0.00" timeLoss="25.43" rerouteNo="0" devices="tripinfo_flow_route_57_duration_20250327_1910.3" vType="car" speedFactor="0.97" vaporized=""/>
    <tripinfo id="flow_route_59_duration_20250327_1910.1" depart="5.00" departLane="186407685_0" departPos="8.18" departSpeed="0.00" departDelay="0.39" arrival="101.00" arrivalLane="1369578052#0_0" arrivalPos="126.01" arrivalSpeed="14.08" duration="96.00" routeLength="303.94" waitingTime="44.00" waitingCount="1" stopTime="0.00" timeLoss="74.37" rerouteNo="0" devices="tripinfo_flow_route_59_duration_20250327_1910.1" vType="car" speedFactor="0.86" vaporized=""/>
    <tripinfo id="flow_route_59_duration_20250327_1910.5" depart="26.00" departLane="186407685_0" departPos="64.66" departSpeed="0.00" departDelay="2.93" arrival="106.00" arrivalLane="1369578052#0_0" arrivalPos="78.01" arrivalSpeed="12.80" duration="80.00" routeLength="199.46" waitingTime="38.00" waitingCount="1" stopTime="0.00" timeLoss="66.56" rerouteNo="0" devices="tripinfo_flow_route_59_duration_20250327_1910.5" vType="car" speedFactor="1.17" vaporized=""/>
    <tripinfo id="flow_route_59_duration_20250327_1910.7" depart="33.00" departLane="186407685_0" departPos="119.58" departSpeed="0.00" departDelay="0.70" arrival="106.00" arrivalLane="1369578052#0_0" arrivalPos="131.48" arrivalSpeed="15.54" duration="73.00" routeLength="198.01" waitingTime="40.00" waitingCount="1" stopTime="0.00" timeLoss="59.17" rerouteNo="0" devices="tripinfo_flow_route_59_duration_20250327_1910.7" vType="car" speedFactor="1.04" vaporized=""/>
    <tripinfo id="flow_route_59_duration_20250327_1910.9" depart="45.00" departLane="186407685_0" departPos="69.67" departSpeed="0.00" departDelay="3.47" arrival="109.00" arrivalLane="1369578052#0_0" arrivalPos="63.75" arrivalSpeed="11.05" duration="64.00" routeLength="180.19" waitingTime="28.00" waitingCount="1" stopTime="0.00" timeLoss="52.54" rerouteNo="0" devices="tripinfo_flow_route_59_duration_20250327_1910.9" vType="car" speedFactor="1.00" vaporized=""/>
    <tripinfo id="flow_route_59_duration_20250327_1910.10" depart="49.00" departLane="186407685_0" departPos="102.62" departSpeed="0.00" departDelay="2.85" arrival="109.00" arrivalLane="1369578052#0_0" arrivalPos="85.32" arrivalSpeed="13.44" duration="60.00" routeLength="168.81" waitingTime="27.00" waitingCount="1" stopTime="0.00" timeLoss="48.58" rerouteNo="0" devices="tripinfo_flow_route_59_duration_20250327_1910.10" vType="car" speedFactor="1.12" vaporized=""/>
    <tripinfo id="flow_route_59_duration_20250327_1910.8" depart="38.00" departLane="186407685_0" departPos="18.22" departSpeed="0.00" departDelay="1.08" arrival="112.00" arrivalLane="1369578052#0_0" arrivalPos="51.11" arrivalSpeed="10.69" duration="74.00" routeLength="219.01" waitingTime="28.00" waitingCount="1" stopTime="0.00" timeLoss="58.30" rerouteNo="0" devices="tripinfo_flow_route_59_duration_20250327_1910.8" vType="car" speedFactor="0.85" vaporized=""/>
    <tripinfo id="flow_route_59_duration_20250327_1910.11" depart="53.00" departLane="186407685_0" departPos="71.42" departSpeed="0.00" departDelay="2.24" arrival="115.00" arrivalLane="1369578052#0_0" arrivalPos="59.14" arrivalSpeed="10.52" duration="62.00" routeLength="173.83" waitingTime="26.00" waitingCount="1" stopTime="0.00" timeLoss="49.69" rerouteNo="0" devices="tripinfo_flow_route_59_duration_20250327_1910.11" vType="car" speedFactor="0.91" vaporized=""/>
    <tripinfo id="flow_route_66_duration_20250327_1910.2" depart="20.00" departLane="-138002002#2_0" departPos="15.85" departSpeed="0.00" departDelay="0.00" arrival="118.00" arrivalLane="-138002006#3_0" arrivalPos="5.95" arrivalSpeed="6.34" duration="98.00" routeLength="193.49" waitingTime="66.00" waitingCount="1" stopTime="0.00" timeLoss="86.01" rerouteNo="0" devices="tripinfo_flow_route_66_duration_20250327_1910.2" vType="car" speedFactor="1.13" vaporized=""/>
    <tripinfo id="flow_route_53_duration_20250327_1910.27" depart="62.00" departLane="138002006#0_0" departPos="48.44" departSpeed="0.00" departDelay="14.37" arrival="120.00" arrivalLane="1369578052#0_1" arrivalPos="28.27" arrivalSpeed="8.65" duration="58.00" routeLength="87.74" waitingTime="36.00" waitingCount="1" stopTime="0.00" timeLoss="52.43" rerouteNo="0" devices="tripinfo_flow_route_53_duration_20250327_1910.27" vType="car" speedFactor="0.99" vaporized=""/>
    <tripinfo id="flow_route_53_duration_20250327_1910.28" depart="65.00" departLane="138002006#0_0" departPos="81.28" departSpeed="0.00" departDelay="15.61" arrival="120.00" arrivalLane="1369578052#0_0" arrivalPos="23.87" arrivalSpeed="7.93" duration="55.00" routeLength="50.51" waitingTime="40.00" waitingCount="1" stopTime="0.00" timeLoss="51.30" rerouteNo="0" devices="tripinfo_flow_route_53_duration_20250327_1910.28" vType="car" speedFactor="0.94" vaporized=""/>
    <tripinfo id="flow_route_66_duration_20250327_1910.4" depart="41.00" departLane="-138002002#2_0" departPos="30.86" departSpeed="0.00" departDelay="1.00" arrival="122.00" arrivalLane="-138002006#3_1" arrivalPos="1.30" arrivalSpeed="7.43" duration="81.00" routeLength="173.83" waitingTime="49.00" waitingCount="1" stopTime="0.00" timeLoss="70.28" rerouteNo="0" devices="tripinfo_flow_route_66_duration_20250327_1910.4" vType="car" speedFactor="1.10" vaporized=""/>
    <tripinfo id="flow_route_66_duration_20250327_1910.3" depart="30.00" departLane="-138002002#2_0" departPos="121.91" departSpeed="0.00" departDelay="0.00" arrival="123.00" arrivalLane="-138002006#3_1" arrivalPos="36.50" arrivalSpeed="9.70" duration="93.00" routeLength="117.97" waitingTime="65.00" waitingCount="1" stopTime="0.00" timeLoss="85.72" rerouteNo="0" devices="tripinfo_flow_route_66_duration_20250327_1910.3" vType="car" speedFactor="1.09" vaporized=""/>
    <tripinfo id="flow_route_53_duration_20250327_1910.32" depart="74.00" departLane="138002006#0_0" departPos="18.79" departSpeed="0.00" departDelay="17.55" arrival="125.00" arrivalLane="1369578052#0_0" arrivalPos="15.68" arrivalSpeed="9.01" duration="51.00" routeLength="104.81" waitingTime="27.00" waitingCount="1" stopTime="0.00" timeLoss="44.43" rerouteNo="0" devices="tripinfo_flow_route_53_duration_20250327_1910.32" vType="car" speedFactor="1.06" vaporized=""/>
    <tripinfo id="flow_route_53_duration_20250327_1910.33" depart="74.00" departLane="138002006#0_0" departPos="51.09" departSpeed="0.00" departDelay="15.79" arrival="125.00" arrivalLane="1369578052#0_0" arrivalPos="35.13" arrivalSpeed="9.75" duration="51.00" routeLength="91.96" waitingTime="28.00" waitingCount="1" stopTime="0.00" timeLoss="45.03" rerouteNo="0" devices="tripinfo_flow_route_53_duration_20250327_1910.33" vType="car" speedFactor="0.96" vaporized=""/>
    <tripinfo id="flow_route_53_duration_20250327_1910.31" depart="74.00" departLane="138002006#0_0" departPos="1.18" departSpeed="0.00" departDelay="19.32" arrival="126.00" arrivalLane="1369578052#0_0" arrivalPos="6.38" arrivalSpeed="9.39" duration="52.00" routeLength="113.12" waitingTime="26.00" waitingCount="1" stopTime="0.00" timeLoss="44.89" rerouteNo="0" devices="tripinfo_flow_route_53_duration_20250327_1910.31" vType="car" speedFactor="1.02" vaporized=""/>