<?xml version="1.0" encoding="UTF-8"?>

<!-- generated on 2025-05-06 21:08:53 by Eclipse SUMO sumo Version 1.20.0
<configuration xmlns:xsi="http://www.w3.org/2001/XMLSchema-instance" xsi:noNamespaceSchemaLocation="http://sumo.dlr.de/xsd/sumoConfiguration.xsd">

    <input>
        <net-file value="osm.net.xml"/>
        <route-files value="xml/route_rl_cluster_4110471701_632031939_7.rou.xml"/>
    </input>

    <output>
        <tripinfo-output value="xml/tripinfo_rl_cluster_4110471701_632031939_7.xml"/>
    </output>

    <traci_server>
        <remote-port value="38349"/>
    </traci_server>

</configuration>
-->

<tripinfos xmlns:xsi="http://www.w3.org/2001/XMLSchema-instance" xsi:noNamespaceSchemaLocation="http://sumo.dlr.de/xsd/tripinfo_file.xsd">
    <tripinfo id="flow_route_83_duration_20250327_2220.0" depart="0.00" departLane="423956929_0" departPos="101.16" departSpeed="0.00" departDelay="0.00" arrival="17.00" arrivalLane="186407685_0" arrivalPos="8.05" arrivalSpeed="6.86" duration="17.00" routeLength="101.45" waitingTime="0.00" waitingCount="0" stopTime="0.00" timeLoss="10.18" rerouteNo="0" devices="tripinfo_flow_route_83_duration_20250327_2220.0" vType="car" speedFactor="1.01" vaporized=""/>
    <tripinfo id="flow_route_62_duration_20250327_2220.0" depart="0.00" departLane="409155823_0" departPos="65.43" departSpeed="0.00" departDelay="0.00" arrival="23.00" arrivalLane="1091883842_0" arrivalPos="165.47" arrivalSpeed="16.29" duration="23.00" routeLength="205.45" waitingTime="0.00" waitingCount="0" stopTime="0.00" timeLoss="10.50" rerouteNo="0" devices="tripinfo_flow_route_62_duration_20250327_2220.0" vType="car" speedFactor="1.06" vaporized=""/>
    <tripinfo id="flow_route_82_duration_20250327_2220.0" depart="0.00" departLane="423956929_0" departPos="45.92" departSpeed="0.00" departDelay="0.00" arrival="24.00" arrivalLane="186407684#0_0" arrivalPos="62.79" arrivalSpeed="15.18" duration="24.00" routeLength="219.95" waitingTime="0.00" waitingCount="0" stopTime="0.00" timeLoss="8.99" rerouteNo="0" devices="tripinfo_flow_route_82_duration_20250327_2220.0" vType="car" speedFactor="0.94" vaporized=""/>
    <tripinfo id="flow_route_87_duration_20250327_2220.1" depart="20.00" departLane="430416184_0" departPos="271.56" departSpeed="0.00" departDelay="0.00" arrival="35.00" arrivalLane="1091883842_0" arrivalPos="57.02" arrivalSpeed="11.59" duration="15.00" routeLength="85.91" waitingTime="0.00" waitingCount="0" stopTime="0.00" timeLoss="8.86" rerouteNo="0" devices="tripinfo_flow_route_87_duration_20250327_2220.1" vType="car" speedFactor="1.03" vaporized=""/>
    <tripinfo id="flow_route_88_duration_20250327_2220.3" depart="10.00" departLane="430416184_0" departPos="253.21" departSpeed="0.00" departDelay="0.00" arrival="49.00" arrivalLane="186407684#0_1" arrivalPos="5.31" arrivalSpeed="8.09" duration="39.00" routeLength="69.73" waitingTime="17.00" waitingCount="1" stopTime="0.00" timeLoss="33.26" rerouteNo="0" devices="tripinfo_flow_route_88_duration_20250327_2220.3" vType="car" speedFactor="0.94" vaporized=""/>
    <tripinfo id="flow_route_87_duration_20250327_2220.0" depart="0.00" departLane="430416184_0" departPos="1.75" departSpeed="0.00" departDelay="0.00" arrival="51.00" arrivalLane="1091883842_0" arrivalPos="109.56" arrivalSpeed="14.33" duration="51.00" routeLength="408.27" waitingTime="0.00" waitingCount="0" stopTime="0.00" timeLoss="24.82" rerouteNo="0" devices="tripinfo_flow_route_87_duration_20250327_2220.0" vType="car" speedFactor="1.03" vaporized=""/>
    <tripinfo id="flow_route_88_duration_20250327_2220.0" depart="0.00" departLane="430416184_0" departPos="194.63" departSpeed="0.00" departDelay="0.00" arrival="51.00" arrivalLane="186407684#0_1" arrivalPos="3.84" arrivalSpeed="8.73" duration="51.00" routeLength="126.85" waitingTime="16.00" waitingCount="1" stopTime="0.00" timeLoss="41.54" rerouteNo="0" devices="tripinfo_flow_route_88_duration_20250327_2220.0" vType="car" speedFactor="0.83" vaporized=""/>
    <tripinfo id="flow_route_86_duration_20250327_2220.0" depart="0.00" departLane="430416184_0" departPos="215.48" departSpeed="0.00" departDelay="0.00" arrival="54.00" arrivalLane="186407685_1" arrivalPos="87.02" arrivalSpeed="13.55" duration="54.00" routeLength="195.42" waitingTime="20.00" waitingCount="1" stopTime="0.00" timeLoss="42.08" rerouteNo="0" devices="tripinfo_flow_route_86_duration_20250327_2220.0" vType="car" speedFactor="1.08" vaporized=""/>
    <tripinfo id="flow_route_88_duration_20250327_2220.1" depart="4.00" departLane="430416184_0" departPos="130.75" departSpeed="0.00" departDelay="0.67" arrival="57.00" arrivalLane="186407684#0_1" arrivalPos="41.08" arrivalSpeed="11.71" duration="53.00" routeLength="227.97" waitingTime="14.00" waitingCount="1" stopTime="0.00" timeLoss="38.00" rerouteNo="0" devices="tripinfo_flow_route_88_duration_20250327_2220.1" vType="car" speedFactor="1.05" vaporized=""/>
    <tripinfo id="flow_route_88_duration_20250327_2220.4" depart="14.00" departLane="430416184_0" departPos="197.69" departSpeed="0.00" departDelay="0.67" arrival="60.00" arrivalLane="186407684#0_1" arrivalPos="28.37" arrivalSpeed="11.39" duration="46.00" routeLength="148.31" waitingTime="13.00" waitingCount="1" stopTime="0.00" timeLoss="35.10" rerouteNo="0" devices="tripinfo_flow_route_88_duration_20250327_2220.4" vType="car" speedFactor="0.86" vaporized=""/>
    <tripinfo id="flow_route_88_duration_20250327_2220.6" depart="20.00" departLane="430416184_0" departPos="238.38" departSpeed="0.00" departDelay="0.00" arrival="60.00" arrivalLane="186407684#0_1" arrivalPos="55.83" arrivalSpeed="12.47" duration="40.00" routeLength="135.08" waitingTime="12.00" waitingCount="1" stopTime="0.00" timeLoss="30.64" rerouteNo="0" devices="tripinfo_flow_route_88_duration_20250327_2220.6" vType="car" speedFactor="1.05" vaporized=""/>
    <tripinfo id="flow_route_88_duration_20250327_2220.5" depart="17.00" departLane="430416184_0" departPos="148.34" departSpeed="0.00" departDelay="0.34" arrival="61.00" arrivalLane="186407684#0_1" arrivalPos="4.07" arrivalSpeed="10.24" duration="44.00" routeLength="173.36" waitingTime="10.00" waitingCount="1" stopTime="0.00" timeLoss="32.76" rerouteNo="0" devices="tripinfo_flow_route_88_duration_20250327_2220.5" vType="car" speedFactor="1.09" vaporized=""/>
    <tripinfo id="flow_route_88_duration_20250327_2220.2" depart="7.00" departLane="430416184_0" departPos="76.50" departSpeed="0.00" departDelay="0.33" arrival="64.00" arrivalLane="186407684#0_1" arrivalPos="49.91" arrivalSpeed="12.94" duration="57.00" routeLength="291.04" waitingTime="11.00" waitingCount="1" stopTime="0.00" timeLoss="37.13" rerouteNo="0" devices="tripinfo_flow_route_88_duration_20250327_2220.2" vType="car" speedFactor="0.89" vaporized=""/>
    <tripinfo id="flow_route_88_duration_20250327_2220.7" depart="24.00" departLane="430416184_0" departPos="114.69" departSpeed="0.00" departDelay="0.67" arrival="69.00" arrivalLane="186407684#0_1" arrivalPos="78.23" arrivalSpeed="15.90" duration="45.00" routeLength="281.17" waitingTime="2.00" waitingCount="1" stopTime="0.00" timeLoss="26.53" rerouteNo="0" devices="tripinfo_flow_route_88_duration_20250327_2220.7" vType="car" speedFactor="1.12" vaporized=""/>
    <tripinfo id="flow_route_88_duration_20250327_2220.15" depart="51.00" departLane="430416184_0" departPos="234.74" departSpeed="0.00" departDelay="1.01" arrival="70.00" arrivalLane="186407684#0_1" arrivalPos="50.38" arrivalSpeed="13.37" duration="19.00" routeLength="133.27" waitingTime="0.00" waitingCount="0" stopTime="0.00" timeLoss="9.68" rerouteNo="0" devices="tripinfo_flow_route_88_duration_20250327_2220.15" vType="car" speedFactor="0.97" vaporized=""/>
    <tripinfo id="flow_route_88_duration_20250327_2220.9" depart="30.00" departLane="430416184_0" departPos="87.27" departSpeed="0.00" departDelay="0.00" arrival="72.00" arrivalLane="186407684#0_1" arrivalPos="2.86" arrivalSpeed="9.56" duration="42.00" routeLength="233.22" waitingTime="1.00" waitingCount="1" stopTime="0.00" timeLoss="26.50" rerouteNo="0" devices="tripinfo_flow_route_88_duration_20250327_2220.9" vType="car" speedFactor="0.93" vaporized=""/>
    <tripinfo id="flow_route_88_duration_20250327_2220.8" depart="27.00" departLane="430416184_0" departPos="68.46" departSpeed="0.00" departDelay="0.34" arrival="74.00" arrivalLane="186407684#0_1" arrivalPos="47.97" arrivalSpeed="13.50" duration="47.00" routeLength="297.14" waitingTime="2.00" waitingCount="1" stopTime="0.00" timeLoss="27.47" rerouteNo="0" devices="tripinfo_flow_route_88_duration_20250327_2220.8" vType="car" speedFactor="0.99" vaporized=""/>
    <tripinfo id="flow_route_88_duration_20250327_2220.12" depart="41.00" departLane="430416184_0" departPos="118.96" departSpeed="0.00" departDelay="1.00" arrival="76.00" arrivalLane="186407684#0_1" arrivalPos="29.20" arrivalSpeed="12.59" duration="35.00" routeLength="227.87" waitingTime="0.00" waitingCount="0" stopTime="0.00" timeLoss="20.32" rerouteNo="0" devices="tripinfo_flow_route_88_duration_20250327_2220.12" vType="car" speedFactor="1.16" vaporized=""/>
    <tripinfo id="flow_route_87_duration_20250327_2220.2" depart="40.00" departLane="430416184_0" departPos="37.41" departSpeed="0.00" departDelay="0.00" arrival="89.00" arrivalLane="1091883842_0" arrivalPos="127.22" arrivalSpeed="15.22" duration="49.00" routeLength="390.26" waitingTime="0.00" waitingCount="0" stopTime="0.00" timeLoss="23.00" rerouteNo="0" devices="tripinfo_flow_route_87_duration_20250327_2220.2" vType="car" speedFactor="0.94" vaporized=""/>
    <tripinfo id="flow_route_88_duration_20250327_2220.16" depart="54.00" departLane="430416184_0" departPos="193.22" departSpeed="0.00" departDelay="0.67" arrival="120.00" arrivalLane="186407684#0_1" arrivalPos="7.85" arrivalSpeed="7.58" duration="66.00" routeLength="132.26" waitingTime="38.00" waitingCount="1" stopTime="0.00" timeLoss="56.83" rerouteNo="0" devices="tripinfo_flow_route_88_duration_20250327_2220.16" vType="car" speedFactor="0.89" vaporized=""/>
    <tripinfo id="flow_route_88_duration_20250327_2220.10" depart="34.00" departLane="430416184_0" departPos="46.01" departSpeed="0.00" departDelay="0.67" arrival="129.00" arrivalLane="186407684#0_1" arrivalPos="67.38" arrivalSpeed="12.28" duration="95.00" routeLength="338.99" waitingTime="38.00" waitingCount="1" stopTime="0.00" timeLoss="71.94" rerouteNo="0" devices="tripinfo_flow_route_88_duration_20250327_2220.10" vType="car" speedFactor="0.88" vaporized=""/>
    <tripinfo id="flow_route_88_duration_20250327_2220.17" depart="57.00" departLane="430416184_0" departPos="172.42" departSpeed="0.00" departDelay="0.34" arrival="131.00" arrivalLane="186407684#0_1" arrivalPos="63.06" arrivalSpeed="11.97" duration="74.00" routeLength="208.27" waitingTime="37.00" waitingCount="1" stopTime="0.00" timeLoss="58.53" rerouteNo="0" devices="tripinfo_flow_route_88_duration_20250327_2220.17" vType="car" speedFactor="0.83" vaporized=""/>
    <tripinfo id="flow_route_88_duration_20250327_2220.14" depart="47.00" departLane="430416184_0" departPos="48.57" departSpeed="0.00" departDelay="0.34" arrival="133.00" arrivalLane="186407684#0_1" arrivalPos="19.66" arrivalSpeed="10.15" duration="86.00" routeLength="288.72" waitingTime="34.00" waitingCount="1" stopTime="0.00" timeLoss="67.73" rerouteNo="0" devices="tripinfo_flow_route_88_duration_20250327_2220.14" vType="car" speedFactor="1.01" vaporized=""/>
    <tripinfo id="flow_route_88_duration_20250327_2220.13" depart="44.00" departLane="430416184_0" departPos="76.37" departSpeed="0.00" departDelay="0.67" arrival="134.00" arrivalLane="186407684#0_1" arrivalPos="85.01" arrivalSpeed="14.00" duration="90.00" routeLength="326.27" waitingTime="35.00" waitingCount="2" stopTime="0.00" timeLoss="69.25" rerouteNo="0" devices="tripinfo_flow_route_88_duration_20250327_2220.13" vType="car" speedFactor="1.02" vaporized=""/>
    <tripinfo id="flow_route_88_duration_20250327_2220.11" depart="37.00" departLane="430416184_0" departPos="8.62" departSpeed="0.00" departDelay="0.34" arrival="137.00" arrivalLane="186407684#0_1" arrivalPos="84.30" arrivalSpeed="14.24" duration="100.00" routeLength="393.31" waitingTime="34.00" waitingCount="1" stopTime="0.00" timeLoss="74.54" rerouteNo="0" devices="tripinfo_flow_route_88_duration_20250327_2220.11" vType="car" speedFactor="0.94" vaporized=""/>
</tripinfos>
