<?xml version="1.0" encoding="UTF-8"?>

<!-- generated on 2025-05-06 21:01:13 by Eclipse SUMO sumo Version 1.20.0
<configuration xmlns:xsi="http://www.w3.org/2001/XMLSchema-instance" xsi:noNamespaceSchemaLocation="http://sumo.dlr.de/xsd/sumoConfiguration.xsd">

    <input>
        <net-file value="osm.net.xml"/>
        <route-files value="xml/routes_sac2_cluster_11648561428_407729599.rou.xml"/>
    </input>

    <output>
        <tripinfo-output value="xml/tripinfo_9783.xml"/>
    </output>

    <traci_server>
        <remote-port value="45233"/>
    </traci_server>

</configuration>
-->

<tripinfos xmlns:xsi="http://www.w3.org/2001/XMLSchema-instance" xsi:noNamespaceSchemaLocation="http://sumo.dlr.de/xsd/tripinfo_file.xsd">
    <tripinfo id="flow_route_106_duration_20250327_1930.0" depart="0.00" departLane="1254519229#0_0" departPos="19.69" departSpeed="0.00" departDelay="0.00" arrival="18.00" arrivalLane="430416184_1" arrivalPos="13.15" arrivalSpeed="8.37" duration="18.00" routeLength="94.14" waitingTime="0.00" waitingCount="0" stopTime="0.00" timeLoss="11.22" rerouteNo="0" devices="tripinfo_flow_route_106_duration_20250327_1930.0" vType="car" speedFactor="1.01" vaporized=""/>
    <tripinfo id="flow_route_107_duration_20250327_1930.0" depart="0.00" departLane="1254519229#0_0" departPos="43.39" departSpeed="0.00" departDelay="0.00" arrival="20.00" arrivalLane="1342963997_0" arrivalPos="88.24" arrivalSpeed="14.56" duration="20.00" routeLength="145.44" waitingTime="0.00" waitingCount="0" stopTime="0.00" timeLoss="11.07" rerouteNo="0" devices="tripinfo_flow_route_107_duration_20250327_1930.0" vType="car" speedFactor="1.08" vaporized=""/>
    <tripinfo id="flow_route_101_duration_20250327_1930.1" depart="2.00" departLane="186409193_0" departPos="27.23" departSpeed="0.00" departDelay="0.00" arrival="21.00" arrivalLane="430416184_0" arrivalPos="1.75" arrivalSpeed="5.47" duration="19.00" routeLength="109.01" waitingTime="0.00" waitingCount="0" stopTime="0.00" timeLoss="10.35" rerouteNo="0" devices="tripinfo_flow_route_101_duration_20250327_1930.1" vType="car" speedFactor="0.83" vaporized=""/>
    <tripinfo id="flow_route_107_duration_20250327_1930.1" depart="2.00" departLane="1254519229#0_0" departPos="35.97" departSpeed="0.00" departDelay="0.00" arrival="24.00" arrivalLane="1342963997_0" arrivalPos="120.84" arrivalSpeed="15.91" duration="22.00" routeLength="185.45" waitingTime="0.00" waitingCount="0" stopTime="0.00" timeLoss="10.83" rerouteNo="0" devices="tripinfo_flow_route_107_duration_20250327_1930.1" vType="car" speedFactor="1.05" vaporized=""/>
    <tripinfo id="flow_route_101_duration_20250327_1930.0" depart="0.00" departLane="186409193_0" departPos="43.42" departSpeed="0.00" departDelay="0.00" arrival="34.00" arrivalLane="430416184_0" arrivalPos="206.05" arrivalSpeed="16.57" duration="34.00" routeLength="297.12" waitingTime="0.00" waitingCount="0" stopTime="0.00" timeLoss="14.71" rerouteNo="0" devices="tripinfo_flow_route_101_duration_20250327_1930.0" vType="car" speedFactor="0.94" vaporized=""/>
    <tripinfo id="flow_route_107_duration_20250327_1930.3" depart="11.00" departLane="1254519229#0_0" departPos="55.03" departSpeed="0.00" departDelay="5.00" arrival="34.00" arrivalLane="1342963997_0" arrivalPos="159.38" arrivalSpeed="16.15" duration="23.00" routeLength="204.93" waitingTime="0.00" waitingCount="0" stopTime="0.00" timeLoss="10.47" rerouteNo="0" devices="tripinfo_flow_route_107_duration_20250327_1930.3" vType="car" speedFactor="1.12" vaporized=""/>
    <tripinfo id="flow_route_107_duration_20250327_1930.5" depart="17.00" departLane="1254519229#0_0" departPos="33.68" departSpeed="0.00" departDelay="7.00" arrival="34.00" arrivalLane="1342963997_0" arrivalPos="43.34" arrivalSpeed="12.70" duration="17.00" routeLength="110.25" waitingTime="0.00" waitingCount="0" stopTime="0.00" timeLoss="10.16" rerouteNo="0" devices="tripinfo_flow_route_107_duration_20250327_1930.5" vType="car" speedFactor="1.02" vaporized=""/>
    <tripinfo id="flow_route_107_duration_20250327_1930.4" depart="15.00" departLane="1254519229#0_0" departPos="45.13" departSpeed="0.00" departDelay="7.00" arrival="36.00" arrivalLane="1342963997_0" arrivalPos="123.01" arrivalSpeed="16.14" duration="21.00" routeLength="178.46" waitingTime="0.00" waitingCount="0" stopTime="0.00" timeLoss="9.51" rerouteNo="0" devices="tripinfo_flow_route_107_duration_20250327_1930.4" vType="car" speedFactor="0.94" vaporized=""/>
    <tripinfo id="flow_route_100_duration_20250327_1930.1" depart="9.00" departLane="186409193_0" departPos="15.43" departSpeed="0.00" departDelay="2.33" arrival="39.00" arrivalLane="1254519229#0_1" arrivalPos="18.84" arrivalSpeed="5.93" duration="30.00" routeLength="235.03" waitingTime="0.00" waitingCount="0" stopTime="0.00" timeLoss="14.80" rerouteNo="0" devices="tripinfo_flow_route_100_duration_20250327_1930.1" vType="car" speedFactor="0.99" vaporized=""/>
    <tripinfo id="flow_route_101_duration_20250327_1930.2" depart="7.00" departLane="186409193_0" departPos="1.89" departSpeed="0.00" departDelay="3.00" arrival="40.00" arrivalLane="430416184_0" arrivalPos="17.43" arrivalSpeed="7.28" duration="33.00" routeLength="150.03" waitingTime="0.00" waitingCount="0" stopTime="0.00" timeLoss="22.65" rerouteNo="0" devices="tripinfo_flow_route_101_duration_20250327_1930.2" vType="car" speedFactor="0.94" vaporized=""/>
    <tripinfo id="flow_route_101_duration_20250327_1930.6" depart="14.00" departLane="186409193_0" departPos="57.97" departSpeed="0.00" departDelay="2.00" arrival="40.00" arrivalLane="430416184_0" arrivalPos="89.01" arrivalSpeed="12.24" duration="26.00" routeLength="165.54" waitingTime="0.00" waitingCount="0" stopTime="0.00" timeLoss="14.11" rerouteNo="0" devices="tripinfo_flow_route_101_duration_20250327_1930.6" vType="car" speedFactor="0.97" vaporized=""/>
    <tripinfo id="flow_route_101_duration_20250327_1930.5" depart="13.00" departLane="186409193_0" departPos="8.87" departSpeed="0.00" departDelay="3.00" arrival="46.00" arrivalLane="430416184_0" arrivalPos="48.57" arrivalSpeed="10.14" duration="33.00" routeLength="174.20" waitingTime="0.00" waitingCount="0" stopTime="0.00" timeLoss="20.56" rerouteNo="0" devices="tripinfo_flow_route_101_duration_20250327_1930.5" vType="car" speedFactor="0.94" vaporized=""/>
    <tripinfo id="flow_route_107_duration_20250327_1930.9" depart="28.00" departLane="1254519229#0_0" departPos="68.16" departSpeed="0.00" departDelay="10.00" arrival="50.00" arrivalLane="1342963997_0" arrivalPos="148.23" arrivalSpeed="16.59" duration="22.00" routeLength="180.66" waitingTime="0.00" waitingCount="0" stopTime="0.00" timeLoss="10.32" rerouteNo="0" devices="tripinfo_flow_route_107_duration_20250327_1930.9" vType="car" speedFactor="0.99" vaporized=""/>
    <tripinfo id="flow_route_101_duration_20250327_1930.3" depart="9.00" departLane="186409193_0" departPos="24.03" departSpeed="0.00" departDelay="3.00" arrival="54.00" arrivalLane="430416184_0" arrivalPos="238.38" arrivalSpeed="16.24" duration="45.00" routeLength="348.85" waitingTime="0.00" waitingCount="0" stopTime="0.00" timeLoss="22.47" rerouteNo="0" devices="tripinfo_flow_route_101_duration_20250327_1930.3" vType="car" speedFactor="1.05" vaporized=""/>
    <tripinfo id="flow_route_101_duration_20250327_1930.4" depart="10.00" departLane="186409193_0" departPos="39.03" departSpeed="0.00" departDelay="2.00" arrival="54.00" arrivalLane="430416184_0" arrivalPos="276.64" arrivalSpeed="16.42" duration="44.00" routeLength="372.10" waitingTime="0.00" waitingCount="0" stopTime="0.00" timeLoss="20.47" rerouteNo="0" devices="tripinfo_flow_route_101_duration_20250327_1930.4" vType="car" speedFactor="0.93" vaporized=""/>
    <tripinfo id="flow_route_106_duration_20250327_1930.1" depart="3.00" departLane="1254519229#0_0" departPos="21.05" departSpeed="0.00" departDelay="0.60" arrival="57.00" arrivalLane="430416184_1" arrivalPos="163.76" arrivalSpeed="16.42" duration="54.00" routeLength="243.39" waitingTime="17.00" waitingCount="1" stopTime="0.00" timeLoss="37.81" rerouteNo="0" devices="tripinfo_flow_route_106_duration_20250327_1930.1" vType="car" speedFactor="0.89" vaporized=""/>
    <tripinfo id="flow_route_101_duration_20250327_1930.7" depart="19.00" departLane="186409193_0" departPos="1.39" departSpeed="0.00" departDelay="5.00" arrival="57.00" arrivalLane="430416184_0" arrivalPos="158.12" arrivalSpeed="15.61" duration="38.00" routeLength="291.23" waitingTime="0.00" waitingCount="0" stopTime="0.00" timeLoss="19.00" rerouteNo="0" devices="tripinfo_flow_route_101_duration_20250327_1930.7" vType="car" speedFactor="0.92" vaporized=""/>
    <tripinfo id="flow_route_106_duration_20250327_1930.2" depart="9.00" departLane="1254519229#0_0" departPos="9.98" departSpeed="0.00" departDelay="4.20" arrival="58.00" arrivalLane="430416184_1" arrivalPos="13.36" arrivalSpeed="6.66" duration="49.00" routeLength="104.06" waitingTime="20.00" waitingCount="2" stopTime="0.00" timeLoss="41.98" rerouteNo="0" devices="tripinfo_flow_route_106_duration_20250327_1930.2" vType="car" speedFactor="1.09" vaporized=""/>
    <tripinfo id="flow_route_107_duration_20250327_1930.2" depart="7.00" departLane="1254519229#0_0" departPos="24.01" departSpeed="0.00" departDelay="3.00" arrival="59.00" arrivalLane="1342963997_1" arrivalPos="157.22" arrivalSpeed="16.14" duration="52.00" routeLength="233.79" waitingTime="16.00" waitingCount="1" stopTime="0.00" timeLoss="37.15" rerouteNo="0" devices="tripinfo_flow_route_107_duration_20250327_1930.2" vType="car" speedFactor="0.86" vaporized=""/>
    <tripinfo id="flow_route_106_duration_20250327_1930.3" depart="12.00" departLane="1254519229#0_0" departPos="13.40" departSpeed="0.00" departDelay="4.80" arrival="62.00" arrivalLane="430416184_1" arrivalPos="8.62" arrivalSpeed="7.60" duration="50.00" routeLength="95.90" waitingTime="17.00" waitingCount="2" stopTime="0.00" timeLoss="43.17" rerouteNo="0" devices="tripinfo_flow_route_106_duration_20250327_1930.3" vType="car" speedFactor="0.88" vaporized=""/>
    <tripinfo id="flow_route_101_duration_20250327_1930.11" depart="32.00" departLane="186409193_0" departPos="53.11" departSpeed="0.00" departDelay="10.00" arrival="62.00" arrivalLane="430416184_0" arrivalPos="165.89" arrivalSpeed="16.52" duration="30.00" routeLength="247.28" waitingTime="0.00" waitingCount="0" stopTime="0.00" timeLoss="13.79" rerouteNo="0" devices="tripinfo_flow_route_101_duration_20250327_1930.11" vType="car" speedFactor="1.03" vaporized=""/>
    <tripinfo id="flow_route_107_duration_20250327_1930.11" depart="47.00" departLane="1254519229#0_0" departPos="74.96" departSpeed="0.00" departDelay="25.00" arrival="62.00" arrivalLane="1342963997_0" arrivalPos="53.21" arrivalSpeed="11.22" duration="15.00" routeLength="78.83" waitingTime="0.00" waitingCount="0" stopTime="0.00" timeLoss="9.59" rerouteNo="0" devices="tripinfo_flow_route_107_duration_20250327_1930.11" vType="car" speedFactor="1.09" vaporized=""/>
    <tripinfo id="flow_route_100_duration_20250327_1930.2" depart="15.00" departLane="186409193_0" departPos="2.74" departSpeed="0.00" departDelay="1.67" arrival="64.00" arrivalLane="1254519229#0_1" arrivalPos="22.19" arrivalSpeed="2.09" duration="49.00" routeLength="251.07" waitingTime="6.00" waitingCount="2" stopTime="0.00" timeLoss="30.45" rerouteNo="0" devices="tripinfo_flow_route_100_duration_20250327_1930.2" vType="car" speedFactor="0.87" vaporized=""/>
    <tripinfo id="flow_route_100_duration_20250327_1930.0" depart="0.00" departLane="186409193_0" departPos="2.55" departSpeed="0.00" departDelay="0.00" arrival="66.00" arrivalLane="1254519229#0_1" arrivalPos="70.90" arrivalSpeed="6.41" duration="66.00" routeLength="299.97" waitingTime="19.00" waitingCount="1" stopTime="0.00" timeLoss="47.11" rerouteNo="0" devices="tripinfo_flow_route_100_duration_20250327_1930.0" vType="car" speedFactor="1.06" vaporized=""/>
    <tripinfo id="flow_route_101_duration_20250327_1930.8" depart="29.00" departLane="186409193_0" departPos="32.09" departSpeed="0.00" departDelay="13.00" arrival="67.00" arrivalLane="430416184_0" arrivalPos="208.76" arrivalSpeed="16.58" duration="38.00" routeLength="311.17" waitingTime="0.00" waitingCount="0" stopTime="0.00" timeLoss="17.32" rerouteNo="0" devices="tripinfo_flow_route_101_duration_20250327_1930.8" vType="car" speedFactor="1.18" vaporized=""/>
    <tripinfo id="flow_route_101_duration_20250327_1930.10" depart="30.00" departLane="186409193_0" departPos="20.20" departSpeed="0.00" departDelay="10.00" arrival="67.00" arrivalLane="430416184_0" arrivalPos="180.81" arrivalSpeed="16.16" duration="37.00" routeLength="295.11" waitingTime="0.00" waitingCount="0" stopTime="0.00" timeLoss="17.96" rerouteNo="0" devices="tripinfo_flow_route_101_duration_20250327_1930.10" vType="car" speedFactor="1.18" vaporized=""/>
    <tripinfo id="flow_route_106_duration_20250327_1930.6" depart="27.00" departLane="1254519229#0_0" departPos="52.78" departSpeed="0.00" departDelay="12.60" arrival="68.00" arrivalLane="430416184_1" arrivalPos="24.88" arrivalSpeed="9.69" duration="41.00" routeLength="72.78" waitingTime="23.00" waitingCount="3" stopTime="0.00" timeLoss="35.45" rerouteNo="0" devices="tripinfo_flow_route_106_duration_20250327_1930.6" vType="car" speedFactor="0.93" vaporized=""/>
    <tripinfo id="flow_route_107_duration_20250327_1930.8" depart="28.00" departLane="1254519229#0_0" departPos="45.62" departSpeed="0.00" departDelay="12.00" arrival="72.00" arrivalLane="1342963997_0" arrivalPos="63.18" arrivalSpeed="11.57" duration="44.00" routeLength="118.14" waitingTime="18.00" waitingCount="1" stopTime="0.00" timeLoss="36.76" rerouteNo="0" devices="tripinfo_flow_route_107_duration_20250327_1930.8" vType="car" speedFactor="1.15" vaporized=""/>
    <tripinfo id="flow_route_101_duration_20250327_1930.12" depart="34.00" departLane="186409193_0" departPos="19.44" departSpeed="0.00" departDelay="10.00" arrival="74.00" arrivalLane="430416184_0" arrivalPos="225.86" arrivalSpeed="16.54" duration="40.00" routeLength="340.91" waitingTime="0.00" waitingCount="0" stopTime="0.00" timeLoss="17.46" rerouteNo="0" devices="tripinfo_flow_route_101_duration_20250327_1930.12" vType="car" speedFactor="1.04" vaporized=""/>
    <tripinfo id="flow_route_106_duration_20250327_1930.5" depart="22.00" departLane="1254519229#0_0" departPos="32.71" departSpeed="0.00" departDelay="10.00" arrival="75.00" arrivalLane="430416184_1" arrivalPos="142.45" arrivalSpeed="15.31" duration="53.00" routeLength="210.42" waitingTime="10.00" waitingCount="3" stopTime="0.00" timeLoss="39.27" rerouteNo="0" devices="tripinfo_flow_route_106_duration_20250327_1930.5" vType="car" speedFactor="0.89" vaporized=""/>
    <tripinfo id="flow_route_107_duration_20250327_1930.12" depart="55.00" departLane="1254519229#0_0" departPos="70.64" departSpeed="0.00" departDelay="31.00" arrival="75.00" arrivalLane="1342963997_0" arrivalPos="127.89" arrivalSpeed="15.29" duration="20.00" routeLength="157.83" waitingTime="0.00" waitingCount="0" stopTime="0.00" timeLoss="10.31" rerouteNo="0" devices="tripinfo_flow_route_107_duration_20250327_1930.12" vType="car" speedFactor="1.09" vaporized=""/>
    <tripinfo id="flow_route_107_duration_20250327_1930.6" depart="23.00" departLane="1254519229#0_0" departPos="8.08" departSpeed="0.00" departDelay="11.00" arrival="78.00" arrivalLane="1342963997_0" arrivalPos="104.16" arrivalSpeed="15.72" duration="55.00" routeLength="196.66" waitingTime="17.00" waitingCount="1" stopTime="0.00" timeLoss="42.77" rerouteNo="0" devices="tripinfo_flow_route_107_duration_20250327_1930.6" vType="car" speedFactor="0.83" vaporized=""/>
    <tripinfo id="flow_route_106_duration_20250327_1930.8" depart="33.00" departLane="1254519229#0_0" departPos="67.74" departSpeed="0.00" departDelay="13.80" arrival="79.00" arrivalLane="430416184_1" arrivalPos="267.47" arrivalSpeed="16.45" duration="46.00" routeLength="300.42" waitingTime="9.00" waitingCount="3" stopTime="0.00" timeLoss="27.39" rerouteNo="0" devices="tripinfo_flow_route_106_duration_20250327_1930.8" vType="car" speedFactor="1.10" vaporized=""/>
    <tripinfo id="flow_route_107_duration_20250327_1930.10" depart="35.00" departLane="1254519229#0_0" departPos="12.20" departSpeed="0.00" departDelay="15.00" arrival="79.00" arrivalLane="1342963997_0" arrivalPos="88.47" arrivalSpeed="15.91" duration="44.00" routeLength="176.84" waitingTime="14.00" waitingCount="1" stopTime="0.00" timeLoss="32.65" rerouteNo="0" devices="tripinfo_flow_route_107_duration_20250327_1930.10" vType="car" speedFactor="0.90" vaporized=""/>
    <tripinfo id="flow_route_106_duration_20250327_1930.4" depart="15.00" departLane="1254519229#0_0" departPos="16.48" departSpeed="0.00" departDelay="5.40" arrival="80.00" arrivalLane="430416184_1" arrivalPos="165.30" arrivalSpeed="16.42" duration="65.00" routeLength="249.50" waitingTime="23.00" waitingCount="4" stopTime="0.00" timeLoss="49.16" rerouteNo="0" devices="tripinfo_flow_route_106_duration_20250327_1930.4" vType="car" speedFactor="1.16" vaporized=""/>
    <tripinfo id="flow_route_107_duration_20250327_1930.7" depart="27.00" departLane="1254519229#0_0" departPos="27.42" departSpeed="0.00" departDelay="13.00" arrival="81.00" arrivalLane="1342963997_1" arrivalPos="166.65" arrivalSpeed="16.34" duration="54.00" routeLength="239.81" waitingTime="17.00" waitingCount="1" stopTime="0.00" timeLoss="39.13" rerouteNo="0" devices="tripinfo_flow_route_107_duration_20250327_1930.7" vType="car" speedFactor="0.95" vaporized=""/>
    <tripinfo id="flow_route_107_duration_20250327_1930.13" depart="57.00" departLane="1254519229#0_0" departPos="3.86" departSpeed="0.00" departDelay="31.00" arrival="83.00" arrivalLane="1342963997_0" arrivalPos="121.26" arrivalSpeed="16.24" duration="26.00" routeLength="217.98" waitingTime="0.00" waitingCount="0" stopTime="0.00" timeLoss="11.99" rerouteNo="0" devices="tripinfo_flow_route_107_duration_20250327_1930.13" vType="car" speedFactor="0.88" vaporized=""/>
    <tripinfo id="flow_route_107_duration_20250327_1930.16" depart="76.00" departLane="1254519229#0_0" departPos="60.60" departSpeed="0.00" departDelay="44.00" arrival="86.00" arrivalLane="1342963997_0" arrivalPos="2.09" arrivalSpeed="7.75" duration="10.00" routeLength="42.08" waitingTime="0.00" waitingCount="0" stopTime="0.00" timeLoss="7.42" rerouteNo="0" devices="tripinfo_flow_route_107_duration_20250327_1930.16" vType="car" speedFactor="0.97" vaporized=""/>
    <tripinfo id="flow_route_106_duration_20250327_1930.7" depart="28.00" departLane="1254519229#0_0" departPos="8.19" departSpeed="0.00" departDelay="11.20" arrival="88.00" arrivalLane="430416184_1" arrivalPos="196.27" arrivalSpeed="16.26" duration="60.00" routeLength="288.76" waitingTime="18.00" waitingCount="2" stopTime="0.00" timeLoss="41.60" rerouteNo="0" devices="tripinfo_flow_route_106_duration_20250327_1930.7" vType="car" speedFactor="1.01" vaporized=""/>
    <tripinfo id="flow_route_107_duration_20250327_1930.14" depart="69.00" departLane="1254519229#0_0" departPos="1.31" departSpeed="0.00" departDelay="41.00" arrival="95.00" arrivalLane="1342963997_0" arrivalPos="68.14" arrivalSpeed="13.28" duration="26.00" routeLength="167.41" waitingTime="0.00" waitingCount="0" stopTime="0.00" timeLoss="15.29" rerouteNo="0" devices="tripinfo_flow_route_107_duration_20250327_1930.14" vType="car" speedFactor="1.02" vaporized=""/>
    <tripinfo id="flow_route_107_duration_20250327_1930.15" depart="72.00" departLane="1254519229#0_0" departPos="68.06" departSpeed="0.00" departDelay="42.00" arrival="95.00" arrivalLane="1342963997_0" arrivalPos="162.21" arrivalSpeed="16.40" duration="23.00" routeLength="194.73" waitingTime="0.00" waitingCount="0" stopTime="0.00" timeLoss="10.96" rerouteNo="0" devices="tripinfo_flow_route_107_duration_20250327_1930.15" vType="car" speedFactor="0.90" vaporized=""/>
    <tripinfo id="flow_route_106_duration_20250327_1930.9" depart="44.00" departLane="1254519229#0_0" departPos="6.77" departSpeed="0.00" departDelay="22.40" arrival="96.00" arrivalLane="430416184_1" arrivalPos="280.94" arrivalSpeed="16.30" duration="52.00" routeLength="374.86" waitingTime="4.00" waitingCount="1" stopTime="0.00" timeLoss="27.76" rerouteNo="0" devices="tripinfo_flow_route_106_duration_20250327_1930.9" vType="car" speedFactor="0.96" vaporized=""/>
    <tripinfo id="flow_route_106_duration_20250327_1930.10" depart="51.00" departLane="1254519229#0_0" departPos="2.51" departSpeed="0.00" departDelay="27.00" arrival="96.00" arrivalLane="430416184_1" arrivalPos="81.32" arrivalSpeed="13.96" duration="45.00" routeLength="179.49" waitingTime="6.00" waitingCount="3" stopTime="0.00" timeLoss="33.26" rerouteNo="0" devices="tripinfo_flow_route_106_duration_20250327_1930.10" vType="car" speedFactor="1.04" vaporized=""/>
    <tripinfo id="flow_route_106_duration_20250327_1930.11" depart="67.00" departLane="1254519229#0_0" departPos="26.06" departSpeed="0.00" departDelay="40.60" arrival="99.00" arrivalLane="430416184_1" arrivalPos="261.55" arrivalSpeed="16.55" duration="32.00" routeLength="336.17" waitingTime="0.00" waitingCount="0" stopTime="0.00" timeLoss="10.38" rerouteNo="0" devices="tripinfo_flow_route_106_duration_20250327_1930.11" vType="car" speedFactor="0.85" vaporized=""/>
    <tripinfo id="flow_route_100_duration_20250327_1930.3" depart="30.00" departLane="186409193_0" departPos="9.79" departSpeed="0.00" departDelay="10.00" arrival="103.00" arrivalLane="1254519229#0_1" arrivalPos="69.67" arrivalSpeed="3.66" duration="73.00" routeLength="291.50" waitingTime="23.00" waitingCount="2" stopTime="0.00" timeLoss="54.10" rerouteNo="0" devices="tripinfo_flow_route_100_duration_20250327_1930.3" vType="car" speedFactor="0.97" vaporized=""/>
    <tripinfo id="flow_route_106_duration_20250327_1930.12" depart="71.00" departLane="1254519229#0_0" departPos="27.76" departSpeed="0.00" departDelay="42.20" arrival="103.00" arrivalLane="430416184_1" arrivalPos="273.22" arrivalSpeed="16.41" duration="32.00" routeLength="346.14" waitingTime="0.00" waitingCount="0" stopTime="0.00" timeLoss="10.30" rerouteNo="0" devices="tripinfo_flow_route_106_duration_20250327_1930.12" vType="car" speedFactor="1.00" vaporized=""/>
    <tripinfo id="flow_route_106_duration_20250327_1930.14" depart="77.00" departLane="1254519229#0_0" departPos="20.79" departSpeed="0.00" departDelay="43.40" arrival="107.00" arrivalLane="430416184_1" arrivalPos="226.74" arrivalSpeed="16.45" duration="30.00" routeLength="306.62" waitingTime="0.00" waitingCount="0" stopTime="0.00" timeLoss="10.42" rerouteNo="0" devices="tripinfo_flow_route_106_duration_20250327_1930.14" vType="car" speedFactor="0.99" vaporized=""/>
    <tripinfo id="flow_route_107_duration_20250327_1930.20" depart="88.00" departLane="1254519229#0_0" departPos="50.57" departSpeed="0.00" departDelay="48.00" arrival="109.00" arrivalLane="1342963997_0" arrivalPos="34.21" arrivalSpeed="9.32" duration="21.00" routeLength="84.22" waitingTime="0.00" waitingCount="0" stopTime="0.00" timeLoss="15.91" rerouteNo="0" devices="tripinfo_flow_route_107_duration_20250327_1930.20" vType="car" speedFactor="0.96" vaporized=""/>
    <tripinfo id="flow_route_106_duration_20250327_1930.15" depart="78.00" departLane="1254519229#0_0" departPos="21.82" departSpeed="0.00" departDelay="42.00" arrival="110.00" arrivalLane="430416184_1" arrivalPos="128.57" arrivalSpeed="15.10" duration="32.00" routeLength="207.43" waitingTime="2.00" waitingCount="1" stopTime="0.00" timeLoss="18.26" rerouteNo="0" devices="tripinfo_flow_route_106_duration_20250327_1930.15" vType="car" speedFactor="0.91" vaporized=""/>
    <tripinfo id="flow_route_106_duration_20250327_1930.17" depart="89.00" departLane="1254519229#0_0" departPos="69.32" departSpeed="0.00" departDelay="48.20" arrival="110.00" arrivalLane="430416184_1" arrivalPos="63.80" arrivalSpeed="11.97" duration="21.00" routeLength="95.16" waitingTime="0.00" waitingCount="0" stopTime="0.00" timeLoss="14.10" rerouteNo="0" devices="tripinfo_flow_route_106_duration_20250327_1930.17" vType="car" speedFactor="0.98" vaporized=""/>
    <tripinfo id="flow_route_107_duration_20250327_1930.19" depart="84.00" departLane="1254519229#0_0" departPos="28.56" departSpeed="0.00" departDelay="46.00" arrival="112.00" arrivalLane="1342963997_0" arrivalPos="40.58" arrivalSpeed="10.47" duration="28.00" routeLength="112.60" waitingTime="0.00" waitingCount="0" stopTime="0.00" timeLoss="20.89" rerouteNo="0" devices="tripinfo_flow_route_107_duration_20250327_1930.19" vType="car" speedFactor="1.02" vaporized=""/>
    <tripinfo id="flow_route_106_duration_20250327_1930.18" depart="97.00" departLane="1254519229#0_0" departPos="42.06" departSpeed="0.00" departDelay="53.80" arrival="113.00" arrivalLane="430416184_1" arrivalPos="2.12" arrivalSpeed="9.12" duration="16.00" routeLength="60.74" waitingTime="0.00" waitingCount="0" stopTime="0.00" timeLoss="11.39" rerouteNo="0" devices="tripinfo_flow_route_106_duration_20250327_1930.18" vType="car" speedFactor="1.03" vaporized=""/>
    <tripinfo id="flow_route_107_duration_20250327_1930.18" depart="82.00" departLane="1254519229#0_0" departPos="4.80" departSpeed="0.00" departDelay="46.00" arrival="116.00" arrivalLane="1342963997_1" arrivalPos="65.81" arrivalSpeed="13.34" duration="34.00" routeLength="161.60" waitingTime="0.00" waitingCount="0" stopTime="0.00" timeLoss="24.13" rerouteNo="0" devices="tripinfo_flow_route_107_duration_20250327_1930.18" vType="car" speedFactor="0.91" vaporized=""/>
    <tripinfo id="flow_route_107_duration_20250327_1930.17" depart="78.00" departLane="1254519229#0_0" departPos="11.89" departSpeed="0.00" departDelay="44.00" arrival="117.00" arrivalLane="1342963997_0" arrivalPos="83.12" arrivalSpeed="13.59" duration="39.00" routeLength="171.80" waitingTime="2.00" waitingCount="1" stopTime="0.00" timeLoss="28.46" rerouteNo="0" devices="tripinfo_flow_route_107_duration_20250327_1930.17" vType="car" speedFactor="0.94" vaporized=""/>
    <tripinfo id="flow_route_106_duration_20250327_1930.16" depart="86.00" departLane="1254519229#0_0" departPos="74.43" departSpeed="0.00" departDelay="47.60" arrival="117.00" arrivalLane="430416184_0" arrivalPos="265.93" arrivalSpeed="16.35" duration="31.00" routeLength="292.18" waitingTime="0.00" waitingCount="0" stopTime="0.00" timeLoss="12.05" rerouteNo="0" devices="tripinfo_flow_route_106_duration_20250327_1930.16" vType="car" speedFactor="0.97" vaporized=""/>
    <tripinfo id="flow_route_107_duration_20250327_1930.21" depart="92.00" departLane="1254519229#0_0" departPos="9.49" departSpeed="0.00" departDelay="50.00" arrival="118.00" arrivalLane="1342963997_0" arrivalPos="72.42" arrivalSpeed="13.29" duration="26.00" routeLength="163.51" waitingTime="0.00" waitingCount="0" stopTime="0.00" timeLoss="15.93" rerouteNo="0" devices="tripinfo_flow_route_107_duration_20250327_1930.21" vType="car" speedFactor="0.98" vaporized=""/>
    <tripinfo id="flow_route_106_duration_20250327_1930.13" depart="74.00" departLane="1254519229#0_0" departPos="3.43" departSpeed="0.00" departDelay="42.80" arrival="125.00" arrivalLane="430416184_1" arrivalPos="265.66" arrivalSpeed="16.27" duration="51.00" routeLength="362.91" waitingTime="2.00" waitingCount="2" stopTime="0.00" timeLoss="27.96" rerouteNo="0" devices="tripinfo_flow_route_106_duration_20250327_1930.13" vType="car" speedFactor="1.02" vaporized=""/>
    <tripinfo id="flow_route_149_duration_20250327_1930.7" depart="33.00" departLane="186410975#0_0" departPos="257.27" departSpeed="0.00" departDelay="0.70" arrival="133.00" arrivalLane="430416184_1" arrivalPos="33.07" arrivalSpeed="10.64" duration="100.00" routeLength="321.47" waitingTime="56.00" waitingCount="1" stopTime="0.00" timeLoss="78.72" rerouteNo="0" devices="tripinfo_flow_route_149_duration_20250327_1930.7" vType="car" speedFactor="1.08" vaporized=""/>
    <tripinfo id="flow_route_149_duration_20250327_1930.1" depart="5.00" departLane="186410975#0_0" departPos="242.38" departSpeed="0.00" departDelay="0.39" arrival="136.00" arrivalLane="430416184_1" arrivalPos="148.34" arrivalSpeed="15.54" duration="131.00" routeLength="451.64" waitingTime="80.00" waitingCount="1" stopTime="0.00" timeLoss="100.65" rerouteNo="0" devices="tripinfo_flow_route_149_duration_20250327_1930.1" vType="car" speedFactor="1.03" vaporized=""/>
    <tripinfo id="flow_route_149_duration_20250327_1930.3" depart="14.00" departLane="186410975#0_0" departPos="87.50" departSpeed="0.00" departDelay="0.16" arrival="136.00" arrivalLane="430416184_1" arrivalPos="19.37" arrivalSpeed="11.19" duration="122.00" routeLength="477.54" waitingTime="55.00" waitingCount="1" stopTime="0.00" timeLoss="87.80" rerouteNo="0" devices="tripinfo_flow_route_149_duration_20250327_1930.3" vType="car" speedFactor="1.13" vaporized=""/>
    <tripinfo id="flow_route_149_duration_20250327_1930.0" depart="0.00" departLane="186410975#0_0" departPos="192.32" departSpeed="0.00" departDelay="0.00" arrival="139.00" arrivalLane="430416184_1" arrivalPos="170.61" arrivalSpeed="16.59" duration="139.00" routeLength="523.96" waitingTime="77.00" waitingCount="1" stopTime="0.00" timeLoss="102.94" rerouteNo="0" devices="tripinfo_flow_route_149_duration_20250327_1930.0" vType="car" speedFactor="1.03" vaporized=""/>
    <tripinfo id="flow_route_149_duration_20250327_1930.9" depart="42.00" departLane="186410975#0_0" departPos="191.28" departSpeed="0.00" departDelay="0.47" arrival="141.00" arrivalLane="430416184_1" arrivalPos="24.46" arrivalSpeed="12.51" duration="99.00" routeLength="378.85" waitingTime="44.00" waitingCount="1" stopTime="0.00" timeLoss="71.80" rerouteNo="0" devices="tripinfo_flow_route_149_duration_20250327_1930.9" vType="car" speedFactor="1.01" vaporized=""/>