<?xml version="1.0" encoding="UTF-8"?>

<!-- generated on 2025-05-06 21:08:54 by Eclipse SUMO sumo Version 1.20.0
<configuration xmlns:xsi="http://www.w3.org/2001/XMLSchema-instance" xsi:noNamespaceSchemaLocation="http://sumo.dlr.de/xsd/sumoConfiguration.xsd">

    <input>
        <net-file value="osm.net.xml"/>
        <route-files value="xml/route_rl_cluster3839130731_cluster_11644940326_11644940327_11648561426_7.rou.xml"/>
    </input>

    <output>
        <tripinfo-output value="xml/tripinfo_rl_cluster3839130731_cluster_11644940326_11644940327_11648561426_7.xml"/>
    </output>

    <traci_server>
        <remote-port value="38405"/>
    </traci_server>

</configuration>
-->

<tripinfos xmlns:xsi="http://www.w3.org/2001/XMLSchema-instance" xsi:noNamespaceSchemaLocation="http://sumo.dlr.de/xsd/tripinfo_file.xsd">
    <tripinfo id="flow_route_123_duration_20250327_2200.0" depart="0.00" departLane="189240000#0-AddedOnRampEdge_0" departPos="5.69" departSpeed="0.00" departDelay="0.00" arrival="23.00" arrivalLane="1254519229#0_1" arrivalPos="19.69" arrivalSpeed="12.20" duration="23.00" routeLength="159.84" waitingTime="0.00" waitingCount="0" stopTime="0.00" timeLoss="11.28" rerouteNo="0" devices="tripinfo_flow_route_123_duration_20250327_2200.0" vType="car" speedFactor="0.89" vaporized=""/>
    <tripinfo id="flow_route_123_duration_20250327_2200.1" depart="9.00" departLane="189240000#0-AddedOnRampEdge_0" departPos="77.82" departSpeed="0.00" departDelay="0.43" arrival="29.00" arrivalLane="1254519229#0_0" arrivalPos="74.72" arrivalSpeed="14.26" duration="20.00" routeLength="139.23" waitingTime="0.00" waitingCount="0" stopTime="0.00" timeLoss="10.22" rerouteNo="0" devices="tripinfo_flow_route_123_duration_20250327_2200.1" vType="car" speedFactor="1.03" vaporized=""/>
    <tripinfo id="flow_route_123_duration_20250327_2200.2" depart="18.00" departLane="189240000#0-AddedOnRampEdge_0" departPos="91.06" departSpeed="0.00" departDelay="0.86" arrival="31.00" arrivalLane="1254519229#0_0" arrivalPos="9.98" arrivalSpeed="10.11" duration="13.00" routeLength="61.24" waitingTime="0.00" waitingCount="0" stopTime="0.00" timeLoss="8.51" rerouteNo="0" devices="tripinfo_flow_route_123_duration_20250327_2200.2" vType="car" speedFactor="1.16" vaporized=""/>
    <tripinfo id="flow_route_96_duration_20250327_2200.0" depart="0.00" departLane="1341093416#0_0" departPos="184.53" departSpeed="0.00" departDelay="0.00" arrival="32.00" arrivalLane="1254519229#0_1" arrivalPos="3.62" arrivalSpeed="3.66" duration="32.00" routeLength="114.10" waitingTime="9.00" waitingCount="1" stopTime="0.00" timeLoss="23.79" rerouteNo="0" devices="tripinfo_flow_route_96_duration_20250327_2200.0" vType="car" speedFactor="1.01" vaporized=""/>
    <tripinfo id="flow_route_124_duration_20250327_2200.0" depart="0.00" departLane="189240000#0-AddedOnRampEdge_0" departPos="82.66" departSpeed="0.00" departDelay="0.00" arrival="36.00" arrivalLane="1254519225#0.109_3" arrivalPos="34.02" arrivalSpeed="15.43" duration="36.00" routeLength="196.39" waitingTime="4.00" waitingCount="1" stopTime="0.00" timeLoss="21.35" rerouteNo="0" devices="tripinfo_flow_route_124_duration_20250327_2200.0" vType="car" speedFactor="0.94" vaporized=""/>
    <tripinfo id="flow_route_94_duration_20250327_2200.0" depart="0.00" departLane="1341093416#0_0" departPos="204.30" departSpeed="0.00" departDelay="0.00" arrival="37.00" arrivalLane="799091563#0_0" arrivalPos="338.33" arrivalSpeed="16.26" duration="37.00" routeLength="440.38" waitingTime="0.00" waitingCount="0" stopTime="0.00" timeLoss="10.31" rerouteNo="0" devices="tripinfo_flow_route_94_duration_20250327_2200.0" vType="car" speedFactor="1.06" vaporized=""/>
    <tripinfo id="flow_route_124_duration_20250327_2200.1" depart="10.00" departLane="189240000#0-AddedOnRampEdge_0" departPos="22.35" departSpeed="0.00" departDelay="0.00" arrival="38.00" arrivalLane="1254519225#0.109_3" arrivalPos="24.74" arrivalSpeed="16.43" duration="28.00" routeLength="247.42" waitingTime="0.00" waitingCount="0" stopTime="0.00" timeLoss="11.97" rerouteNo="0" devices="tripinfo_flow_route_124_duration_20250327_2200.1" vType="car" speedFactor="1.12" vaporized=""/>
    <tripinfo id="flow_route_95_duration_20250327_2200.1" depart="6.00" departLane="1341093416#0_0" departPos="140.65" departSpeed="0.00" departDelay="0.00" arrival="40.00" arrivalLane="1254519225#0.109_0" arrivalPos="42.65" arrivalSpeed="14.19" duration="34.00" routeLength="284.37" waitingTime="0.00" waitingCount="0" stopTime="0.00" timeLoss="14.20" rerouteNo="0" devices="tripinfo_flow_route_95_duration_20250327_2200.1" vType="car" speedFactor="0.86" vaporized=""/>
    <tripinfo id="flow_route_95_duration_20250327_2200.0" depart="0.00" departLane="1341093416#0_0" departPos="1.65" departSpeed="0.00" departDelay="0.00" arrival="42.00" arrivalLane="1254519225#0.109_0" arrivalPos="44.45" arrivalSpeed="15.49" duration="42.00" routeLength="425.17" waitingTime="0.00" waitingCount="0" stopTime="0.00" timeLoss="14.63" rerouteNo="0" devices="tripinfo_flow_route_95_duration_20250327_2200.0" vType="car" speedFactor="0.94" vaporized=""/>
    <tripinfo id="flow_route_124_duration_20250327_2200.2" depart="20.00" departLane="189240000#0-AddedOnRampEdge_0" departPos="53.97" departSpeed="0.00" departDelay="0.00" arrival="45.00" arrivalLane="1254519225#0.109_3" arrivalPos="13.92" arrivalSpeed="15.88" duration="25.00" routeLength="204.99" waitingTime="0.00" waitingCount="0" stopTime="0.00" timeLoss="11.17" rerouteNo="0" devices="tripinfo_flow_route_124_duration_20250327_2200.2" vType="car" speedFactor="1.01" vaporized=""/>
    <tripinfo id="flow_route_111_duration_20250327_2200.0" depart="0.00" departLane="1253188486#8_0" departPos="138.93" departSpeed="0.00" departDelay="0.00" arrival="46.00" arrivalLane="1254519229#0_0" arrivalPos="3.47" arrivalSpeed="6.83" duration="46.00" routeLength="140.76" waitingTime="16.00" waitingCount="1" stopTime="0.00" timeLoss="37.38" rerouteNo="0" devices="tripinfo_flow_route_111_duration_20250327_2200.0" vType="car" speedFactor="0.83" vaporized=""/>
    <tripinfo id="flow_route_111_duration_20250327_2200.1" depart="7.00" departLane="1253188486#8_0" departPos="155.42" departSpeed="0.00" departDelay="1.55" arrival="46.00" arrivalLane="1254519229#0_1" arrivalPos="3.68" arrivalSpeed="7.66" duration="39.00" routeLength="124.48" waitingTime="13.00" waitingCount="1" stopTime="0.00" timeLoss="31.15" rerouteNo="0" devices="tripinfo_flow_route_111_duration_20250327_2200.1" vType="car" speedFactor="1.09" vaporized=""/>
    <tripinfo id="flow_route_111_duration_20250327_2200.2" depart="11.00" departLane="1253188486#8_0" departPos="74.03" departSpeed="0.00" departDelay="0.09" arrival="48.00" arrivalLane="1254519229#0_1" arrivalPos="2.58" arrivalSpeed="8.42" duration="37.00" routeLength="204.77" waitingTime="3.00" waitingCount="1" stopTime="0.00" timeLoss="24.26" rerouteNo="0" devices="tripinfo_flow_route_111_duration_20250327_2200.2" vType="car" speedFactor="0.99" vaporized=""/>
    <tripinfo id="flow_route_111_duration_20250327_2200.4" depart="22.00" departLane="1253188486#8_0" departPos="199.14" departSpeed="0.00" departDelay="0.18" arrival="52.00" arrivalLane="1254519229#0_0" arrivalPos="19.21" arrivalSpeed="9.36" duration="30.00" routeLength="96.28" waitingTime="2.00" waitingCount="1" stopTime="0.00" timeLoss="24.20" rerouteNo="0" devices="tripinfo_flow_route_111_duration_20250327_2200.4" vType="car" speedFactor="0.97" vaporized=""/>
    <tripinfo id="flow_route_111_duration_20250327_2200.5" depart="28.00" departLane="1253188486#8_0" departPos="229.41" departSpeed="0.00" departDelay="0.73" arrival="54.00" arrivalLane="1254519229#0_0" arrivalPos="55.03" arrivalSpeed="11.34" duration="26.00" routeLength="101.85" waitingTime="4.00" waitingCount="1" stopTime="0.00" timeLoss="19.62" rerouteNo="0" devices="tripinfo_flow_route_111_duration_20250327_2200.5" vType="car" speedFactor="0.87" vaporized=""/>
    <tripinfo id="flow_route_111_duration_20250327_2200.3" depart="17.00" departLane="1253188486#8_0" departPos="81.28" departSpeed="0.00" departDelay="0.64" arrival="55.00" arrivalLane="1254519229#0_1" arrivalPos="54.51" arrivalSpeed="12.53" duration="38.00" routeLength="249.45" waitingTime="0.00" waitingCount="0" stopTime="0.00" timeLoss="22.59" rerouteNo="0" devices="tripinfo_flow_route_111_duration_20250327_2200.3" vType="car" speedFactor="0.94" vaporized=""/>
    <tripinfo id="flow_route_111_duration_20250327_2200.6" depart="33.00" departLane="1253188486#8_0" departPos="134.14" departSpeed="0.00" departDelay="0.28" arrival="55.00" arrivalLane="1254519229#0_0" arrivalPos="22.19" arrivalSpeed="12.21" duration="22.00" routeLength="164.26" waitingTime="0.00" waitingCount="0" stopTime="0.00" timeLoss="11.41" rerouteNo="0" devices="tripinfo_flow_route_111_duration_20250327_2200.6" vType="car" speedFactor="1.15" vaporized=""/>
    <tripinfo id="flow_route_104_duration_20250327_2200.0" depart="0.00" departLane="189240001_0" departPos="36.52" departSpeed="0.00" departDelay="0.00" arrival="56.00" arrivalLane="1254519225#0.109_0" arrivalPos="30.66" arrivalSpeed="15.84" duration="56.00" routeLength="198.30" waitingTime="25.00" waitingCount="1" stopTime="0.00" timeLoss="43.45" rerouteNo="0" devices="tripinfo_flow_route_104_duration_20250327_2200.0" vType="car" speedFactor="1.08" vaporized=""/>
    <tripinfo id="flow_route_104_duration_20250327_2200.1" depart="10.00" departLane="189240001_0" departPos="42.65" departSpeed="0.00" departDelay="0.00" arrival="61.00" arrivalLane="1254519225#0.109_0" arrivalPos="55.38" arrivalSpeed="16.47" duration="51.00" routeLength="216.89" waitingTime="17.00" waitingCount="1" stopTime="0.00" timeLoss="37.01" rerouteNo="0" devices="tripinfo_flow_route_104_duration_20250327_2200.1" vType="car" speedFactor="1.05" vaporized=""/>
    <tripinfo id="flow_route_104_duration_20250327_2200.3" depart="30.00" departLane="189240001_0" departPos="50.27" departSpeed="0.00" departDelay="0.00" arrival="61.00" arrivalLane="1254519225#0.109_0" arrivalPos="30.73" arrivalSpeed="16.41" duration="31.00" routeLength="184.62" waitingTime="1.00" waitingCount="1" stopTime="0.00" timeLoss="19.35" rerouteNo="0" devices="tripinfo_flow_route_104_duration_20250327_2200.3" vType="car" speedFactor="1.13" vaporized=""/>
    <tripinfo id="flow_route_111_duration_20250327_2200.8" depart="44.00" departLane="1253188486#8_0" departPos="166.51" departSpeed="0.00" departDelay="0.37" arrival="62.00" arrivalLane="1254519229#0_0" arrivalPos="16.90" arrivalSpeed="13.48" duration="18.00" routeLength="126.61" waitingTime="0.00" waitingCount="0" stopTime="0.00" timeLoss="10.14" rerouteNo="0" devices="tripinfo_flow_route_111_duration_20250327_2200.8" vType="car" speedFactor="0.90" vaporized=""/>
    <tripinfo id="flow_route_112_duration_20250327_2200.0" depart="0.00" departLane="1253188486#8_0" departPos="64.90" departSpeed="0.00" departDelay="0.00" arrival="64.00" arrivalLane="799091563#0_0" arrivalPos="282.23" arrivalSpeed="16.46" duration="64.00" routeLength="472.04" waitingTime="13.00" waitingCount="1" stopTime="0.00" timeLoss="34.57" rerouteNo="0" devices="tripinfo_flow_route_112_duration_20250327_2200.0" vType="car" speedFactor="1.05" vaporized=""/>
    <tripinfo id="flow_route_104_duration_20250327_2200.4" depart="40.00" departLane="189240001_0" departPos="14.15" departSpeed="0.00" departDelay="0.00" arrival="64.00" arrivalLane="1254519225#0.109_0" arrivalPos="35.38" arrivalSpeed="16.43" duration="24.00" routeLength="225.39" waitingTime="0.00" waitingCount="0" stopTime="0.00" timeLoss="9.81" rerouteNo="0" devices="tripinfo_flow_route_104_duration_20250327_2200.4" vType="car" speedFactor="1.02" vaporized=""/>
    <tripinfo id="flow_route_111_duration_20250327_2200.7" depart="39.00" departLane="1253188486#8_0" departPos="21.10" departSpeed="0.00" departDelay="0.82" arrival="67.00" arrivalLane="1254519229#0_0" arrivalPos="26.98" arrivalSpeed="16.56" duration="28.00" routeLength="282.09" waitingTime="0.00" waitingCount="0" stopTime="0.00" timeLoss="10.45" rerouteNo="0" devices="tripinfo_flow_route_111_duration_20250327_2200.7" vType="car" speedFactor="0.99" vaporized=""/>
    <tripinfo id="flow_route_111_duration_20250327_2200.9" depart="50.00" departLane="1253188486#8_0" departPos="74.27" departSpeed="0.00" departDelay="0.91" arrival="75.00" arrivalLane="1254519229#0_0" arrivalPos="33.19" arrivalSpeed="16.57" duration="25.00" routeLength="235.14" waitingTime="0.00" waitingCount="0" stopTime="0.00" timeLoss="10.53" rerouteNo="0" devices="tripinfo_flow_route_111_duration_20250327_2200.9" vType="car" speedFactor="1.04" vaporized=""/>
    <tripinfo id="flow_route_112_duration_20250327_2200.1" depart="30.00" departLane="1253188486#8_0" departPos="37.25" departSpeed="0.00" departDelay="0.00" arrival="77.00" arrivalLane="799091563#0_0" arrivalPos="220.26" arrivalSpeed="15.31" duration="47.00" routeLength="437.72" waitingTime="0.00" waitingCount="0" stopTime="0.00" timeLoss="18.68" rerouteNo="0" devices="tripinfo_flow_route_112_duration_20250327_2200.1" vType="car" speedFactor="0.93" vaporized=""/>
    <tripinfo id="flow_route_104_duration_20250327_2200.2" depart="20.00" departLane="189240001_0" departPos="13.16" departSpeed="0.00" departDelay="0.00" arrival="79.00" arrivalLane="1254519225#0.109_0" arrivalPos="16.48" arrivalSpeed="14.49" duration="59.00" routeLength="207.48" waitingTime="21.00" waitingCount="2" stopTime="0.00" timeLoss="46.16" rerouteNo="0" devices="tripinfo_flow_route_104_duration_20250327_2200.2" vType="car" speedFactor="1.02" vaporized=""/>
    <tripinfo id="flow_route_123_duration_20250327_2200.5" depart="43.00" departLane="189240000#0-AddedOnRampEdge_0" departPos="27.38" departSpeed="0.00" departDelay="0.15" arrival="87.00" arrivalLane="1254519229#0_0" arrivalPos="28.00" arrivalSpeed="8.54" duration="44.00" routeLength="142.94" waitingTime="13.00" waitingCount="1" stopTime="0.00" timeLoss="34.89" rerouteNo="0" devices="tripinfo_flow_route_123_duration_20250327_2200.5" vType="car" speedFactor="1.10" vaporized=""/>
    <tripinfo id="flow_route_123_duration_20250327_2200.3" depart="26.00" departLane="189240000#0-AddedOnRampEdge_0" departPos="56.29" departSpeed="0.00" departDelay="0.29" arrival="88.00" arrivalLane="1254519229#0_0" arrivalPos="56.94" arrivalSpeed="10.66" duration="62.00" routeLength="142.98" waitingTime="34.00" waitingCount="1" stopTime="0.00" timeLoss="51.40" rerouteNo="0" devices="tripinfo_flow_route_123_duration_20250327_2200.3" vType="car" speedFactor="0.83" vaporized=""/>
    <tripinfo id="flow_route_123_duration_20250327_2200.4" depart="35.00" departLane="189240000#0-AddedOnRampEdge_0" departPos="6.32" departSpeed="0.00" departDelay="0.72" arrival="89.00" arrivalLane="1254519229#0_1" arrivalPos="73.85" arrivalSpeed="12.56" duration="54.00" routeLength="213.37" waitingTime="18.00" waitingCount="1" stopTime="0.00" timeLoss="40.61" rerouteNo="0" devices="tripinfo_flow_route_123_duration_20250327_2200.4" vType="car" speedFactor="1.01" vaporized=""/>
    <tripinfo id="flow_route_123_duration_20250327_2200.6" depart="52.00" departLane="189240000#0-AddedOnRampEdge_0" departPos="46.51" departSpeed="0.00" departDelay="0.57" arrival="90.00" arrivalLane="1254519229#0_1" arrivalPos="49.75" arrivalSpeed="11.06" duration="38.00" routeLength="149.08" waitingTime="7.00" waitingCount="1" stopTime="0.00" timeLoss="28.05" rerouteNo="0" devices="tripinfo_flow_route_123_duration_20250327_2200.6" vType="car" speedFactor="1.09" vaporized=""/>
    <tripinfo id="flow_route_95_duration_20250327_2200.4" depart="24.00" departLane="1341093416#0_0" departPos="183.19" departSpeed="0.00" departDelay="0.00" arrival="93.00" arrivalLane="1254519225#0.109_0" arrivalPos="5.55" arrivalSpeed="13.91" duration="69.00" routeLength="204.73" waitingTime="34.00" waitingCount="1" stopTime="0.00" timeLoss="54.32" rerouteNo="0" devices="tripinfo_flow_route_95_duration_20250327_2200.4" vType="car" speedFactor="0.89" vaporized=""/>
    <tripinfo id="flow_route_95_duration_20250327_2200.5" depart="30.00" departLane="1341093416#0_0" departPos="261.83" departSpeed="0.00" departDelay="0.00" arrival="95.00" arrivalLane="1254519225#0.109_0" arrivalPos="59.89" arrivalSpeed="15.08" duration="65.00" routeLength="180.44" waitingTime="37.00" waitingCount="1" stopTime="0.00" timeLoss="51.78" rerouteNo="0" devices="tripinfo_flow_route_95_duration_20250327_2200.5" vType="car" speedFactor="0.92" vaporized=""/>
    <tripinfo id="flow_route_95_duration_20250327_2200.3" depart="18.00" departLane="1341093416#0_0" departPos="112.79" departSpeed="0.00" departDelay="0.00" arrival="96.00" arrivalLane="1254519225#0.109_0" arrivalPos="8.07" arrivalSpeed="14.07" duration="78.00" routeLength="277.66" waitingTime="32.00" waitingCount="1" stopTime="0.00" timeLoss="59.55" rerouteNo="0" devices="tripinfo_flow_route_95_duration_20250327_2200.3" vType="car" speedFactor="0.94" vaporized=""/>
    <tripinfo id="flow_route_96_duration_20250327_2200.2" depart="30.00" departLane="1341093416#0_0" departPos="50.27" departSpeed="0.00" departDelay="0.00" arrival="96.00" arrivalLane="1254519229#0_1" arrivalPos="24.49" arrivalSpeed="7.28" duration="66.00" routeLength="269.23" waitingTime="22.00" waitingCount="2" stopTime="0.00" timeLoss="48.29" rerouteNo="0" devices="tripinfo_flow_route_96_duration_20250327_2200.2" vType="car" speedFactor="0.95" vaporized=""/>
    <tripinfo id="flow_route_105_duration_20250327_2200.0" depart="1.00" departLane="189240001_0" departPos="25.23" departSpeed="0.00" departDelay="1.00" arrival="99.00" arrivalLane="799091563#0_2" arrivalPos="224.02" arrivalSpeed="16.14" duration="98.00" routeLength="308.35" waitingTime="53.00" waitingCount="2" stopTime="0.00" timeLoss="79.05" rerouteNo="0" devices="tripinfo_flow_route_105_duration_20250327_2200.0" vType="car" speedFactor="1.03" vaporized=""/>
    <tripinfo id="flow_route_96_duration_20250327_2200.1" depart="15.00" departLane="1341093416#0_0" departPos="8.18" departSpeed="0.00" departDelay="0.00" arrival="99.00" arrivalLane="1254519229#0_1" arrivalPos="76.12" arrivalSpeed="10.75" duration="84.00" routeLength="362.95" waitingTime="33.00" waitingCount="2" stopTime="0.00" timeLoss="60.81" rerouteNo="0" devices="tripinfo_flow_route_96_duration_20250327_2200.1" vType="car" speedFactor="0.88" vaporized=""/>
    <tripinfo id="flow_route_95_duration_20250327_2200.7" depart="42.00" departLane="1341093416#0_0" departPos="197.93" departSpeed="0.00" departDelay="0.00" arrival="99.00" arrivalLane="1254519225#0.109_0" arrivalPos="4.99" arrivalSpeed="14.30" duration="57.00" routeLength="189.43" waitingTime="22.00" waitingCount="1" stopTime="0.00" timeLoss="44.68" rerouteNo="0" devices="tripinfo_flow_route_95_duration_20250327_2200.7" vType="car" speedFactor="1.18" vaporized=""/>
    <tripinfo id="flow_route_96_duration_20250327_2200.3" depart="45.00" departLane="1341093416#0_0" departPos="168.66" departSpeed="0.00" departDelay="0.00" arrival="99.00" arrivalLane="1254519229#0_1" arrivalPos="33.68" arrivalSpeed="9.15" duration="54.00" routeLength="160.03" waitingTime="15.00" waitingCount="2" stopTime="0.00" timeLoss="43.28" rerouteNo="0" devices="tripinfo_flow_route_96_duration_20250327_2200.3" vType="car" speedFactor="1.03" vaporized=""/>
    <tripinfo id="flow_route_95_duration_20250327_2200.2" depart="12.00" departLane="1341093416#0_0" departPos="43.63" departSpeed="0.00" departDelay="0.00" arrival="100.00" arrivalLane="1254519225#0.109_0" arrivalPos="47.70" arrivalSpeed="15.22" duration="88.00" routeLength="386.44" waitingTime="32.00" waitingCount="1" stopTime="0.00" timeLoss="62.87" rerouteNo="0" devices="tripinfo_flow_route_95_duration_20250327_2200.2" vType="car" speedFactor="0.93" vaporized=""/>
    <tripinfo id="flow_route_124_duration_20250327_2200.3" depart="30.00" departLane="189240000#0-AddedOnRampEdge_0" departPos="2.63" departSpeed="0.00" departDelay="0.00" arrival="100.00" arrivalLane="1254519225#0.109_3" arrivalPos="10.51" arrivalSpeed="13.83" duration="70.00" routeLength="252.91" waitingTime="28.00" waitingCount="2" stopTime="0.00" timeLoss="53.50" rerouteNo="0" devices="tripinfo_flow_route_124_duration_20250327_2200.3" vType="car" speedFactor="1.18" vaporized=""/>
    <tripinfo id="flow_route_95_duration_20250327_2200.6" depart="37.00" departLane="1341093416#0_0" departPos="86.06" departSpeed="0.00" departDelay="1.00" arrival="101.00" arrivalLane="1254519225#0.109_0" arrivalPos="11.17" arrivalSpeed="14.36" duration="64.00" routeLength="307.48" waitingTime="19.00" waitingCount="1" stopTime="0.00" timeLoss="44.62" rerouteNo="0" devices="tripinfo_flow_route_95_duration_20250327_2200.6" vType="car" speedFactor="1.17" vaporized=""/>
    <tripinfo id="flow_route_124_duration_20250327_2200.4" depart="40.00" departLane="189240000#0-AddedOnRampEdge_0" departPos="4.42" departSpeed="0.00" departDelay="0.00" arrival="102.00" arrivalLane="1254519225#0.109_3" arrivalPos="12.93" arrivalSpeed="15.22" duration="62.00" routeLength="253.53" waitingTime="18.00" waitingCount="2" stopTime="0.00" timeLoss="44.50" rerouteNo="0" devices="tripinfo_flow_route_124_duration_20250327_2200.4" vType="car" speedFactor="0.97" vaporized=""/>
    <tripinfo id="flow_route_124_duration_20250327_2200.5" depart="50.00" departLane="189240000#0-AddedOnRampEdge_0" departPos="9.89" departSpeed="0.00" departDelay="0.00" arrival="105.00" arrivalLane="1254519225#0.109_3" arrivalPos="22.78" arrivalSpeed="15.18" duration="55.00" routeLength="257.93" waitingTime="9.00" waitingCount="2" stopTime="0.00" timeLoss="37.76" rerouteNo="0" devices="tripinfo_flow_route_124_duration_20250327_2200.5" vType="car" speedFactor="1.04" vaporized=""/>
    <tripinfo id="flow_route_95_duration_20250327_2200.9" depart="55.00" departLane="1341093416#0_0" departPos="157.29" departSpeed="0.00" departDelay="1.00" arrival="106.00" arrivalLane="1254519225#0.109_0" arrivalPos="44.34" arrivalSpeed="16.44" duration="51.00" routeLength="269.42" waitingTime="10.00" waitingCount="1" stopTime="0.00" timeLoss="32.94" rerouteNo="0" devices="tripinfo_flow_route_95_duration_20250327_2200.9" vType="car" speedFactor="1.00" vaporized=""/>
    <tripinfo id="flow_route_95_duration_20250327_2200.8" depart="53.00" departLane="1341093416#0_0" departPos="116.56" departSpeed="0.00" departDelay="5.00" arrival="107.00" arrivalLane="1254519225#0.109_0" arrivalPos="24.32" arrivalSpeed="14.83" duration="54.00" routeLength="290.13" waitingTime="10.00" waitingCount="1" stopTime="0.00" timeLoss="35.23" rerouteNo="0" devices="tripinfo_flow_route_95_duration_20250327_2200.8" vType="car" speedFactor="0.96" vaporized=""/>
    <tripinfo id="flow_route_111_duration_20250327_2200.10" depart="56.00" departLane="1253188486#8_0" departPos="72.70" departSpeed="0.00" departDelay="1.46" arrival="126.00" arrivalLane="1254519229#0_0" arrivalPos="69.53" arrivalSpeed="11.91" duration="70.00" routeLength="273.05" waitingTime="31.00" waitingCount="1" stopTime="0.00" timeLoss="53.49" rerouteNo="0" devices="tripinfo_flow_route_111_duration_20250327_2200.10" vType="car" speedFactor="0.90" vaporized=""/>
    <tripinfo id="flow_route_104_duration_20250327_2200.5" depart="50.00" departLane="189240001_0" departPos="1.87" departSpeed="0.00" departDelay="0.00" arrival="130.00" arrivalLane="1254519225#0.109_0" arrivalPos="36.50" arrivalSpeed="15.74" duration="80.00" routeLength="238.79" waitingTime="43.00" waitingCount="1" stopTime="0.00" timeLoss="65.43" rerouteNo="0" devices="tripinfo_flow_route_104_duration_20250327_2200.5" vType="car" speedFactor="1.09" vaporized=""/>
</tripinfos>
