<?xml version="1.0" encoding="UTF-8"?>

<!-- generated on 2025-05-06 21:07:55 by Eclipse SUMO sumo Version 1.20.0
<configuration xmlns:xsi="http://www.w3.org/2001/XMLSchema-instance" xsi:noNamespaceSchemaLocation="http://sumo.dlr.de/xsd/sumoConfiguration.xsd">

    <input>
        <net-file value="osm.net.xml"/>
        <route-files value="xml/route_static_cluster_11648561419_11648561420_2271142975_4854142869_1.rou.xml"/>
    </input>

    <output>
        <tripinfo-output value="xml/tripinfo_static_cluster_11648561419_11648561420_2271142975_4854142869_1.xml"/>
    </output>

    <traci_server>
        <remote-port value="33975"/>
    </traci_server>

</configuration>
-->

<tripinfos xmlns:xsi="http://www.w3.org/2001/XMLSchema-instance" xsi:noNamespaceSchemaLocation="http://sumo.dlr.de/xsd/tripinfo_file.xsd">
    <tripinfo id="flow_route_119_duration_20250327_2210.0" depart="0.00" departLane="134194079#0_0" departPos="151.34" departSpeed="0.00" departDelay="0.00" arrival="23.00" arrivalLane="1253188486#8_0" arrivalPos="1.48" arrivalSpeed="8.74" duration="23.00" routeLength="161.10" waitingTime="0.00" waitingCount="0" stopTime="0.00" timeLoss="12.11" rerouteNo="0" devices="tripinfo_flow_route_119_duration_20250327_2210.0" vType="car" speedFactor="1.09" vaporized=""/>
    <tripinfo id="flow_route_118_duration_20250327_2210.1" depart="4.00" departLane="134194079#0_0" departPos="277.04" departSpeed="0.00" departDelay="0.00" arrival="26.00" arrivalLane="1328664744#0_0" arrivalPos="140.54" arrivalSpeed="16.37" duration="22.00" routeLength="184.65" waitingTime="0.00" waitingCount="0" stopTime="0.00" timeLoss="10.70" rerouteNo="0" devices="tripinfo_flow_route_118_duration_20250327_2210.1" vType="car" speedFactor="1.03" vaporized=""/>
    <tripinfo id="flow_route_118_duration_20250327_2210.3" depart="12.00" departLane="134194079#0_0" departPos="284.56" departSpeed="0.00" departDelay="0.00" arrival="26.00" arrivalLane="1328664744#0_0" arrivalPos="28.70" arrivalSpeed="10.26" duration="14.00" routeLength="65.29" waitingTime="0.00" waitingCount="0" stopTime="0.00" timeLoss="9.62" rerouteNo="0" devices="tripinfo_flow_route_118_duration_20250327_2210.3" vType="car" speedFactor="1.16" vaporized=""/>
    <tripinfo id="flow_route_97_duration_20250327_2210.0" depart="0.00" departLane="1328664748#0_0" departPos="149.74" departSpeed="0.00" departDelay="0.00" arrival="27.00" arrivalLane="135474719#0_0" arrivalPos="137.46" arrivalSpeed="15.89" duration="27.00" routeLength="222.45" waitingTime="0.00" waitingCount="0" stopTime="0.00" timeLoss="12.48" rerouteNo="0" devices="tripinfo_flow_route_97_duration_20250327_2210.0" vType="car" speedFactor="1.06" vaporized=""/>
    <tripinfo id="flow_route_98_duration_20250327_2210.0" depart="0.00" departLane="1328664748#0_0" departPos="103.72" departSpeed="0.00" departDelay="0.00" arrival="27.00" arrivalLane="177211987#1_0" arrivalPos="104.29" arrivalSpeed="15.41" duration="27.00" routeLength="249.04" waitingTime="0.00" waitingCount="0" stopTime="0.00" timeLoss="10.81" rerouteNo="0" devices="tripinfo_flow_route_98_duration_20250327_2210.0" vType="car" speedFactor="0.94" vaporized=""/>
    <tripinfo id="flow_route_118_duration_20250327_2210.6" depart="24.00" departLane="134194079#0_0" departPos="273.81" departSpeed="0.00" departDelay="0.00" arrival="38.00" arrivalLane="1328664744#0_0" arrivalPos="33.68" arrivalSpeed="11.61" duration="14.00" routeLength="81.02" waitingTime="0.00" waitingCount="0" stopTime="0.00" timeLoss="8.84" rerouteNo="0" devices="tripinfo_flow_route_118_duration_20250327_2210.6" vType="car" speedFactor="1.18" vaporized=""/>
    <tripinfo id="flow_route_118_duration_20250327_2210.2" depart="8.00" departLane="134194079#0_0" departPos="69.84" departSpeed="0.00" departDelay="0.00" arrival="40.00" arrivalLane="1328664744#0_1" arrivalPos="87.98" arrivalSpeed="14.56" duration="32.00" routeLength="339.29" waitingTime="0.00" waitingCount="0" stopTime="0.00" timeLoss="11.12" rerouteNo="0" devices="tripinfo_flow_route_118_duration_20250327_2210.2" vType="car" speedFactor="1.12" vaporized=""/>
    <tripinfo id="flow_route_119_duration_20250327_2210.2" depart="15.00" departLane="134194079#0_0" departPos="168.64" departSpeed="0.00" departDelay="0.00" arrival="40.00" arrivalLane="1253188486#8_0" arrivalPos="41.21" arrivalSpeed="11.24" duration="25.00" routeLength="183.52" waitingTime="0.00" waitingCount="0" stopTime="0.00" timeLoss="12.91" rerouteNo="0" devices="tripinfo_flow_route_119_duration_20250327_2210.2" vType="car" speedFactor="1.01" vaporized=""/>
    <tripinfo id="flow_route_118_duration_20250327_2210.5" depart="20.00" departLane="134194079#0_0" departPos="283.20" departSpeed="0.00" departDelay="0.00" arrival="43.00" arrivalLane="1328664744#0_0" arrivalPos="153.43" arrivalSpeed="14.19" duration="23.00" routeLength="191.38" waitingTime="0.00" waitingCount="0" stopTime="0.00" timeLoss="9.10" rerouteNo="0" devices="tripinfo_flow_route_118_duration_20250327_2210.5" vType="car" speedFactor="0.87" vaporized=""/>
    <tripinfo id="flow_route_118_duration_20250327_2210.0" depart="0.00" departLane="134194079#0_0" departPos="13.63" departSpeed="0.00" departDelay="0.00" arrival="44.00" arrivalLane="1328664744#0_1" arrivalPos="165.30" arrivalSpeed="13.92" duration="44.00" routeLength="472.83" waitingTime="0.00" waitingCount="0" stopTime="0.00" timeLoss="10.18" rerouteNo="0" devices="tripinfo_flow_route_118_duration_20250327_2210.0" vType="car" speedFactor="0.86" vaporized=""/>
    <tripinfo id="flow_route_99_duration_20250327_2210.0" depart="1.00" departLane="1328664748#0_0" departPos="68.32" departSpeed="0.00" departDelay="1.00" arrival="45.00" arrivalLane="1253188486#8_2" arrivalPos="11.16" arrivalSpeed="7.77" duration="44.00" routeLength="200.71" waitingTime="10.00" waitingCount="1" stopTime="0.00" timeLoss="31.03" rerouteNo="0" devices="tripinfo_flow_route_99_duration_20250327_2210.0" vType="car" speedFactor="1.01" vaporized=""/>
    <tripinfo id="flow_route_97_duration_20250327_2210.1" depart="30.00" departLane="1328664748#0_0" departPos="160.61" departSpeed="0.00" departDelay="0.00" arrival="46.00" arrivalLane="135474719#0_0" arrivalPos="13.27" arrivalSpeed="9.61" duration="16.00" routeLength="87.38" waitingTime="0.00" waitingCount="0" stopTime="0.00" timeLoss="9.87" rerouteNo="0" devices="tripinfo_flow_route_97_duration_20250327_2210.1" vType="car" speedFactor="1.17" vaporized=""/>
    <tripinfo id="flow_route_99_duration_20250327_2210.2" depart="24.00" departLane="1328664748#0_0" departPos="62.04" departSpeed="0.00" departDelay="0.00" arrival="53.00" arrivalLane="1253188486#8_2" arrivalPos="44.98" arrivalSpeed="12.19" duration="29.00" routeLength="240.82" waitingTime="0.00" waitingCount="0" stopTime="0.00" timeLoss="13.59" rerouteNo="0" devices="tripinfo_flow_route_99_duration_20250327_2210.2" vType="car" speedFactor="1.13" vaporized=""/>
    <tripinfo id="flow_route_99_duration_20250327_2210.3" depart="36.00" departLane="1328664748#0_0" departPos="139.11" departSpeed="0.00" departDelay="0.00" arrival="54.00" arrivalLane="1253188486#8_2" arrivalPos="5.85" arrivalSpeed="12.57" duration="18.00" routeLength="124.61" waitingTime="0.00" waitingCount="0" stopTime="0.00" timeLoss="9.66" rerouteNo="0" devices="tripinfo_flow_route_99_duration_20250327_2210.3" vType="car" speedFactor="1.03" vaporized=""/>
    <tripinfo id="flow_route_99_duration_20250327_2210.1" depart="12.00" departLane="1328664748#0_0" departPos="27.90" departSpeed="0.00" departDelay="0.00" arrival="60.00" arrivalLane="1253188486#8_2" arrivalPos="168.08" arrivalSpeed="16.53" duration="48.00" routeLength="398.05" waitingTime="0.00" waitingCount="0" stopTime="0.00" timeLoss="21.72" rerouteNo="0" devices="tripinfo_flow_route_99_duration_20250327_2210.1" vType="car" speedFactor="0.94" vaporized=""/>
    <tripinfo id="flow_route_110_duration_20250327_2210.0" depart="0.00" departLane="1254519225#0.109_0" departPos="3.76" departSpeed="0.00" departDelay="0.00" arrival="64.00" arrivalLane="177211987#1_2" arrivalPos="6.38" arrivalSpeed="7.86" duration="64.00" routeLength="190.24" waitingTime="32.00" waitingCount="1" stopTime="0.00" timeLoss="48.93" rerouteNo="0" devices="tripinfo_flow_route_110_duration_20250327_2210.0" vType="car" speedFactor="0.83" vaporized=""/>
    <tripinfo id="flow_route_108_duration_20250327_2210.0" depart="0.00" departLane="1254519225#0.109_0" departPos="35.33" departSpeed="0.00" departDelay="0.00" arrival="71.00" arrivalLane="135474719#0_0" arrivalPos="75.82" arrivalSpeed="13.91" duration="71.00" routeLength="240.24" waitingTime="34.00" waitingCount="1" stopTime="0.00" timeLoss="55.81" rerouteNo="0" devices="tripinfo_flow_route_108_duration_20250327_2210.0" vType="car" speedFactor="1.08" vaporized=""/>
    <tripinfo id="flow_route_109_duration_20250327_2210.1" depart="12.00" departLane="1254519225#0.109_0" departPos="25.66" departSpeed="0.00" departDelay="0.00" arrival="72.00" arrivalLane="1328664744#0_0" arrivalPos="73.50" arrivalSpeed="12.63" duration="60.00" routeLength="222.07" waitingTime="24.00" waitingCount="1" stopTime="0.00" timeLoss="44.95" rerouteNo="0" devices="tripinfo_flow_route_109_duration_20250327_2210.1" vType="car" speedFactor="0.94" vaporized=""/>
    <tripinfo id="flow_route_109_duration_20250327_2210.0" depart="0.00" departLane="1254519225#0.109_0" departPos="16.50" departSpeed="0.00" departDelay="0.00" arrival="74.00" arrivalLane="1328664744#0_0" arrivalPos="130.88" arrivalSpeed="15.69" duration="74.00" routeLength="288.61" waitingTime="34.00" waitingCount="1" stopTime="0.00" timeLoss="55.79" rerouteNo="0" devices="tripinfo_flow_route_109_duration_20250327_2210.0" vType="car" speedFactor="1.03" vaporized=""/>
    <tripinfo id="flow_route_108_duration_20250327_2210.1" depart="30.00" departLane="1254519225#0.109_0" departPos="21.95" departSpeed="0.00" departDelay="0.00" arrival="74.00" arrivalLane="135474719#0_2" arrivalPos="87.50" arrivalSpeed="14.35" duration="44.00" routeLength="265.30" waitingTime="4.00" waitingCount="1" stopTime="0.00" timeLoss="27.73" rerouteNo="0" devices="tripinfo_flow_route_108_duration_20250327_2210.1" vType="car" speedFactor="0.99" vaporized=""/>
    <tripinfo id="flow_route_109_duration_20250327_2210.3" depart="36.00" departLane="1254519225#0.109_0" departPos="57.70" departSpeed="0.00" departDelay="0.00" arrival="76.00" arrivalLane="1328664744#0_0" arrivalPos="67.16" arrivalSpeed="13.59" duration="40.00" routeLength="183.69" waitingTime="7.00" waitingCount="1" stopTime="0.00" timeLoss="26.86" rerouteNo="0" devices="tripinfo_flow_route_109_duration_20250327_2210.3" vType="car" speedFactor="0.96" vaporized=""/>
    <tripinfo id="flow_route_109_duration_20250327_2210.2" depart="24.00" departLane="1254519225#0.109_0" departPos="34.11" departSpeed="0.00" departDelay="0.00" arrival="79.00" arrivalLane="1328664744#0_0" arrivalPos="142.35" arrivalSpeed="15.24" duration="55.00" routeLength="282.46" waitingTime="15.00" waitingCount="1" stopTime="0.00" timeLoss="35.54" rerouteNo="0" devices="tripinfo_flow_route_109_duration_20250327_2210.2" vType="car" speedFactor="0.93" vaporized=""/>
    <tripinfo id="flow_route_109_duration_20250327_2210.4" depart="48.00" departLane="1254519225#0.109_0" departPos="9.58" departSpeed="0.00" departDelay="0.00" arrival="79.00" arrivalLane="1328664744#0_0" arrivalPos="86.67" arrivalSpeed="14.55" duration="31.00" routeLength="251.32" waitingTime="0.00" waitingCount="0" stopTime="0.00" timeLoss="14.69" rerouteNo="0" devices="tripinfo_flow_route_109_duration_20250327_2210.4" vType="car" speedFactor="1.17" vaporized=""/>
    <tripinfo id="flow_route_115_duration_20250327_2210.1" depart="11.00" departLane="1253188486#4_0" departPos="4.57" departSpeed="0.00" departDelay="1.00" arrival="95.00" arrivalLane="1328664744#0_2" arrivalPos="35.30" arrivalSpeed="10.57" duration="84.00" routeLength="216.13" waitingTime="49.00" waitingCount="1" stopTime="0.00" timeLoss="69.12" rerouteNo="0" devices="tripinfo_flow_route_115_duration_20250327_2210.1" vType="car" speedFactor="0.88" vaporized=""/>
    <tripinfo id="flow_route_114_duration_20250327_2210.0" depart="0.00" departLane="1253188486#4_0" departPos="49.31" departSpeed="0.00" departDelay="0.00" arrival="97.00" arrivalLane="177211987#1_0" arrivalPos="36.23" arrivalSpeed="10.20" duration="97.00" routeLength="153.37" waitingTime="61.00" waitingCount="1" stopTime="0.00" timeLoss="86.17" rerouteNo="0" devices="tripinfo_flow_route_114_duration_20250327_2210.0" vType="car" speedFactor="0.89" vaporized=""/>
    <tripinfo id="flow_route_115_duration_20250327_2210.0" depart="0.00" departLane="1253188486#4_0" departPos="104.70" departSpeed="0.00" departDelay="0.00" arrival="99.00" arrivalLane="1328664744#0_2" arrivalPos="120.97" arrivalSpeed="15.25" duration="99.00" routeLength="201.67" waitingTime="68.00" waitingCount="1" stopTime="0.00" timeLoss="85.26" rerouteNo="0" devices="tripinfo_flow_route_115_duration_20250327_2210.0" vType="car" speedFactor="0.94" vaporized=""/>
    <tripinfo id="flow_route_113_duration_20250327_2210.6" depart="26.00" departLane="1253188486#4_0" departPos="27.41" departSpeed="0.00" departDelay="0.29" arrival="99.00" arrivalLane="1253188486#8_1" arrivalPos="16.43" arrivalSpeed="11.17" duration="73.00" routeLength="187.65" waitingTime="37.00" waitingCount="1" stopTime="0.00" timeLoss="61.36" rerouteNo="0" devices="tripinfo_flow_route_113_duration_20250327_2210.6" vType="car" speedFactor="1.15" vaporized=""/>
    <tripinfo id="flow_route_115_duration_20250327_2210.3" depart="31.00" departLane="1253188486#4_0" departPos="64.82" departSpeed="0.00" departDelay="1.00" arrival="100.00" arrivalLane="1328664744#0_2" arrivalPos="40.08" arrivalSpeed="11.24" duration="69.00" routeLength="160.66" waitingTime="37.00" waitingCount="1" stopTime="0.00" timeLoss="58.47" rerouteNo="0" devices="tripinfo_flow_route_115_duration_20250327_2210.3" vType="car" speedFactor="0.97" vaporized=""/>
    <tripinfo id="flow_route_113_duration_20250327_2210.2" depart="9.00" departLane="1253188486#4_0" departPos="117.09" departSpeed="0.00" departDelay="0.43" arrival="101.00" arrivalLane="1253188486#8_0" arrivalPos="74.03" arrivalSpeed="14.12" duration="92.00" routeLength="155.57" waitingTime="62.00" waitingCount="1" stopTime="0.00" timeLoss="82.01" rerouteNo="0" devices="tripinfo_flow_route_113_duration_20250327_2210.2" vType="car" speedFactor="0.93" vaporized=""/>
    <tripinfo id="flow_route_113_duration_20250327_2210.3" depart="13.00" departLane="1253188486#4_0" departPos="34.17" departSpeed="0.00" departDelay="0.15" arrival="101.00" arrivalLane="1253188486#8_1" arrivalPos="64.79" arrivalSpeed="13.89" duration="88.00" routeLength="229.24" waitingTime="52.00" waitingCount="1" stopTime="0.00" timeLoss="73.72" rerouteNo="0" devices="tripinfo_flow_route_113_duration_20250327_2210.3" vType="car" speedFactor="1.02" vaporized=""/>
    <tripinfo id="flow_route_113_duration_20250327_2210.7" depart="30.00" departLane="1253188486#4_0" departPos="44.42" departSpeed="0.00" departDelay="0.01" arrival="104.00" arrivalLane="1253188486#8_1" arrivalPos="50.83" arrivalSpeed="13.72" duration="74.00" routeLength="205.04" waitingTime="36.00" waitingCount="1" stopTime="0.00" timeLoss="61.04" rerouteNo="0" devices="tripinfo_flow_route_113_duration_20250327_2210.7" vType="car" speedFactor="1.02" vaporized=""/>
    <tripinfo id="flow_route_113_duration_20250327_2210.0" depart="0.00" departLane="1253188486#4_0" departPos="134.10" departSpeed="0.00" departDelay="0.00" arrival="105.00" arrivalLane="1253188486#8_0" arrivalPos="182.35" arrivalSpeed="16.40" duration="105.00" routeLength="246.88" waitingTime="72.00" waitingCount="1" stopTime="0.00" timeLoss="90.12" rerouteNo="0" devices="tripinfo_flow_route_113_duration_20250327_2210.0" vType="car" speedFactor="1.05" vaporized=""/>
    <tripinfo id="flow_route_113_duration_20250327_2210.1" depart="5.00" departLane="1253188486#4_0" departPos="135.95" departSpeed="0.00" departDelay="0.72" arrival="105.00" arrivalLane="1253188486#8_0" arrivalPos="202.24" arrivalSpeed="16.52" duration="100.00" routeLength="264.92" waitingTime="67.00" waitingCount="1" stopTime="0.00" timeLoss="83.50" rerouteNo="0" devices="tripinfo_flow_route_113_duration_20250327_2210.1" vType="car" speedFactor="1.05" vaporized=""/>
    <tripinfo id="flow_route_113_duration_20250327_2210.4" depart="18.00" departLane="1253188486#4_0" departPos="109.60" departSpeed="0.00" departDelay="0.86" arrival="105.00" arrivalLane="1253188486#8_1" arrivalPos="163.92" arrivalSpeed="16.11" duration="87.00" routeLength="252.95" waitingTime="52.00" waitingCount="1" stopTime="0.00" timeLoss="71.48" rerouteNo="0" devices="tripinfo_flow_route_113_duration_20250327_2210.4" vType="car" speedFactor="0.89" vaporized=""/>
    <tripinfo id="flow_route_115_duration_20250327_2210.2" depart="21.00" departLane="1253188486#4_0" departPos="47.14" departSpeed="0.00" departDelay="1.00" arrival="105.00" arrivalLane="1328664744#0_2" arrivalPos="132.27" arrivalSpeed="13.40" duration="84.00" routeLength="270.53" waitingTime="44.00" waitingCount="1" stopTime="0.00" timeLoss="63.76" rerouteNo="0" devices="tripinfo_flow_route_115_duration_20250327_2210.2" vType="car" speedFactor="0.83" vaporized=""/>
    <tripinfo id="flow_route_115_duration_20250327_2210.4" depart="40.00" departLane="1253188486#4_0" departPos="71.42" departSpeed="0.00" departDelay="0.00" arrival="106.00" arrivalLane="1328664744#0_2" arrivalPos="91.20" arrivalSpeed="14.61" duration="66.00" routeLength="205.18" waitingTime="31.00" waitingCount="1" stopTime="0.00" timeLoss="52.73" rerouteNo="0" devices="tripinfo_flow_route_115_duration_20250327_2210.4" vType="car" speedFactor="1.09" vaporized=""/>
    <tripinfo id="flow_route_113_duration_20250327_2210.8" depart="40.00" departLane="1253188486#4_0" departPos="107.13" departSpeed="0.00" departDelay="5.72" arrival="107.00" arrivalLane="1253188486#8_0" arrivalPos="89.59" arrivalSpeed="14.73" duration="67.00" routeLength="181.09" waitingTime="36.00" waitingCount="1" stopTime="0.00" timeLoss="56.10" rerouteNo="0" devices="tripinfo_flow_route_113_duration_20250327_2210.8" vType="car" speedFactor="0.90" vaporized=""/>
    <tripinfo id="flow_route_113_duration_20250327_2210.5" depart="22.00" departLane="1253188486#4_0" departPos="88.84" departSpeed="0.00" departDelay="0.58" arrival="108.00" arrivalLane="1253188486#8_0" arrivalPos="120.85" arrivalSpeed="16.52" duration="86.00" routeLength="230.63" waitingTime="49.00" waitingCount="1" stopTime="0.00" timeLoss="71.39" rerouteNo="0" devices="tripinfo_flow_route_113_duration_20250327_2210.5" vType="car" speedFactor="0.92" vaporized=""/>
    <tripinfo id="flow_route_113_duration_20250327_2210.12" depart="53.00" departLane="1253188486#4_0" departPos="15.76" departSpeed="0.00" departDelay="1.58" arrival="108.00" arrivalLane="1253188486#8_1" arrivalPos="68.03" arrivalSpeed="14.56" duration="55.00" routeLength="250.90" waitingTime="17.00" waitingCount="1" stopTime="0.00" timeLoss="39.79" rerouteNo="0" devices="tripinfo_flow_route_113_duration_20250327_2210.12" vType="car" speedFactor="1.00" vaporized=""/>
    <tripinfo id="flow_route_113_duration_20250327_2210.10" depart="45.00" departLane="1253188486#4_0" departPos="56.92" departSpeed="0.00" departDelay="2.15" arrival="110.00" arrivalLane="1253188486#8_0" arrivalPos="68.99" arrivalSpeed="14.82" duration="65.00" routeLength="210.71" waitingTime="28.00" waitingCount="1" stopTime="0.00" timeLoss="51.67" rerouteNo="0" devices="tripinfo_flow_route_113_duration_20250327_2210.10" vType="car" speedFactor="0.90" vaporized=""/>
    <tripinfo id="flow_route_115_duration_20250327_2210.5" depart="50.00" departLane="1253188486#4_0" departPos="90.23" departSpeed="0.00" departDelay="0.00" arrival="110.00" arrivalLane="1328664744#0_2" arrivalPos="95.59" arrivalSpeed="14.27" duration="60.00" routeLength="190.76" waitingTime="26.00" waitingCount="1" stopTime="0.00" timeLoss="47.26" rerouteNo="0" devices="tripinfo_flow_route_115_duration_20250327_2210.5" vType="car" speedFactor="1.00" vaporized=""/>
    <tripinfo id="flow_route_113_duration_20250327_2210.9" depart="40.00" departLane="1253188486#4_0" departPos="15.55" departSpeed="0.00" departDelay="1.44" arrival="111.00" arrivalLane="1253188486#8_1" arrivalPos="140.74" arrivalSpeed="16.30" duration="71.00" routeLength="323.82" waitingTime="28.00" waitingCount="1" stopTime="0.00" timeLoss="51.42" rerouteNo="0" devices="tripinfo_flow_route_113_duration_20250327_2210.9" vType="car" speedFactor="1.04" vaporized=""/>
    <tripinfo id="flow_route_113_duration_20250327_2210.11" depart="49.00" departLane="1253188486#4_0" departPos="101.59" departSpeed="0.00" departDelay="1.87" arrival="114.00" arrivalLane="1253188486#8_0" arrivalPos="165.69" arrivalSpeed="16.60" duration="65.00" routeLength="262.72" waitingTime="28.00" waitingCount="1" stopTime="0.00" timeLoss="48.62" rerouteNo="0" devices="tripinfo_flow_route_113_duration_20250327_2210.11" vType="car" speedFactor="1.02" vaporized=""/>
    <tripinfo id="flow_route_113_duration_20250327_2210.13" depart="58.00" departLane="1253188486#4_0" departPos="52.97" departSpeed="0.00" departDelay="2.30" arrival="115.00" arrivalLane="1253188486#8_1" arrivalPos="134.75" arrivalSpeed="16.15" duration="57.00" routeLength="280.41" waitingTime="19.00" waitingCount="1" stopTime="0.00" timeLoss="39.72" rerouteNo="0" devices="tripinfo_flow_route_113_duration_20250327_2210.13" vType="car" speedFactor="1.02" vaporized=""/>
    <tripinfo id="flow_route_118_duration_20250327_2210.4" depart="17.00" departLane="134194079#0_0" departPos="26.26" departSpeed="0.00" departDelay="1.00" arrival="135.00" arrivalLane="1328664744#0_0" arrivalPos="53.55" arrivalSpeed="10.70" duration="118.00" routeLength="348.44" waitingTime="74.00" waitingCount="1" stopTime="0.00" timeLoss="96.42" rerouteNo="0" devices="tripinfo_flow_route_118_duration_20250327_2210.4" vType="car" speedFactor="0.97" vaporized=""/>
    <tripinfo id="flow_route_119_duration_20250327_2210.4" depart="34.00" departLane="134194079#0_0" departPos="172.59" departSpeed="0.00" departDelay="4.00" arrival="135.00" arrivalLane="1253188486#8_0" arrivalPos="11.49" arrivalSpeed="7.37" duration="101.00" routeLength="149.85" waitingTime="68.00" waitingCount="1" stopTime="0.00" timeLoss="91.37" rerouteNo="0" devices="tripinfo_flow_route_119_duration_20250327_2210.4" vType="car" speedFactor="1.18" vaporized=""/>
    <tripinfo id="flow_route_118_duration_20250327_2210.9" depart="36.00" departLane="134194079#0_0" departPos="145.35" departSpeed="0.00" departDelay="0.00" arrival="135.00" arrivalLane="1328664744#0_2" arrivalPos="23.23" arrivalSpeed="9.59" duration="99.00" routeLength="199.03" waitingTime="59.00" waitingCount="1" stopTime="0.00" timeLoss="86.68" rerouteNo="0" devices="tripinfo_flow_route_118_duration_20250327_2210.9" vType="car" speedFactor="1.09" vaporized=""/>
    <tripinfo id="flow_route_118_duration_20250327_2210.14" depart="58.00" departLane="134194079#0_0" departPos="235.41" departSpeed="0.00" departDelay="2.00" arrival="135.00" arrivalLane="1328664744#0_2" arrivalPos="3.24" arrivalSpeed="8.32" duration="77.00" routeLength="88.98" waitingTime="52.00" waitingCount="1" stopTime="0.00" timeLoss="71.36" rerouteNo="0" devices="tripinfo_flow_route_118_duration_20250327_2210.14" vType="car" speedFactor="0.97" vaporized=""/>
    <tripinfo id="flow_route_118_duration_20250327_2210.10" depart="41.00" departLane="134194079#0_0" departPos="230.41" departSpeed="0.00" departDelay="1.00" arrival="138.00" arrivalLane="1328664744#0_2" arrivalPos="76.07" arrivalSpeed="12.45" duration="97.00" routeLength="166.81" waitingTime="66.00" waitingCount="1" stopTime="0.00" timeLoss="86.59" rerouteNo="0" devices="tripinfo_flow_route_118_duration_20250327_2210.10" vType="car" speedFactor="1.00" vaporized=""/>
    <tripinfo id="flow_route_118_duration_20250327_2210.11" depart="44.00" departLane="134194079#0_0" departPos="41.64" departSpeed="0.00" departDelay="0.00" arrival="140.00" arrivalLane="1328664744#0_2" arrivalPos="27.58" arrivalSpeed="10.43" duration="96.00" routeLength="307.08" waitingTime="51.00" waitingCount="1" stopTime="0.00" timeLoss="74.59" rerouteNo="0" devices="tripinfo_flow_route_118_duration_20250327_2210.11" vType="car" speedFactor="0.88" vaporized=""/>
    <tripinfo id="flow_route_119_duration_20250327_2210.1" depart="8.00" departLane="134194079#0_0" departPos="9.56" departSpeed="0.00" departDelay="0.50" arrival="141.00" arrivalLane="1253188486#8_0" arrivalPos="133.54" arrivalSpeed="14.78" duration="133.00" routeLength="434.93" waitingTime="82.00" waitingCount="1" stopTime="0.00" timeLoss="105.80" rerouteNo="0" devices="tripinfo_flow_route_119_duration_20250327_2210.1" vType="car" speedFactor="0.99" vaporized=""/>
    <tripinfo id="flow_route_119_duration_20250327_2210.3" depart="24.00" departLane="134194079#0_0" departPos="8.21" departSpeed="0.00" departDelay="1.50" arrival="141.00" arrivalLane="1253188486#8_0" arrivalPos="41.32" arrivalSpeed="11.37" duration="117.00" routeLength="344.05" waitingTime="66.00" waitingCount="1" stopTime="0.00" timeLoss="94.01" rerouteNo="0" devices="tripinfo_flow_route_119_duration_20250327_2210.3" vType="car" speedFactor="0.95" vaporized=""/>
    <tripinfo id="flow_route_118_duration_20250327_2210.13" depart="55.00" departLane="134194079#0_0" departPos="242.24" departSpeed="0.00" departDelay="3.00" arrival="142.00" arrivalLane="1328664744#0_1" arrivalPos="84.18" arrivalSpeed="13.40" duration="87.00" routeLength="163.09" waitingTime="57.00" waitingCount="1" stopTime="0.00" timeLoss="75.80" rerouteNo="0" devices="tripinfo_flow_route_118_duration_20250327_2210.13" vType="car" speedFactor="0.90" vaporized=""/>
    <tripinfo id="flow_route_118_duration_20250327_2210.8" depart="34.00" departLane="134194079#0_0" departPos="123.08" departSpeed="0.00" departDelay="2.00" arrival="143.00" arrivalLane="1328664744#0_1" arrivalPos="136.46" arrivalSpeed="16.08" duration="109.00" routeLength="334.54" waitingTime="63.00" waitingCount="1" stopTime="0.00" timeLoss="88.54" rerouteNo="0" devices="tripinfo_flow_route_118_duration_20250327_2210.8" vType="car" speedFactor="1.10" vaporized=""/>
    <tripinfo id="flow_route_99_duration_20250327_2210.4" depart="48.00" departLane="1328664748#0_0" departPos="188.11" departSpeed="0.00" departDelay="0.00" arrival="147.00" arrivalLane="1253188486#8_2" arrivalPos="10.45" arrivalSpeed="7.04" duration="99.00" routeLength="80.21" waitingTime="73.00" waitingCount="2" stopTime="0.00" timeLoss="92.52" rerouteNo="0" devices="tripinfo_flow_route_99_duration_20250327_2210.4" vType="car" speedFactor="0.85" vaporized=""/>
    <tripinfo id="flow_route_118_duration_20250327_2210.7" depart="34.00" departLane="134194079#0_0" departPos="243.55" departSpeed="0.00" departDelay="6.00" arrival="149.00" arrivalLane="1328664744#0_0" arrivalPos="220.13" arrivalSpeed="16.16" duration="115.00" routeLength="297.74" waitingTime="77.00" waitingCount="1" stopTime="0.00" timeLoss="96.72" rerouteNo="0" devices="tripinfo_flow_route_118_duration_20250327_2210.7" vType="car" speedFactor="1.01" vaporized=""/>
    <tripinfo id="flow_route_118_duration_20250327_2210.12" depart="48.00" departLane="134194079#0_0" departPos="101.65" departSpeed="0.00" departDelay="0.00" arrival="152.00" arrivalLane="1328664744#0_1" arrivalPos="217.02" arrivalSpeed="16.33" duration="104.00" routeLength="436.52" waitingTime="53.00" waitingCount="1" stopTime="0.00" timeLoss="77.58" rerouteNo="0" devices="tripinfo_flow_route_118_duration_20250327_2210.12" vType="car" speedFactor="1.10" vaporized=""/>
    <tripinfo id="flow_route_119_duration_20250327_2210.5" depart="39.00" departLane="134194079#0_0" departPos="87.42" departSpeed="0.00" departDelay="1.50" arrival="154.00" arrivalLane="1253188486#8_0" arrivalPos="174.37" arrivalSpeed="16.16" duration="115.00" routeLength="397.90" waitingTime="55.00" waitingCount="1" stopTime="0.00" timeLoss="89.81" rerouteNo="0" devices="tripinfo_flow_route_119_duration_20250327_2210.5" vType="car" speedFactor="1.04" vaporized=""/>
    <tripinfo id="flow_route_119_duration_20250327_2210.7" depart="58.00" departLane="134194079#0_0" departPos="49.42" departSpeed="0.00" departDelay="5.50" arrival="154.00" arrivalLane="1253188486#8_0" arrivalPos="140.66" arrivalSpeed="16.53" duration="96.00" routeLength="402.20" waitingTime="45.00" waitingCount="1" stopTime="0.00" timeLoss="70.60" rerouteNo="0" devices="tripinfo_flow_route_119_duration_20250327_2210.7" vType="car" speedFactor="1.14" vaporized=""/>
    <tripinfo id="flow_route_119_duration_20250327_2210.6" depart="45.00" departLane="134194079#0_0" departPos="141.62" departSpeed="0.00" departDelay="0.00" arrival="155.00" arrivalLane="1253188486#8_0" arrivalPos="216.39" arrivalSpeed="16.33" duration="110.00" routeLength="385.72" waitingTime="55.00" waitingCount="1" stopTime="0.00" timeLoss="83.94" rerouteNo="0" devices="tripinfo_flow_route_119_duration_20250327_2210.6" vType="car" speedFactor="0.85" vaporized=""/>
</tripinfos>
