<?xml version="1.0" encoding="UTF-8"?>

<!-- generated on 2025-05-06 21:08:26 by Eclipse SUMO sumo Version 1.20.0
<configuration xmlns:xsi="http://www.w3.org/2001/XMLSchema-instance" xsi:noNamespaceSchemaLocation="http://sumo.dlr.de/xsd/sumoConfiguration.xsd">

    <input>
        <net-file value="osm.net.xml"/>
        <route-files value="xml/route_static_cluster_2271368471_4779869278_4.rou.xml"/>
    </input>

    <output>
        <tripinfo-output value="xml/tripinfo_static_cluster_2271368471_4779869278_4.xml"/>
    </output>

    <traci_server>
        <remote-port value="51523"/>
    </traci_server>

</configuration>
-->

<tripinfos xmlns:xsi="http://www.w3.org/2001/XMLSchema-instance" xsi:noNamespaceSchemaLocation="http://sumo.dlr.de/xsd/tripinfo_file.xsd">
    <tripinfo id="flow_route_36_duration_20250327_2150.0" depart="0.00" departLane="485211947#0_0" departPos="162.24" departSpeed="0.00" departDelay="0.00" arrival="23.00" arrivalLane="137415945#0_0" arrivalPos="6.94" arrivalSpeed="15.19" duration="23.00" routeLength="189.23" waitingTime="0.00" waitingCount="0" stopTime="0.00" timeLoss="10.13" rerouteNo="0" devices="tripinfo_flow_route_36_duration_20250327_2150.0" vType="car" speedFactor="0.94" vaporized=""/>
    <tripinfo id="flow_route_35_duration_20250327_2150.1" depart="8.00" departLane="485211947#0_0" departPos="177.25" departSpeed="0.00" departDelay="0.50" arrival="25.00" arrivalLane="1369578054_0" arrivalPos="90.42" arrivalSpeed="13.05" duration="17.00" routeLength="110.63" waitingTime="0.00" waitingCount="0" stopTime="0.00" timeLoss="9.00" rerouteNo="0" devices="tripinfo_flow_route_35_duration_20250327_2150.1" vType="car" speedFactor="1.05" vaporized=""/>
    <tripinfo id="flow_route_36_duration_20250327_2150.1" depart="4.00" departLane="485211947#0_0" departPos="152.74" departSpeed="0.00" departDelay="0.00" arrival="29.00" arrivalLane="137415945#0_1" arrivalPos="8.06" arrivalSpeed="16.38" duration="25.00" routeLength="199.86" waitingTime="0.00" waitingCount="0" stopTime="0.00" timeLoss="12.31" rerouteNo="0" devices="tripinfo_flow_route_36_duration_20250327_2150.1" vType="car" speedFactor="1.09" vaporized=""/>
    <tripinfo id="flow_route_35_duration_20250327_2150.2" depart="15.00" departLane="485211947#0_0" departPos="132.59" departSpeed="0.00" departDelay="0.00" arrival="32.00" arrivalLane="1369578054_0" arrivalPos="26.67" arrivalSpeed="9.62" duration="17.00" routeLength="91.55" waitingTime="0.00" waitingCount="0" stopTime="0.00" timeLoss="9.75" rerouteNo="0" devices="tripinfo_flow_route_35_duration_20250327_2150.2" vType="car" speedFactor="0.94" vaporized=""/>
    <tripinfo id="flow_route_37_duration_20250327_2150.0" depart="0.00" departLane="485211947#0_0" departPos="59.66" departSpeed="0.00" departDelay="0.00" arrival="33.00" arrivalLane="-430406005#1_1" arrivalPos="133.07" arrivalSpeed="16.37" duration="33.00" routeLength="286.39" waitingTime="0.00" waitingCount="0" stopTime="0.00" timeLoss="12.78" rerouteNo="0" devices="tripinfo_flow_route_37_duration_20250327_2150.0" vType="car" speedFactor="0.86" vaporized=""/>
    <tripinfo id="flow_route_37_duration_20250327_2150.1" depart="10.00" departLane="485211947#0_0" departPos="76.22" departSpeed="0.00" departDelay="0.00" arrival="33.00" arrivalLane="-430406005#1_1" arrivalPos="23.11" arrivalSpeed="10.73" duration="23.00" routeLength="159.87" waitingTime="0.00" waitingCount="0" stopTime="0.00" timeLoss="11.51" rerouteNo="0" devices="tripinfo_flow_route_37_duration_20250327_2150.1" vType="car" speedFactor="0.93" vaporized=""/>
    <tripinfo id="flow_route_35_duration_20250327_2150.0" depart="0.00" departLane="485211947#0_0" departPos="11.17" departSpeed="0.00" departDelay="0.00" arrival="39.00" arrivalLane="1369578054_0" arrivalPos="74.16" arrivalSpeed="13.26" duration="39.00" routeLength="260.46" waitingTime="0.00" waitingCount="0" stopTime="0.00" timeLoss="19.51" rerouteNo="0" devices="tripinfo_flow_route_35_duration_20250327_2150.0" vType="car" speedFactor="0.89" vaporized=""/>
    <tripinfo id="flow_route_36_duration_20250327_2150.4" depart="17.00" departLane="485211947#0_0" departPos="173.26" departSpeed="0.00" departDelay="1.00" arrival="39.00" arrivalLane="137415945#0_0" arrivalPos="7.59" arrivalSpeed="16.60" duration="22.00" routeLength="178.86" waitingTime="0.00" waitingCount="0" stopTime="0.00" timeLoss="10.64" rerouteNo="0" devices="tripinfo_flow_route_36_duration_20250327_2150.4" vType="car" speedFactor="1.16" vaporized=""/>
    <tripinfo id="flow_route_36_duration_20250327_2150.2" depart="8.00" departLane="485211947#0_0" departPos="5.53" departSpeed="0.00" departDelay="0.00" arrival="42.00" arrivalLane="137415945#0_1" arrivalPos="9.73" arrivalSpeed="16.30" duration="34.00" routeLength="348.74" waitingTime="0.00" waitingCount="0" stopTime="0.00" timeLoss="12.44" rerouteNo="0" devices="tripinfo_flow_route_36_duration_20250327_2150.2" vType="car" speedFactor="1.12" vaporized=""/>
    <tripinfo id="flow_route_36_duration_20250327_2150.3" depart="12.00" departLane="485211947#0_0" departPos="31.12" departSpeed="0.00" departDelay="0.00" arrival="44.00" arrivalLane="137415945#0_0" arrivalPos="2.84" arrivalSpeed="14.48" duration="32.00" routeLength="316.25" waitingTime="0.00" waitingCount="0" stopTime="0.00" timeLoss="9.59" rerouteNo="0" devices="tripinfo_flow_route_36_duration_20250327_2150.3" vType="car" speedFactor="0.88" vaporized=""/>
    <tripinfo id="flow_route_36_duration_20250327_2150.5" depart="20.00" departLane="485211947#0_0" departPos="28.13" departSpeed="0.00" departDelay="0.00" arrival="53.00" arrivalLane="137415945#0_1" arrivalPos="2.14" arrivalSpeed="14.73" duration="33.00" routeLength="318.54" waitingTime="0.00" waitingCount="0" stopTime="0.00" timeLoss="10.65" rerouteNo="0" devices="tripinfo_flow_route_36_duration_20250327_2150.5" vType="car" speedFactor="0.89" vaporized=""/>
    <tripinfo id="flow_route_36_duration_20250327_2150.8" depart="33.00" departLane="485211947#0_0" departPos="181.00" departSpeed="0.00" departDelay="1.00" arrival="55.00" arrivalLane="137415945#0_0" arrivalPos="5.31" arrivalSpeed="16.13" duration="22.00" routeLength="168.85" waitingTime="0.00" waitingCount="0" stopTime="0.00" timeLoss="10.86" rerouteNo="0" devices="tripinfo_flow_route_36_duration_20250327_2150.8" vType="car" speedFactor="0.99" vaporized=""/>
    <tripinfo id="flow_route_30_duration_20250327_2150.0" depart="0.00" departLane="1235147073.116_0" departPos="7.14" departSpeed="0.00" departDelay="0.00" arrival="56.00" arrivalLane="133126030#0_0" arrivalPos="8.43" arrivalSpeed="7.07" duration="56.00" routeLength="175.81" waitingTime="26.00" waitingCount="1" stopTime="0.00" timeLoss="45.10" rerouteNo="0" devices="tripinfo_flow_route_30_duration_20250327_2150.0" vType="car" speedFactor="1.01" vaporized=""/>
    <tripinfo id="flow_route_37_duration_20250327_2150.2" depart="20.00" departLane="485211947#0_0" departPos="5.16" departSpeed="0.00" departDelay="0.00" arrival="59.00" arrivalLane="-430406005#1_1" arrivalPos="170.54" arrivalSpeed="16.26" duration="39.00" routeLength="378.36" waitingTime="0.00" waitingCount="0" stopTime="0.00" timeLoss="12.43" rerouteNo="0" devices="tripinfo_flow_route_37_duration_20250327_2150.2" vType="car" speedFactor="0.83" vaporized=""/>
    <tripinfo id="flow_route_31_duration_20250327_2150.0" depart="2.00" departLane="1235147073.116_0" departPos="0.71" departSpeed="0.00" departDelay="2.00" arrival="64.00" arrivalLane="-430406005#1_0" arrivalPos="87.77" arrivalSpeed="12.77" duration="62.00" routeLength="250.02" waitingTime="24.00" waitingCount="1" stopTime="0.00" timeLoss="45.73" rerouteNo="0" devices="tripinfo_flow_route_31_duration_20250327_2150.0" vType="car" speedFactor="1.08" vaporized=""/>
    <tripinfo id="flow_route_31_duration_20250327_2150.1" depart="22.00" departLane="1235147073.116_0" departPos="14.21" departSpeed="0.00" departDelay="2.00" arrival="67.00" arrivalLane="-430406005#1_0" arrivalPos="103.59" arrivalSpeed="13.70" duration="45.00" routeLength="252.35" waitingTime="7.00" waitingCount="1" stopTime="0.00" timeLoss="28.84" rerouteNo="0" devices="tripinfo_flow_route_31_duration_20250327_2150.1" vType="car" speedFactor="0.97" vaporized=""/>
    <tripinfo id="flow_route_32_duration_20250327_2150.0" depart="7.00" departLane="1235147073.116_0" departPos="3.62" departSpeed="0.00" departDelay="7.00" arrival="69.00" arrivalLane="1369578054_1" arrivalPos="176.77" arrivalSpeed="16.52" duration="62.00" routeLength="352.88" waitingTime="18.00" waitingCount="1" stopTime="0.00" timeLoss="39.62" rerouteNo="0" devices="tripinfo_flow_route_32_duration_20250327_2150.0" vType="car" speedFactor="1.03" vaporized=""/>
    <tripinfo id="flow_route_32_duration_20250327_2150.3" depart="15.00" departLane="1235147073.116_0" departPos="10.23" departSpeed="0.00" departDelay="2.15" arrival="73.00" arrivalLane="1369578054_1" arrivalPos="171.28" arrivalSpeed="15.67" duration="58.00" routeLength="340.78" waitingTime="13.00" waitingCount="1" stopTime="0.00" timeLoss="34.87" rerouteNo="0" devices="tripinfo_flow_route_32_duration_20250327_2150.3" vType="car" speedFactor="0.94" vaporized=""/>
    <tripinfo id="flow_route_32_duration_20250327_2150.6" depart="26.00" departLane="1235147073.116_0" departPos="0.72" departSpeed="0.00" departDelay="0.29" arrival="74.00" arrivalLane="1369578054_1" arrivalPos="62.08" arrivalSpeed="13.00" duration="48.00" routeLength="241.09" waitingTime="7.00" waitingCount="1" stopTime="0.00" timeLoss="32.89" rerouteNo="0" devices="tripinfo_flow_route_32_duration_20250327_2150.6" vType="car" speedFactor="1.13" vaporized=""/>
    <tripinfo id="flow_route_32_duration_20250327_2150.8" depart="35.00" departLane="1235147073.116_0" departPos="4.63" departSpeed="0.00" departDelay="0.72" arrival="75.00" arrivalLane="1369578054_1" arrivalPos="7.15" arrivalSpeed="9.52" duration="40.00" routeLength="182.24" waitingTime="3.00" waitingCount="1" stopTime="0.00" timeLoss="27.74" rerouteNo="0" devices="tripinfo_flow_route_32_duration_20250327_2150.8" vType="car" speedFactor="1.02" vaporized=""/>
    <tripinfo id="flow_route_31_duration_20250327_2150.2" depart="41.00" departLane="1235147073.116_0" departPos="1.55" departSpeed="0.00" departDelay="1.00" arrival="76.00" arrivalLane="-430406005#1_0" arrivalPos="156.06" arrivalSpeed="16.21" duration="35.00" routeLength="317.46" waitingTime="0.00" waitingCount="0" stopTime="0.00" timeLoss="14.06" rerouteNo="0" devices="tripinfo_flow_route_31_duration_20250327_2150.2" vType="car" speedFactor="1.03" vaporized=""/>
    <tripinfo id="flow_route_32_duration_20250327_2150.1" depart="11.00" departLane="1235147073.116_0" departPos="14.77" departSpeed="0.00" departDelay="6.72" arrival="77.00" arrivalLane="1369578054_1" arrivalPos="265.97" arrivalSpeed="16.48" duration="66.00" routeLength="430.93" waitingTime="15.00" waitingCount="1" stopTime="0.00" timeLoss="38.35" rerouteNo="0" devices="tripinfo_flow_route_32_duration_20250327_2150.1" vType="car" speedFactor="1.03" vaporized=""/>
    <tripinfo id="flow_route_32_duration_20250327_2150.2" depart="11.00" departLane="1235147073.116_0" departPos="4.04" departSpeed="0.00" departDelay="2.43" arrival="79.00" arrivalLane="1369578054_1" arrivalPos="205.27" arrivalSpeed="16.08" duration="68.00" routeLength="380.96" waitingTime="10.00" waitingCount="2" stopTime="0.00" timeLoss="43.28" rerouteNo="0" devices="tripinfo_flow_route_32_duration_20250327_2150.2" vType="car" speedFactor="0.99" vaporized=""/>
    <tripinfo id="flow_route_32_duration_20250327_2150.5" depart="22.00" departLane="1235147073.116_0" departPos="1.03" departSpeed="0.00" departDelay="0.58" arrival="80.00" arrivalLane="1369578054_1" arrivalPos="163.83" arrivalSpeed="14.54" duration="58.00" routeLength="342.54" waitingTime="8.00" waitingCount="1" stopTime="0.00" timeLoss="32.83" rerouteNo="0" devices="tripinfo_flow_route_32_duration_20250327_2150.5" vType="car" speedFactor="0.87" vaporized=""/>
    <tripinfo id="flow_route_32_duration_20250327_2150.7" depart="30.00" departLane="1235147073.116_0" departPos="9.42" departSpeed="0.00" departDelay="0.01" arrival="80.00" arrivalLane="1369578054_1" arrivalPos="86.91" arrivalSpeed="14.32" duration="50.00" routeLength="257.22" waitingTime="6.00" waitingCount="1" stopTime="0.00" timeLoss="33.48" rerouteNo="0" devices="tripinfo_flow_route_32_duration_20250327_2150.7" vType="car" speedFactor="1.18" vaporized=""/>
    <tripinfo id="flow_route_32_duration_20250327_2150.4" depart="18.00" departLane="1235147073.116_0" departPos="4.71" departSpeed="0.00" departDelay="0.86" arrival="82.00" arrivalLane="1369578054_1" arrivalPos="287.64" arrivalSpeed="16.43" duration="64.00" routeLength="462.65" waitingTime="12.00" waitingCount="1" stopTime="0.00" timeLoss="34.81" rerouteNo="0" devices="tripinfo_flow_route_32_duration_20250327_2150.4" vType="car" speedFactor="1.02" vaporized=""/>
    <tripinfo id="flow_route_32_duration_20250327_2150.9" depart="39.00" departLane="1235147073.116_0" departPos="10.88" departSpeed="0.00" departDelay="0.44" arrival="88.00" arrivalLane="1369578054_1" arrivalPos="147.63" arrivalSpeed="16.55" duration="49.00" routeLength="316.48" waitingTime="0.00" waitingCount="0" stopTime="0.00" timeLoss="28.82" rerouteNo="0" devices="tripinfo_flow_route_32_duration_20250327_2150.9" vType="car" speedFactor="1.10" vaporized=""/>
    <tripinfo id="flow_route_32_duration_20250327_2150.11" depart="48.00" departLane="1235147073.116_0" departPos="14.98" departSpeed="0.00" departDelay="0.87" arrival="88.00" arrivalLane="1369578054_1" arrivalPos="117.06" arrivalSpeed="16.36" duration="40.00" routeLength="281.81" waitingTime="0.00" waitingCount="0" stopTime="0.00" timeLoss="21.96" rerouteNo="0" devices="tripinfo_flow_route_32_duration_20250327_2150.11" vType="car" speedFactor="1.00" vaporized=""/>
    <tripinfo id="flow_route_32_duration_20250327_2150.12" depart="52.00" departLane="1235147073.116_0" departPos="4.25" departSpeed="0.00" departDelay="0.58" arrival="97.00" arrivalLane="1369578054_1" arrivalPos="198.75" arrivalSpeed="13.70" duration="45.00" routeLength="374.24" waitingTime="0.00" waitingCount="0" stopTime="0.00" timeLoss="17.68" rerouteNo="0" devices="tripinfo_flow_route_32_duration_20250327_2150.12" vType="car" speedFactor="0.85" vaporized=""/>
    <tripinfo id="flow_route_32_duration_20250327_2150.10" depart="46.00" departLane="1235147073.116_0" departPos="0.65" departSpeed="0.00" departDelay="3.15" arrival="101.00" arrivalLane="1369578054_1" arrivalPos="234.02" arrivalSpeed="16.27" duration="55.00" routeLength="413.10" waitingTime="1.00" waitingCount="1" stopTime="0.00" timeLoss="29.08" rerouteNo="0" devices="tripinfo_flow_route_32_duration_20250327_2150.10" vType="car" speedFactor="1.04" vaporized=""/>
    <tripinfo id="flow_route_32_duration_20250327_2150.13" depart="56.00" departLane="1235147073.116_0" departPos="8.41" departSpeed="0.00" departDelay="0.30" arrival="101.00" arrivalLane="1369578054_1" arrivalPos="192.11" arrivalSpeed="16.16" duration="45.00" routeLength="363.43" waitingTime="0.00" waitingCount="0" stopTime="0.00" timeLoss="21.95" rerouteNo="0" devices="tripinfo_flow_route_32_duration_20250327_2150.13" vType="car" speedFactor="1.02" vaporized=""/>
    <tripinfo id="flow_route_33_duration_20250327_2150.0" depart="0.00" departLane="133126008#0_0" departPos="101.07" departSpeed="0.00" departDelay="0.00" arrival="104.00" arrivalLane="1369578054_0" arrivalPos="13.07" arrivalSpeed="9.11" duration="104.00" routeLength="125.36" waitingTime="76.00" waitingCount="1" stopTime="0.00" timeLoss="95.58" rerouteNo="0" devices="tripinfo_flow_route_33_duration_20250327_2150.0" vType="car" speedFactor="0.83" vaporized=""/>
    <tripinfo id="flow_route_34_duration_20250327_2150.1" depart="30.00" departLane="133126008#0_0" departPos="69.56" departSpeed="0.00" departDelay="0.00" arrival="108.00" arrivalLane="133126030#0_0" arrivalPos="39.35" arrivalSpeed="9.55" duration="78.00" routeLength="157.31" waitingTime="47.00" waitingCount="1" stopTime="0.00" timeLoss="67.33" rerouteNo="0" devices="tripinfo_flow_route_34_duration_20250327_2150.1" vType="car" speedFactor="1.15" vaporized=""/>
    <tripinfo id="flow_route_29_duration_20250327_2150.0" depart="0.00" departLane="-422986370#2_0" departPos="201.60" departSpeed="0.00" departDelay="0.00" arrival="112.00" arrivalLane="137415945#0_0" arrivalPos="9.07" arrivalSpeed="15.42" duration="112.00" routeLength="253.29" waitingTime="74.00" waitingCount="1" stopTime="0.00" timeLoss="94.30" rerouteNo="0" devices="tripinfo_flow_route_29_duration_20250327_2150.0" vType="car" speedFactor="0.94" vaporized=""/>
    <tripinfo id="flow_route_34_duration_20250327_2150.0" depart="0.00" departLane="133126008#0_0" departPos="47.21" departSpeed="0.00" departDelay="0.00" arrival="113.00" arrivalLane="133126030#0_0" arrivalPos="137.72" arrivalSpeed="15.22" duration="113.00" routeLength="278.03" waitingTime="73.00" waitingCount="1" stopTime="0.00" timeLoss="95.34" rerouteNo="0" devices="tripinfo_flow_route_34_duration_20250327_2150.0" vType="car" speedFactor="1.05" vaporized=""/>
    <tripinfo id="flow_route_29_duration_20250327_2150.1" depart="20.00" departLane="-422986370#2_0" departPos="54.92" departSpeed="0.00" departDelay="0.00" arrival="113.00" arrivalLane="137415945#0_0" arrivalPos="6.27" arrivalSpeed="16.11" duration="93.00" routeLength="397.17" waitingTime="45.00" waitingCount="1" stopTime="0.00" timeLoss="68.07" rerouteNo="0" devices="tripinfo_flow_route_29_duration_20250327_2150.1" vType="car" speedFactor="1.01" vaporized=""/>
    <tripinfo id="flow_route_28_duration_20250327_2150.0" depart="0.00" departLane="-422986370#2_0" departPos="1.81" departSpeed="0.00" departDelay="0.00" arrival="115.00" arrivalLane="-430406005#1_1" arrivalPos="159.13" arrivalSpeed="16.16" duration="115.00" routeLength="491.75" waitingTime="61.00" waitingCount="1" stopTime="0.00" timeLoss="84.55" rerouteNo="0" devices="tripinfo_flow_route_28_duration_20250327_2150.0" vType="car" speedFactor="1.06" vaporized=""/>
    <tripinfo id="flow_route_29_duration_20250327_2150.2" depart="40.00" departLane="-422986370#2_0" departPos="88.76" departSpeed="0.00" departDelay="0.00" arrival="116.00" arrivalLane="137415945#0_0" arrivalPos="5.80" arrivalSpeed="14.76" duration="76.00" routeLength="362.86" waitingTime="29.00" waitingCount="1" stopTime="0.00" timeLoss="50.67" rerouteNo="0" devices="tripinfo_flow_route_29_duration_20250327_2150.2" vType="car" speedFactor="0.90" vaporized=""/>
    <tripinfo id="flow_route_37_duration_20250327_2150.5" depart="54.00" departLane="485211947#0_0" departPos="109.82" departSpeed="0.00" departDelay="4.00" arrival="144.00" arrivalLane="-430406005#1_1" arrivalPos="27.42" arrivalSpeed="10.09" duration="90.00" routeLength="130.59" waitingTime="62.00" waitingCount="1" stopTime="0.00" timeLoss="80.16" rerouteNo="0" devices="tripinfo_flow_route_37_duration_20250327_2150.5" vType="car" speedFactor="0.88" vaporized=""/>
    <tripinfo id="flow_route_35_duration_20250327_2150.3" depart="24.00" departLane="485211947#0_0" departPos="62.82" departSpeed="0.00" departDelay="1.50" arrival="145.00" arrivalLane="1369578054_0" arrivalPos="53.63" arrivalSpeed="11.05" duration="121.00" routeLength="188.27" waitingTime="81.00" waitingCount="1" stopTime="0.00" timeLoss="107.89" rerouteNo="0" devices="tripinfo_flow_route_35_duration_20250327_2150.3" vType="car" speedFactor="0.92" vaporized=""/>
    <tripinfo id="flow_route_37_duration_20250327_2150.3" depart="31.00" departLane="485211947#0_0" departPos="108.40" departSpeed="0.00" departDelay="1.00" arrival="145.00" arrivalLane="-430406005#1_1" arrivalPos="75.58" arrivalSpeed="12.66" duration="114.00" routeLength="180.17" waitingTime="82.00" waitingCount="1" stopTime="0.00" timeLoss="101.86" rerouteNo="0" devices="tripinfo_flow_route_37_duration_20250327_2150.3" vType="car" speedFactor="1.17" vaporized=""/>
    <tripinfo id="flow_route_36_duration_20250327_2150.7" depart="29.00" departLane="485211947#0_0" departPos="65.19" departSpeed="0.00" departDelay="1.00" arrival="148.00" arrivalLane="137415945#0_1" arrivalPos="1.02" arrivalSpeed="15.48" duration="119.00" routeLength="280.35" waitingTime="79.00" waitingCount="1" stopTime="0.00" timeLoss="100.62" rerouteNo="0" devices="tripinfo_flow_route_36_duration_20250327_2150.7" vType="car" speedFactor="0.93" vaporized=""/>
    <tripinfo id="flow_route_36_duration_20250327_2150.9" depart="36.00" departLane="485211947#0_0" departPos="162.23" departSpeed="0.00" departDelay="0.00" arrival="149.00" arrivalLane="137415945#0_0" arrivalPos="1.33" arrivalSpeed="15.31" duration="113.00" routeLength="183.63" waitingTime="84.00" waitingCount="1" stopTime="0.00" timeLoss="100.96" rerouteNo="0" devices="tripinfo_flow_route_36_duration_20250327_2150.9" vType="car" speedFactor="0.97" vaporized=""/>
    <tripinfo id="flow_route_36_duration_20250327_2150.6" depart="26.00" departLane="485211947#0_0" departPos="33.48" departSpeed="0.00" departDelay="2.00" arrival="151.00" arrivalLane="137415945#0_1" arrivalPos="4.00" arrivalSpeed="15.74" duration="125.00" routeLength="315.05" waitingTime="78.00" waitingCount="1" stopTime="0.00" timeLoss="104.46" rerouteNo="0" devices="tripinfo_flow_route_36_duration_20250327_2150.6" vType="car" speedFactor="0.95" vaporized=""/>
    <tripinfo id="flow_route_37_duration_20250327_2150.4" depart="43.00" departLane="485211947#0_0" departPos="52.10" departSpeed="0.00" departDelay="3.00" arrival="153.00" arrivalLane="-430406005#1_1" arrivalPos="173.50" arrivalSpeed="16.21" duration="110.00" routeLength="334.37" waitingTime="66.00" waitingCount="1" stopTime="0.00" timeLoss="89.02" rerouteNo="0" devices="tripinfo_flow_route_37_duration_20250327_2150.4" vType="car" speedFactor="1.09" vaporized=""/>
    <tripinfo id="flow_route_36_duration_20250327_2150.12" depart="48.00" departLane="485211947#0_0" departPos="156.66" departSpeed="0.00" departDelay="0.00" arrival="153.00" arrivalLane="137415945#0_1" arrivalPos="8.60" arrivalSpeed="14.97" duration="105.00" routeLength="196.47" waitingTime="76.00" waitingCount="1" stopTime="0.00" timeLoss="91.66" rerouteNo="0" devices="tripinfo_flow_route_36_duration_20250327_2150.12" vType="car" speedFactor="0.90" vaporized=""/>
    <tripinfo id="flow_route_35_duration_20250327_2150.4" depart="30.00" departLane="485211947#0_0" departPos="95.02" departSpeed="0.00" departDelay="0.00" arrival="154.00" arrivalLane="1369578054_0" arrivalPos="203.36" arrivalSpeed="16.44" duration="124.00" routeLength="305.80" waitingTime="82.00" waitingCount="1" stopTime="0.00" timeLoss="104.37" rerouteNo="0" devices="tripinfo_flow_route_35_duration_20250327_2150.4" vType="car" speedFactor="1.01" vaporized=""/>
    <tripinfo id="flow_route_36_duration_20250327_2150.10" depart="40.00" departLane="485211947#0_0" departPos="63.53" departSpeed="0.00" departDelay="0.00" arrival="155.00" arrivalLane="137415945#0_1" arrivalPos="7.30" arrivalSpeed="15.92" duration="115.00" routeLength="288.30" waitingTime="71.00" waitingCount="1" stopTime="0.00" timeLoss="96.17" rerouteNo="0" devices="tripinfo_flow_route_36_duration_20250327_2150.10" vType="car" speedFactor="0.96" vaporized=""/>
    <tripinfo id="flow_route_36_duration_20250327_2150.11" depart="44.00" departLane="485211947#0_0" departPos="26.15" departSpeed="0.00" departDelay="0.00" arrival="156.00" arrivalLane="137415945#0_1" arrivalPos="1.58" arrivalSpeed="16.12" duration="112.00" routeLength="319.96" waitingTime="69.00" waitingCount="1" stopTime="0.00" timeLoss="92.61" rerouteNo="0" devices="tripinfo_flow_route_36_duration_20250327_2150.11" vType="car" speedFactor="1.04" vaporized=""/>
    <tripinfo id="flow_route_35_duration_20250327_2150.5" depart="39.00" departLane="485211947#0_0" departPos="78.77" departSpeed="0.00" departDelay="1.50" arrival="157.00" arrivalLane="1369578054_0" arrivalPos="187.34" arrivalSpeed="16.45" duration="118.00" routeLength="306.04" waitingTime="77.00" waitingCount="1" stopTime="0.00" timeLoss="98.43" rerouteNo="0" devices="tripinfo_flow_route_35_duration_20250327_2150.5" vType="car" speedFactor="1.18" vaporized=""/>
    <tripinfo id="flow_route_35_duration_20250327_2150.7" depart="57.00" departLane="485211947#0_0" departPos="2.71" departSpeed="0.00" departDelay="4.50" arrival="158.00" arrivalLane="1369578054_0" arrivalPos="113.70" arrivalSpeed="16.15" duration="101.00" routeLength="308.45" waitingTime="58.00" waitingCount="1" stopTime="0.00" timeLoss="81.04" rerouteNo="0" devices="tripinfo_flow_route_35_duration_20250327_2150.7" vType="car" speedFactor="1.17" vaporized=""/>
    <tripinfo id="flow_route_36_duration_20250327_2150.14" depart="59.00" departLane="485211947#0_0" departPos="89.44" departSpeed="0.00" departDelay="3.00" arrival="158.00" arrivalLane="137415945#0_0" arrivalPos="10.45" arrivalSpeed="16.53" duration="99.00" routeLength="265.54" waitingTime="61.00" waitingCount="1" stopTime="0.00" timeLoss="82.36" rerouteNo="0" devices="tripinfo_flow_route_36_duration_20250327_2150.14" vType="car" speedFactor="1.10" vaporized=""/>
    <tripinfo id="flow_route_36_duration_20250327_2150.13" depart="55.00" departLane="485211947#0_0" departPos="19.06" departSpeed="0.00" departDelay="3.00" arrival="159.00" arrivalLane="137415945#0_1" arrivalPos="5.48" arrivalSpeed="13.87" duration="104.00" routeLength="330.95" waitingTime="56.00" waitingCount="1" stopTime="0.00" timeLoss="80.57" rerouteNo="0" devices="tripinfo_flow_route_36_duration_20250327_2150.13" vType="car" speedFactor="0.85" vaporized=""/>
    <tripinfo id="flow_route_35_duration_20250327_2150.6" depart="45.00" departLane="485211947#0_0" departPos="88.94" departSpeed="0.00" departDelay="0.00" arrival="163.00" arrivalLane="1369578054_0" arrivalPos="264.28" arrivalSpeed="16.39" duration="118.00" routeLength="372.80" waitingTime="73.00" waitingCount="1" stopTime="0.00" timeLoss="94.80" rerouteNo="0" devices="tripinfo_flow_route_35_duration_20250327_2150.6" vType="car" speedFactor="1.09" vaporized=""/>
</tripinfos>
