<?xml version="1.0" encoding="UTF-8"?>

<!-- generated on 2025-05-06 21:08:21 by Eclipse SUMO sumo Version 1.20.0
<configuration xmlns:xsi="http://www.w3.org/2001/XMLSchema-instance" xsi:noNamespaceSchemaLocation="http://sumo.dlr.de/xsd/sumoConfiguration.xsd">

    <input>
        <net-file value="osm.net.xml"/>
        <route-files value="xml/route_rl_cluster10852700972_12154751993_4.rou.xml"/>
    </input>

    <output>
        <tripinfo-output value="xml/tripinfo_rl_cluster10852700972_12154751993_4.xml"/>
    </output>

    <traci_server>
        <remote-port value="34475"/>
    </traci_server>

</configuration>
-->

<tripinfos xmlns:xsi="http://www.w3.org/2001/XMLSchema-instance" xsi:noNamespaceSchemaLocation="http://sumo.dlr.de/xsd/tripinfo_file.xsd">
    <tripinfo id="flow_route_60_duration_20250327_2210.1" depart="7.00" departLane="186407684#0_0" departPos="59.31" departSpeed="0.00" departDelay="0.33" arrival="18.00" arrivalLane="791826085_0" arrivalPos="1.97" arrivalSpeed="8.62" duration="11.00" routeLength="51.59" waitingTime="0.00" waitingCount="0" stopTime="0.00" timeLoss="7.27" rerouteNo="0" devices="tripinfo_flow_route_60_duration_20250327_2210.1" vType="car" speedFactor="0.83" vaporized=""/>
    <tripinfo id="flow_route_61_duration_20250327_2210.0" depart="0.00" departLane="186407684#0_0" departPos="65.67" departSpeed="0.00" departDelay="0.00" arrival="24.00" arrivalLane="1341093416#0_1" arrivalPos="161.76" arrivalSpeed="16.42" duration="24.00" routeLength="210.27" waitingTime="0.00" waitingCount="0" stopTime="0.00" timeLoss="10.03" rerouteNo="0" devices="tripinfo_flow_route_61_duration_20250327_2210.0" vType="car" speedFactor="1.03" vaporized=""/>
    <tripinfo id="flow_route_60_duration_20250327_2210.0" depart="0.00" departLane="186407684#0_0" departPos="48.06" departSpeed="0.00" departDelay="0.00" arrival="25.00" arrivalLane="791826085_0" arrivalPos="160.28" arrivalSpeed="16.39" duration="25.00" routeLength="221.15" waitingTime="0.00" waitingCount="0" stopTime="0.00" timeLoss="11.12" rerouteNo="0" devices="tripinfo_flow_route_60_duration_20250327_2210.0" vType="car" speedFactor="1.08" vaporized=""/>
    <tripinfo id="flow_route_60_duration_20250327_2210.2" depart="15.00" departLane="186407684#0_0" departPos="60.25" departSpeed="0.00" departDelay="1.67" arrival="28.00" arrivalLane="791826085_0" arrivalPos="19.65" arrivalSpeed="9.65" duration="13.00" routeLength="68.34" waitingTime="0.00" waitingCount="0" stopTime="0.00" timeLoss="8.48" rerouteNo="0" devices="tripinfo_flow_route_60_duration_20250327_2210.2" vType="car" speedFactor="0.94" vaporized=""/>
    <tripinfo id="flow_route_61_duration_20250327_2210.1" depart="12.00" departLane="186407684#0_0" departPos="23.31" departSpeed="0.00" departDelay="0.00" arrival="38.00" arrivalLane="1341093416#0_1" arrivalPos="155.27" arrivalSpeed="16.14" duration="26.00" routeLength="246.14" waitingTime="0.00" waitingCount="0" stopTime="0.00" timeLoss="9.24" rerouteNo="0" devices="tripinfo_flow_route_61_duration_20250327_2210.1" vType="car" speedFactor="0.89" vaporized=""/>
    <tripinfo id="flow_route_60_duration_20250327_2210.3" depart="23.00" departLane="186407684#0_0" departPos="47.97" departSpeed="0.00" departDelay="3.00" arrival="44.00" arrivalLane="791826085_0" arrivalPos="100.14" arrivalSpeed="15.58" duration="21.00" routeLength="161.10" waitingTime="0.00" waitingCount="0" stopTime="0.00" timeLoss="10.40" rerouteNo="0" devices="tripinfo_flow_route_60_duration_20250327_2210.3" vType="car" speedFactor="1.03" vaporized=""/>
    <tripinfo id="flow_route_56_duration_20250327_2210.0" depart="0.00" departLane="1341093415#0_0" departPos="44.11" departSpeed="0.00" departDelay="0.00" arrival="46.00" arrivalLane="409155823_0" arrivalPos="4.00" arrivalSpeed="6.44" duration="46.00" routeLength="164.73" waitingTime="17.00" waitingCount="1" stopTime="0.00" timeLoss="35.20" rerouteNo="0" devices="tripinfo_flow_route_56_duration_20250327_2210.0" vType="car" speedFactor="1.01" vaporized=""/>
    <tripinfo id="flow_route_56_duration_20250327_2210.1" depart="8.00" departLane="1341093415#0_0" departPos="80.58" departSpeed="0.00" departDelay="0.50" arrival="53.00" arrivalLane="409155823_0" arrivalPos="41.04" arrivalSpeed="10.24" duration="45.00" routeLength="165.29" waitingTime="12.00" waitingCount="1" stopTime="0.00" timeLoss="33.94" rerouteNo="0" devices="tripinfo_flow_route_56_duration_20250327_2210.1" vType="car" speedFactor="1.05" vaporized=""/>
    <tripinfo id="flow_route_56_duration_20250327_2210.2" depart="15.00" departLane="1341093415#0_0" departPos="8.23" departSpeed="0.00" departDelay="0.00" arrival="53.00" arrivalLane="409155823_0" arrivalPos="28.34" arrivalSpeed="9.26" duration="38.00" routeLength="224.95" waitingTime="2.00" waitingCount="1" stopTime="0.00" timeLoss="22.89" rerouteNo="0" devices="tripinfo_flow_route_56_duration_20250327_2210.2" vType="car" speedFactor="0.86" vaporized=""/>
    <tripinfo id="flow_route_56_duration_20250327_2210.3" depart="23.00" departLane="1341093415#0_0" departPos="42.19" departSpeed="0.00" departDelay="0.50" arrival="57.00" arrivalLane="409155823_0" arrivalPos="34.91" arrivalSpeed="11.36" duration="34.00" routeLength="197.56" waitingTime="0.00" waitingCount="0" stopTime="0.00" timeLoss="20.70" rerouteNo="0" devices="tripinfo_flow_route_56_duration_20250327_2210.3" vType="car" speedFactor="1.05" vaporized=""/>
    <tripinfo id="flow_route_54_duration_20250327_2210.1" depart="20.00" departLane="1341093415#0_0" departPos="112.91" departSpeed="0.00" departDelay="0.00" arrival="60.00" arrivalLane="1341093416#0_0" arrivalPos="140.65" arrivalSpeed="15.59" duration="40.00" routeLength="234.56" waitingTime="4.00" waitingCount="1" stopTime="0.00" timeLoss="25.85" rerouteNo="0" devices="tripinfo_flow_route_54_duration_20250327_2210.1" vType="car" speedFactor="1.09" vaporized=""/>
    <tripinfo id="flow_route_54_duration_20250327_2210.2" depart="40.00" departLane="1341093415#0_0" departPos="101.88" departSpeed="0.00" departDelay="0.00" arrival="61.00" arrivalLane="1341093416#0_0" arrivalPos="61.18" arrivalSpeed="16.18" duration="21.00" routeLength="166.12" waitingTime="0.00" waitingCount="0" stopTime="0.00" timeLoss="10.10" rerouteNo="0" devices="tripinfo_flow_route_54_duration_20250327_2210.2" vType="car" speedFactor="1.16" vaporized=""/>
    <tripinfo id="flow_route_56_duration_20250327_2210.4" depart="30.00" departLane="1341093415#0_0" departPos="5.32" departSpeed="0.00" departDelay="0.00" arrival="62.00" arrivalLane="409155823_0" arrivalPos="84.21" arrivalSpeed="14.08" duration="32.00" routeLength="283.73" waitingTime="0.00" waitingCount="0" stopTime="0.00" timeLoss="13.52" rerouteNo="0" devices="tripinfo_flow_route_56_duration_20250327_2210.4" vType="car" speedFactor="0.93" vaporized=""/>
    <tripinfo id="flow_route_55_duration_20250327_2210.0" depart="0.00" departLane="1341093415#0_0" departPos="132.48" departSpeed="0.00" departDelay="0.00" arrival="63.00" arrivalLane="791826085_0" arrivalPos="232.37" arrivalSpeed="15.48" duration="63.00" routeLength="289.60" waitingTime="25.00" waitingCount="1" stopTime="0.00" timeLoss="43.36" rerouteNo="0" devices="tripinfo_flow_route_55_duration_20250327_2210.0" vType="car" speedFactor="0.94" vaporized=""/>
    <tripinfo id="flow_route_54_duration_20250327_2210.0" depart="0.00" departLane="1341093415#0_0" departPos="7.77" departSpeed="0.00" departDelay="0.00" arrival="65.00" arrivalLane="1341093416#0_0" arrivalPos="244.31" arrivalSpeed="16.43" duration="65.00" routeLength="443.35" waitingTime="14.00" waitingCount="1" stopTime="0.00" timeLoss="38.02" rerouteNo="0" devices="tripinfo_flow_route_54_duration_20250327_2210.0" vType="car" speedFactor="1.06" vaporized=""/>
    <tripinfo id="flow_route_56_duration_20250327_2210.5" depart="38.00" departLane="1341093415#0_0" departPos="47.07" departSpeed="0.00" departDelay="0.50" arrival="67.00" arrivalLane="409155823_0" arrivalPos="84.91" arrivalSpeed="14.87" duration="29.00" routeLength="242.68" waitingTime="0.00" waitingCount="0" stopTime="0.00" timeLoss="12.87" rerouteNo="0" devices="tripinfo_flow_route_56_duration_20250327_2210.5" vType="car" speedFactor="0.94" vaporized=""/>
    <tripinfo id="flow_route_56_duration_20250327_2210.7" depart="54.00" departLane="1341093415#0_0" departPos="114.37" departSpeed="0.00" departDelay="1.50" arrival="72.00" arrivalLane="409155823_0" arrivalPos="14.82" arrivalSpeed="9.08" duration="18.00" routeLength="105.30" waitingTime="0.00" waitingCount="0" stopTime="0.00" timeLoss="9.98" rerouteNo="0" devices="tripinfo_flow_route_56_duration_20250327_2210.7" vType="car" speedFactor="0.83" vaporized=""/>
    <tripinfo id="flow_route_56_duration_20250327_2210.6" depart="48.00" departLane="1341093415#0_0" departPos="54.86" departSpeed="0.00" departDelay="3.00" arrival="73.00" arrivalLane="409155823_0" arrivalPos="7.84" arrivalSpeed="9.00" duration="25.00" routeLength="157.82" waitingTime="0.00" waitingCount="0" stopTime="0.00" timeLoss="14.39" rerouteNo="0" devices="tripinfo_flow_route_56_duration_20250327_2210.6" vType="car" speedFactor="1.01" vaporized=""/>
    <tripinfo id="flow_route_61_duration_20250327_2210.2" depart="24.00" departLane="186407684#0_0" departPos="26.59" departSpeed="0.00" departDelay="0.00" arrival="84.00" arrivalLane="1341093416#0_1" arrivalPos="8.89" arrivalSpeed="7.10" duration="60.00" routeLength="96.47" waitingTime="37.00" waitingCount="1" stopTime="0.00" timeLoss="53.86" rerouteNo="0" devices="tripinfo_flow_route_61_duration_20250327_2210.2" vType="car" speedFactor="1.12" vaporized=""/>
    <tripinfo id="flow_route_61_duration_20250327_2210.3" depart="36.00" departLane="186407684#0_0" departPos="36.25" departSpeed="0.00" departDelay="0.00" arrival="87.00" arrivalLane="1341093416#0_1" arrivalPos="34.38" arrivalSpeed="9.19" duration="51.00" routeLength="108.15" waitingTime="26.00" waitingCount="1" stopTime="0.00" timeLoss="43.48" rerouteNo="0" devices="tripinfo_flow_route_61_duration_20250327_2210.3" vType="car" speedFactor="0.94" vaporized=""/>
    <tripinfo id="flow_route_60_duration_20250327_2210.6" depart="41.00" departLane="186407684#0_0" departPos="71.54" departSpeed="0.00" departDelay="1.00" arrival="91.00" arrivalLane="791826085_0" arrivalPos="54.77" arrivalSpeed="10.95" duration="50.00" routeLength="92.17" waitingTime="31.00" waitingCount="1" stopTime="0.00" timeLoss="44.29" rerouteNo="0" devices="tripinfo_flow_route_60_duration_20250327_2210.6" vType="car" speedFactor="1.02" vaporized=""/>
    <tripinfo id="flow_route_60_duration_20250327_2210.8" depart="54.00" departLane="186407684#0_0" departPos="13.38" departSpeed="0.00" departDelay="0.67" arrival="93.00" arrivalLane="791826085_1" arrivalPos="59.80" arrivalSpeed="11.34" duration="39.00" routeLength="155.35" waitingTime="9.00" waitingCount="1" stopTime="0.00" timeLoss="28.27" rerouteNo="0" devices="tripinfo_flow_route_60_duration_20250327_2210.8" vType="car" speedFactor="0.87" vaporized=""/>
    <tripinfo id="flow_route_60_duration_20250327_2210.4" depart="27.00" departLane="186407684#0_0" departPos="14.02" departSpeed="0.00" departDelay="0.34" arrival="103.00" arrivalLane="791826085_0" arrivalPos="249.33" arrivalSpeed="16.45" duration="76.00" routeLength="344.23" waitingTime="32.00" waitingCount="1" stopTime="0.00" timeLoss="54.41" rerouteNo="0" devices="tripinfo_flow_route_60_duration_20250327_2210.4" vType="car" speedFactor="0.99" vaporized=""/>
    <tripinfo id="flow_route_60_duration_20250327_2210.5" depart="35.00" departLane="186407684#0_0" departPos="11.40" departSpeed="0.00" departDelay="1.67" arrival="103.00" arrivalLane="791826085_1" arrivalPos="223.42" arrivalSpeed="14.33" duration="68.00" routeLength="320.95" waitingTime="26.00" waitingCount="1" stopTime="0.00" timeLoss="45.61" rerouteNo="0" devices="tripinfo_flow_route_60_duration_20250327_2210.5" vType="car" speedFactor="0.88" vaporized=""/>
    <tripinfo id="flow_route_60_duration_20250327_2210.7" depart="48.00" departLane="186407684#0_0" departPos="43.41" departSpeed="0.00" departDelay="1.34" arrival="103.00" arrivalLane="791826085_0" arrivalPos="194.45" arrivalSpeed="16.06" duration="55.00" routeLength="259.97" waitingTime="19.00" waitingCount="1" stopTime="0.00" timeLoss="38.06" rerouteNo="0" devices="tripinfo_flow_route_60_duration_20250327_2210.7" vType="car" speedFactor="0.97" vaporized=""/>
    <tripinfo id="flow_route_61_duration_20250327_2210.4" depart="48.00" departLane="186407684#0_0" departPos="51.12" departSpeed="0.00" departDelay="0.00" arrival="105.00" arrivalLane="1341093416#0_2" arrivalPos="263.21" arrivalSpeed="16.38" duration="57.00" routeLength="322.10" waitingTime="18.00" waitingCount="1" stopTime="0.00" timeLoss="36.06" rerouteNo="0" devices="tripinfo_flow_route_61_duration_20250327_2210.4" vType="car" speedFactor="0.89" vaporized=""/>
</tripinfos>
