<?xml version="1.0" encoding="UTF-8"?>

<!-- generated on 2025-05-06 21:08:23 by Eclipse SUMO sumo Version 1.20.0
<configuration xmlns:xsi="http://www.w3.org/2001/XMLSchema-instance" xsi:noNamespaceSchemaLocation="http://sumo.dlr.de/xsd/sumoConfiguration.xsd">

    <input>
        <net-file value="osm.net.xml"/>
        <route-files value="xml/route_rl_cluster3828547534_cluster_1507433914_2954854770_2954854771_2954854772_#9more_4.rou.xml"/>
    </input>

    <output>
        <tripinfo-output value="xml/tripinfo_rl_cluster3828547534_cluster_1507433914_2954854770_2954854771_2954854772_#9more_4.xml"/>
    </output>

    <traci_server>
        <remote-port value="39959"/>
    </traci_server>

</configuration>
-->

<tripinfos xmlns:xsi="http://www.w3.org/2001/XMLSchema-instance" xsi:noNamespaceSchemaLocation="http://sumo.dlr.de/xsd/tripinfo_file.xsd">
    <tripinfo id="flow_route_6_duration_20250327_1920.0" depart="0.00" departLane="1252820505#0_0" departPos="39.30" departSpeed="0.00" departDelay="0.00" arrival="18.00" arrivalLane="379698350#0_0" arrivalPos="9.38" arrivalSpeed="13.77" duration="18.00" routeLength="129.45" waitingTime="0.00" waitingCount="0" stopTime="0.00" timeLoss="10.11" rerouteNo="0" devices="tripinfo_flow_route_6_duration_20250327_1920.0" vType="car" speedFactor="1.01" vaporized=""/>
    <tripinfo id="flow_route_11_duration_20250327_1920.0" depart="0.00" departLane="1252820505#0_0" departPos="76.11" departSpeed="0.00" departDelay="0.00" arrival="21.00" arrivalLane="137406408#0_2" arrivalPos="68.60" arrivalSpeed="14.85" duration="21.00" routeLength="154.08" waitingTime="0.00" waitingCount="0" stopTime="0.00" timeLoss="11.20" rerouteNo="0" devices="tripinfo_flow_route_11_duration_20250327_1920.0" vType="car" speedFactor="1.05" vaporized=""/>
    <tripinfo id="flow_route_22_duration_20250327_1920.0" depart="0.00" departLane="137415945#0_0" departPos="8.70" departSpeed="0.00" departDelay="0.00" arrival="25.00" arrivalLane="1342054204_0" arrivalPos="47.56" arrivalSpeed="15.23" duration="25.00" routeLength="232.19" waitingTime="0.00" waitingCount="0" stopTime="0.00" timeLoss="9.49" rerouteNo="0" devices="tripinfo_flow_route_22_duration_20250327_1920.0" vType="car" speedFactor="0.94" vaporized=""/>
    <tripinfo id="flow_route_24_duration_20250327_1920.0" depart="4.00" departLane="137415945#0_0" departPos="6.93" departSpeed="0.00" departDelay="4.00" arrival="25.00" arrivalLane="137406408#0_0" arrivalPos="0.56" arrivalSpeed="15.95" duration="21.00" routeLength="162.63" waitingTime="0.00" waitingCount="0" stopTime="0.00" timeLoss="10.25" rerouteNo="0" devices="tripinfo_flow_route_24_duration_20250327_1920.0" vType="car" speedFactor="1.09" vaporized=""/>
    <tripinfo id="flow_route_10_duration_20250327_1920.0" depart="0.00" departLane="1252820505#0_0" departPos="5.24" departSpeed="0.00" departDelay="0.00" arrival="27.00" arrivalLane="1235147073.116_0" arrivalPos="0.67" arrivalSpeed="13.73" duration="27.00" routeLength="263.17" waitingTime="0.00" waitingCount="0" stopTime="0.00" timeLoss="7.98" rerouteNo="0" devices="tripinfo_flow_route_10_duration_20250327_1920.0" vType="car" speedFactor="0.83" vaporized=""/>
    <tripinfo id="flow_route_22_duration_20250327_1920.1" depart="8.00" departLane="137415945#0_0" departPos="2.14" departSpeed="0.00" departDelay="6.33" arrival="34.00" arrivalLane="1342054204_0" arrivalPos="55.26" arrivalSpeed="16.25" duration="26.00" routeLength="246.45" waitingTime="0.00" waitingCount="0" stopTime="0.00" timeLoss="10.41" rerouteNo="0" devices="tripinfo_flow_route_22_duration_20250327_1920.1" vType="car" speedFactor="1.03" vaporized=""/>
    <tripinfo id="flow_route_8_duration_20250327_1920.1" depart="5.00" departLane="133000078#0_0" departPos="141.45" departSpeed="0.00" departDelay="0.72" arrival="34.00" arrivalLane="1235147073.116_0" arrivalPos="4.62" arrivalSpeed="16.11" duration="29.00" routeLength="223.35" waitingTime="0.00" waitingCount="0" stopTime="0.00" timeLoss="13.71" rerouteNo="0" devices="tripinfo_flow_route_8_duration_20250327_1920.1" vType="car" speedFactor="0.99" vaporized=""/>
    <tripinfo id="flow_route_8_duration_20250327_1920.0" depart="0.00" departLane="133000078#0_0" departPos="54.62" departSpeed="0.00" departDelay="0.00" arrival="36.00" arrivalLane="1235147073.116_0" arrivalPos="9.03" arrivalSpeed="16.40" duration="36.00" routeLength="314.60" waitingTime="0.00" waitingCount="0" stopTime="0.00" timeLoss="15.85" rerouteNo="0" devices="tripinfo_flow_route_8_duration_20250327_1920.0" vType="car" speedFactor="1.03" vaporized=""/>
    <tripinfo id="flow_route_22_duration_20250327_1920.2" depart="12.00" departLane="137415945#0_0" departPos="0.85" departSpeed="0.00" departDelay="8.67" arrival="37.00" arrivalLane="1342054204_0" arrivalPos="34.59" arrivalSpeed="16.49" duration="25.00" routeLength="227.07" waitingTime="0.00" waitingCount="0" stopTime="0.00" timeLoss="10.85" rerouteNo="0" devices="tripinfo_flow_route_22_duration_20250327_1920.2" vType="car" speedFactor="1.12" vaporized=""/>
    <tripinfo id="flow_route_10_duration_20250327_1920.1" depart="11.00" departLane="1252820505#0_0" departPos="13.20" departSpeed="0.00" departDelay="2.43" arrival="39.00" arrivalLane="1235147073.116_1" arrivalPos="1.36" arrivalSpeed="15.92" duration="28.00" routeLength="255.91" waitingTime="0.00" waitingCount="0" stopTime="0.00" timeLoss="11.99" rerouteNo="0" devices="tripinfo_flow_route_10_duration_20250327_1920.1" vType="car" speedFactor="0.97" vaporized=""/>
    <tripinfo id="flow_route_6_duration_20250327_1920.1" depart="12.00" departLane="1252820505#0_0" departPos="27.28" departSpeed="0.00" departDelay="0.00" arrival="39.00" arrivalLane="379698350#0_0" arrivalPos="112.77" arrivalSpeed="15.19" duration="27.00" routeLength="244.85" waitingTime="0.00" waitingCount="0" stopTime="0.00" timeLoss="10.81" rerouteNo="0" devices="tripinfo_flow_route_6_duration_20250327_1920.1" vType="car" speedFactor="0.93" vaporized=""/>
    <tripinfo id="flow_route_8_duration_20250327_1920.4" depart="19.00" departLane="133000078#0_0" departPos="180.43" departSpeed="0.00" departDelay="1.86" arrival="41.00" arrivalLane="1235147073.116_0" arrivalPos="4.63" arrivalSpeed="16.44" duration="22.00" routeLength="184.39" waitingTime="0.00" waitingCount="0" stopTime="0.00" timeLoss="9.19" rerouteNo="0" devices="tripinfo_flow_route_8_duration_20250327_1920.4" vType="car" speedFactor="1.03" vaporized=""/>
    <tripinfo id="flow_route_6_duration_20250327_1920.2" depart="24.00" departLane="1252820505#0_0" departPos="32.98" departSpeed="0.00" departDelay="0.00" arrival="45.00" arrivalLane="379698350#0_0" arrivalPos="31.67" arrivalSpeed="15.36" duration="21.00" routeLength="158.06" waitingTime="0.00" waitingCount="0" stopTime="0.00" timeLoss="10.79" rerouteNo="0" devices="tripinfo_flow_route_6_duration_20250327_1920.2" vType="car" speedFactor="1.10" vaporized=""/>
    <tripinfo id="flow_route_11_duration_20250327_1920.1" depart="8.00" departLane="1252820505#0_0" departPos="20.98" departSpeed="0.00" departDelay="1.33" arrival="46.00" arrivalLane="137406408#0_2" arrivalPos="11.94" arrivalSpeed="9.19" duration="38.00" routeLength="152.54" waitingTime="8.00" waitingCount="1" stopTime="0.00" timeLoss="27.66" rerouteNo="0" devices="tripinfo_flow_route_11_duration_20250327_1920.1" vType="car" speedFactor="0.94" vaporized=""/>
    <tripinfo id="flow_route_11_duration_20250327_1920.2" depart="14.00" departLane="1252820505#0_0" departPos="58.99" departSpeed="0.00" departDelay="0.67" arrival="47.00" arrivalLane="137406408#0_2" arrivalPos="4.32" arrivalSpeed="8.71" duration="33.00" routeLength="106.91" waitingTime="4.00" waitingCount="1" stopTime="0.00" timeLoss="26.49" rerouteNo="0" devices="tripinfo_flow_route_11_duration_20250327_1920.2" vType="car" speedFactor="1.17" vaporized=""/>
    <tripinfo id="flow_route_10_duration_20250327_1920.2" depart="20.00" departLane="1252820505#0_0" departPos="8.82" departSpeed="0.00" departDelay="2.86" arrival="49.00" arrivalLane="1235147073.116_1" arrivalPos="1.60" arrivalSpeed="15.53" duration="29.00" routeLength="260.52" waitingTime="0.00" waitingCount="0" stopTime="0.00" timeLoss="11.85" rerouteNo="0" devices="tripinfo_flow_route_10_duration_20250327_1920.2" vType="car" speedFactor="0.96" vaporized=""/>
    <tripinfo id="flow_route_11_duration_20250327_1920.3" depart="24.00" departLane="1252820505#0_0" departPos="51.20" departSpeed="0.00" departDelay="4.00" arrival="52.00" arrivalLane="137406408#0_2" arrivalPos="27.35" arrivalSpeed="11.02" duration="28.00" routeLength="137.73" waitingTime="0.00" waitingCount="0" stopTime="0.00" timeLoss="18.90" rerouteNo="0" devices="tripinfo_flow_route_11_duration_20250327_1920.3" vType="car" speedFactor="1.00" vaporized=""/>
    <tripinfo id="flow_route_10_duration_20250327_1920.3" depart="26.00" departLane="1252820505#0_0" departPos="1.27" departSpeed="0.00" departDelay="0.29" arrival="54.00" arrivalLane="1235147073.116_1" arrivalPos="9.82" arrivalSpeed="15.98" duration="28.00" routeLength="276.28" waitingTime="0.00" waitingCount="0" stopTime="0.00" timeLoss="10.47" rerouteNo="0" devices="tripinfo_flow_route_10_duration_20250327_1920.3" vType="car" speedFactor="0.97" vaporized=""/>
    <tripinfo id="flow_route_6_duration_20250327_1920.3" depart="36.00" departLane="1252820505#0_0" departPos="73.95" departSpeed="0.00" departDelay="0.00" arrival="54.00" arrivalLane="379698350#0_0" arrivalPos="46.61" arrivalSpeed="13.89" duration="18.00" routeLength="132.03" waitingTime="0.00" waitingCount="0" stopTime="0.00" timeLoss="10.05" rerouteNo="0" devices="tripinfo_flow_route_6_duration_20250327_1920.3" vType="car" speedFactor="1.03" vaporized=""/>
    <tripinfo id="flow_route_11_duration_20250327_1920.4" depart="27.00" departLane="1252820505#0_0" departPos="30.06" departSpeed="0.00" departDelay="0.34" arrival="58.00" arrivalLane="137406408#0_2" arrivalPos="90.54" arrivalSpeed="15.47" duration="31.00" routeLength="222.06" waitingTime="2.00" waitingCount="2" stopTime="0.00" timeLoss="17.23" rerouteNo="0" devices="tripinfo_flow_route_11_duration_20250327_1920.4" vType="car" speedFactor="1.12" vaporized=""/>
    <tripinfo id="flow_route_11_duration_20250327_1920.6" depart="41.00" departLane="1252820505#0_0" departPos="52.55" departSpeed="0.00" departDelay="1.00" arrival="62.00" arrivalLane="137406408#0_2" arrivalPos="11.02" arrivalSpeed="9.20" duration="21.00" routeLength="120.06" waitingTime="0.00" waitingCount="0" stopTime="0.00" timeLoss="13.43" rerouteNo="0" devices="tripinfo_flow_route_11_duration_20250327_1920.6" vType="car" speedFactor="1.01" vaporized=""/>
    <tripinfo id="flow_route_10_duration_20250327_1920.4" depart="36.00" departLane="1252820505#0_0" departPos="27.89" departSpeed="0.00" departDelay="1.72" arrival="63.00" arrivalLane="1235147073.116_0" arrivalPos="5.61" arrivalSpeed="16.54" duration="27.00" routeLength="245.46" waitingTime="0.00" waitingCount="0" stopTime="0.00" timeLoss="11.28" rerouteNo="0" devices="tripinfo_flow_route_10_duration_20250327_1920.4" vType="car" speedFactor="1.03" vaporized=""/>
    <tripinfo id="flow_route_11_duration_20250327_1920.5" depart="35.00" departLane="1252820505#0_0" departPos="11.26" departSpeed="0.00" departDelay="1.67" arrival="70.00" arrivalLane="137406408#0_2" arrivalPos="77.87" arrivalSpeed="14.75" duration="35.00" routeLength="228.20" waitingTime="0.00" waitingCount="0" stopTime="0.00" timeLoss="19.62" rerouteNo="0" devices="tripinfo_flow_route_11_duration_20250327_1920.5" vType="car" speedFactor="0.94" vaporized=""/>
    <tripinfo id="flow_route_10_duration_20250327_1920.5" depart="44.00" departLane="1252820505#0_0" departPos="20.08" departSpeed="0.00" departDelay="1.15" arrival="71.00" arrivalLane="1235147073.116_1" arrivalPos="8.09" arrivalSpeed="16.57" duration="27.00" routeLength="255.75" waitingTime="0.00" waitingCount="0" stopTime="0.00" timeLoss="11.28" rerouteNo="0" devices="tripinfo_flow_route_10_duration_20250327_1920.5" vType="car" speedFactor="1.09" vaporized=""/>
    <tripinfo id="flow_route_11_duration_20250327_1920.7" depart="48.00" departLane="1252820505#0_0" departPos="17.55" departSpeed="0.00" departDelay="1.34" arrival="74.00" arrivalLane="137406408#0_2" arrivalPos="27.91" arrivalSpeed="11.60" duration="26.00" routeLength="171.93" waitingTime="0.00" waitingCount="0" stopTime="0.00" timeLoss="15.39" rerouteNo="0" devices="tripinfo_flow_route_11_duration_20250327_1920.7" vType="car" speedFactor="1.10" vaporized=""/>
    <tripinfo id="flow_route_10_duration_20250327_1920.6" depart="52.00" departLane="1252820505#0_0" departPos="77.67" departSpeed="0.00" departDelay="0.57" arrival="75.00" arrivalLane="1235147073.116_0" arrivalPos="3.31" arrivalSpeed="16.19" duration="23.00" routeLength="193.37" waitingTime="0.00" waitingCount="0" stopTime="0.00" timeLoss="11.11" rerouteNo="0" devices="tripinfo_flow_route_10_duration_20250327_1920.6" vType="car" speedFactor="1.10" vaporized=""/>
    <tripinfo id="flow_route_6_duration_20250327_1920.4" depart="49.00" departLane="1252820505#0_0" departPos="50.72" departSpeed="0.00" departDelay="1.00" arrival="78.00" arrivalLane="379698350#0_0" arrivalPos="118.69" arrivalSpeed="14.68" duration="29.00" routeLength="227.34" waitingTime="0.00" waitingCount="0" stopTime="0.00" timeLoss="12.92" rerouteNo="0" devices="tripinfo_flow_route_6_duration_20250327_1920.4" vType="car" speedFactor="0.89" vaporized=""/>
    <tripinfo id="flow_route_5_duration_20250327_1920.0" depart="0.00" departLane="291974733#0_0" departPos="43.68" departSpeed="0.00" departDelay="0.00" arrival="90.00" arrivalLane="1342054204_0" arrivalPos="62.15" arrivalSpeed="13.09" duration="90.00" routeLength="156.72" waitingTime="62.00" waitingCount="1" stopTime="0.00" timeLoss="79.16" rerouteNo="0" devices="tripinfo_flow_route_5_duration_20250327_1920.0" vType="car" speedFactor="0.94" vaporized=""/>
    <tripinfo id="flow_route_5_duration_20250327_1920.1" depart="13.00" departLane="291974733#0_0" departPos="19.41" departSpeed="0.00" departDelay="1.00" arrival="90.00" arrivalLane="1342054204_0" arrivalPos="24.32" arrivalSpeed="11.52" duration="77.00" routeLength="143.16" waitingTime="46.00" waitingCount="1" stopTime="0.00" timeLoss="67.38" rerouteNo="0" devices="tripinfo_flow_route_5_duration_20250327_1920.1" vType="car" speedFactor="1.13" vaporized=""/>
    <tripinfo id="flow_route_5_duration_20250327_1920.3" depart="36.00" departLane="291974733#0_0" departPos="23.47" departSpeed="0.00" departDelay="0.00" arrival="93.00" arrivalLane="1342054204_0" arrivalPos="8.52" arrivalSpeed="10.18" duration="57.00" routeLength="123.30" waitingTime="28.00" waitingCount="1" stopTime="0.00" timeLoss="49.07" rerouteNo="0" devices="tripinfo_flow_route_5_duration_20250327_1920.3" vType="car" speedFactor="1.09" vaporized=""/>
    <tripinfo id="flow_route_5_duration_20250327_1920.2" depart="24.00" departLane="291974733#0_0" departPos="25.98" departSpeed="0.00" departDelay="0.00" arrival="96.00" arrivalLane="1342054204_0" arrivalPos="73.75" arrivalSpeed="14.42" duration="72.00" routeLength="186.02" waitingTime="39.00" waitingCount="1" stopTime="0.00" timeLoss="59.32" rerouteNo="0" devices="tripinfo_flow_route_5_duration_20250327_1920.2" vType="car" speedFactor="1.02" vaporized=""/>
    <tripinfo id="flow_route_5_duration_20250327_1920.4" depart="48.00" departLane="291974733#0_0" departPos="32.13" departSpeed="0.00" departDelay="0.00" arrival="96.00" arrivalLane="1342054204_0" arrivalPos="18.47" arrivalSpeed="10.93" duration="48.00" routeLength="124.59" waitingTime="20.00" waitingCount="1" stopTime="0.00" timeLoss="39.23" rerouteNo="0" devices="tripinfo_flow_route_5_duration_20250327_1920.4" vType="car" speedFactor="0.95" vaporized=""/>
    <tripinfo id="flow_route_4_duration_20250327_1920.2" depart="40.00" departLane="291974733#0_0" departPos="7.97" departSpeed="0.00" departDelay="0.00" arrival="97.00" arrivalLane="379698350#0_2" arrivalPos="137.38" arrivalSpeed="16.14" duration="57.00" routeLength="320.31" waitingTime="14.00" waitingCount="1" stopTime="0.00" timeLoss="37.18" rerouteNo="0" devices="tripinfo_flow_route_4_duration_20250327_1920.2" vType="car" speedFactor="1.04" vaporized=""/>
    <tripinfo id="flow_route_4_duration_20250327_1920.0" depart="0.00" departLane="291974733#0_0" departPos="63.06" departSpeed="0.00" departDelay="0.00" arrival="100.00" arrivalLane="379698350#0_0" arrivalPos="183.76" arrivalSpeed="16.26" duration="100.00" routeLength="311.60" waitingTime="62.00" waitingCount="1" stopTime="0.00" timeLoss="80.71" rerouteNo="0" devices="tripinfo_flow_route_4_duration_20250327_1920.0" vType="car" speedFactor="1.06" vaporized=""/>
    <tripinfo id="flow_route_23_duration_20250327_1920.1" depart="22.00" departLane="137415945#0_0" departPos="4.73" departSpeed="0.00" departDelay="17.39" arrival="101.00" arrivalLane="379698350#0_2" arrivalPos="32.81" arrivalSpeed="9.90" duration="79.00" routeLength="220.43" waitingTime="34.00" waitingCount="2" stopTime="0.00" timeLoss="63.32" rerouteNo="0" devices="tripinfo_flow_route_23_duration_20250327_1920.1" vType="car" speedFactor="0.88" vaporized=""/>
    <tripinfo id="flow_route_4_duration_20250327_1920.1" depart="21.00" departLane="291974733#0_0" departPos="66.73" departSpeed="0.00" departDelay="1.00" arrival="101.00" arrivalLane="379698350#0_0" arrivalPos="200.36" arrivalSpeed="16.14" duration="80.00" routeLength="324.52" waitingTime="42.00" waitingCount="1" stopTime="0.00" timeLoss="59.79" rerouteNo="0" devices="tripinfo_flow_route_4_duration_20250327_1920.1" vType="car" speedFactor="1.09" vaporized=""/>
    <tripinfo id="flow_route_23_duration_20250327_1920.2" depart="48.00" departLane="137415945#0_0" departPos="0.40" departSpeed="0.00" departDelay="38.77" arrival="108.00" arrivalLane="379698350#0_2" arrivalPos="101.59" arrivalSpeed="14.97" duration="60.00" routeLength="293.54" waitingTime="10.00" waitingCount="2" stopTime="0.00" timeLoss="40.77" rerouteNo="0" devices="tripinfo_flow_route_23_duration_20250327_1920.2" vType="car" speedFactor="0.95" vaporized=""/>
    <tripinfo id="flow_route_23_duration_20250327_1920.0" depart="0.00" departLane="137415945#0_0" departPos="0.59" departSpeed="0.00" departDelay="0.00" arrival="109.00" arrivalLane="379698350#0_2" arrivalPos="153.67" arrivalSpeed="14.07" duration="109.00" routeLength="345.44" waitingTime="56.00" waitingCount="2" stopTime="0.00" timeLoss="83.66" rerouteNo="0" devices="tripinfo_flow_route_23_duration_20250327_1920.0" vType="car" speedFactor="0.86" vaporized=""/>
    <tripinfo id="flow_route_23_duration_20250327_1920.3" depart="65.00" departLane="137415945#0_0" departPos="0.21" departSpeed="0.00" departDelay="51.16" arrival="109.00" arrivalLane="379698350#0_2" arrivalPos="72.56" arrivalSpeed="12.72" duration="44.00" routeLength="264.71" waitingTime="1.00" waitingCount="1" stopTime="0.00" timeLoss="27.35" rerouteNo="0" devices="tripinfo_flow_route_23_duration_20250327_1920.3" vType="car" speedFactor="0.97" vaporized=""/>
    <tripinfo id="flow_route_23_duration_20250327_1920.4" depart="88.00" departLane="137415945#0_0" departPos="1.90" departSpeed="0.00" departDelay="69.54" arrival="120.00" arrivalLane="379698350#0_2" arrivalPos="146.58" arrivalSpeed="16.57" duration="32.00" routeLength="337.03" waitingTime="0.00" waitingCount="0" stopTime="0.00" timeLoss="10.80" rerouteNo="0" devices="tripinfo_flow_route_23_duration_20250327_1920.4" vType="car" speedFactor="1.04" vaporized=""/>
    <tripinfo id="flow_route_12_duration_20250327_1920.0" depart="0.00" departLane="133000078#0_0" departPos="66.48" departSpeed="0.00" departDelay="0.00" arrival="126.00" arrivalLane="1342054204_3" arrivalPos="21.59" arrivalSpeed="12.96" duration="126.00" routeLength="252.91" waitingTime="89.00" waitingCount="1" stopTime="0.00" timeLoss="108.59" rerouteNo="0" devices="tripinfo_flow_route_12_duration_20250327_1920.0" vType="car" speedFactor="0.89" vaporized=""/>
    <tripinfo id="flow_route_7_duration_20250327_1920.0" depart="0.00" departLane="133000078#0_0" departPos="116.92" departSpeed="0.00" departDelay="0.00" arrival="128.00" arrivalLane="137406408#0_1" arrivalPos="45.36" arrivalSpeed="15.36" duration="128.00" routeLength="233.24" waitingTime="91.00" waitingCount="1" stopTime="0.00" timeLoss="113.60" rerouteNo="0" devices="tripinfo_flow_route_7_duration_20250327_1920.0" vType="car" speedFactor="1.08" vaporized=""/>
    <tripinfo id="flow_route_12_duration_20250327_1920.6" depart="20.00" departLane="133000078#0_0" departPos="161.26" departSpeed="0.00" departDelay="0.00" arrival="129.00" arrivalLane="1342054204_3" arrivalPos="35.86" arrivalSpeed="14.46" duration="109.00" routeLength="172.40" waitingTime="79.00" waitingCount="1" stopTime="0.00" timeLoss="97.43" rerouteNo="0" devices="tripinfo_flow_route_12_duration_20250327_1920.6" vType="car" speedFactor="0.90" vaporized=""/>
    <tripinfo id="flow_route_8_duration_20250327_1920.3" depart="15.00" departLane="133000078#0_0" departPos="80.48" departSpeed="0.00" departDelay="2.15" arrival="134.00" arrivalLane="1235147073.116_0" arrivalPos="5.19" arrivalSpeed="15.76" duration="119.00" routeLength="284.89" waitingTime="77.00" waitingCount="1" stopTime="0.00" timeLoss="101.12" rerouteNo="0" devices="tripinfo_flow_route_8_duration_20250327_1920.3" vType="car" speedFactor="1.15" vaporized=""/>
    <tripinfo id="flow_route_12_duration_20250327_1920.2" depart="7.00" departLane="133000078#0_0" departPos="46.07" departSpeed="0.00" departDelay="0.33" arrival="136.00" arrivalLane="1342054204_3" arrivalPos="10.94" arrivalSpeed="12.42" duration="129.00" routeLength="262.66" waitingTime="77.00" waitingCount="3" stopTime="0.00" timeLoss="112.47" rerouteNo="0" devices="tripinfo_flow_route_12_duration_20250327_1920.2" vType="car" speedFactor="1.16" vaporized=""/>
    <tripinfo id="flow_route_12_duration_20250327_1920.9" depart="31.00" departLane="133000078#0_0" departPos="205.81" departSpeed="0.00" departDelay="1.00" arrival="136.00" arrivalLane="1342054204_3" arrivalPos="42.43" arrivalSpeed="13.10" duration="105.00" routeLength="134.42" waitingTime="85.00" waitingCount="1" stopTime="0.00" timeLoss="96.04" rerouteNo="0" devices="tripinfo_flow_route_12_duration_20250327_1920.9" vType="car" speedFactor="0.91" vaporized=""/>
    <tripinfo id="flow_route_8_duration_20250327_1920.2" depart="10.00" departLane="133000078#0_0" departPos="34.77" departSpeed="0.00" departDelay="1.43" arrival="137.00" arrivalLane="1235147073.116_0" arrivalPos="12.43" arrivalSpeed="16.23" duration="127.00" routeLength="337.84" waitingTime="77.00" waitingCount="1" stopTime="0.00" timeLoss="104.95" rerouteNo="0" devices="tripinfo_flow_route_8_duration_20250327_1920.2" vType="car" speedFactor="1.01" vaporized=""/>
    <tripinfo id="flow_route_12_duration_20250327_1920.4" depart="15.00" departLane="133000078#0_0" departPos="105.89" departSpeed="0.00" departDelay="1.67" arrival="139.00" arrivalLane="1342054204_3" arrivalPos="6.98" arrivalSpeed="13.16" duration="124.00" routeLength="198.89" waitingTime="75.00" waitingCount="2" stopTime="0.00" timeLoss="111.65" rerouteNo="0" devices="tripinfo_flow_route_12_duration_20250327_1920.4" vType="car" speedFactor="0.99" vaporized=""/>
    <tripinfo id="flow_route_8_duration_20250327_1920.5" depart="22.00" departLane="133000078#0_0" departPos="80.66" departSpeed="0.00" departDelay="0.58" arrival="139.00" arrivalLane="1235147073.116_0" arrivalPos="10.92" arrivalSpeed="13.69" duration="117.00" routeLength="290.44" waitingTime="75.00" waitingCount="1" stopTime="0.00" timeLoss="94.72" rerouteNo="0" devices="tripinfo_flow_route_8_duration_20250327_1920.5" vType="car" speedFactor="0.85" vaporized=""/>
    <tripinfo id="flow_route_12_duration_20250327_1920.8" depart="27.00" departLane="133000078#0_0" departPos="164.76" departSpeed="0.00" departDelay="0.34" arrival="142.00" arrivalLane="1342054204_3" arrivalPos="77.39" arrivalSpeed="16.16" duration="115.00" routeLength="210.43" waitingTime="76.00" waitingCount="2" stopTime="0.00" timeLoss="102.08" rerouteNo="0" devices="tripinfo_flow_route_12_duration_20250327_1920.8" vType="car" speedFactor="1.02" vaporized=""/>
    <tripinfo id="flow_route_12_duration_20250327_1920.7" depart="24.00" departLane="133000078#0_0" departPos="140.58" departSpeed="0.00" departDelay="0.67" arrival="145.00" arrivalLane="1342054204_3" arrivalPos="78.89" arrivalSpeed="16.24" duration="121.00" routeLength="236.11" waitingTime="74.00" waitingCount="2" stopTime="0.00" timeLoss="106.75" rerouteNo="0" devices="tripinfo_flow_route_12_duration_20250327_1920.7" vType="car" speedFactor="1.00" vaporized=""/>
    <tripinfo id="flow_route_12_duration_20250327_1920.11" depart="38.00" departLane="133000078#0_0" departPos="163.74" departSpeed="0.00" departDelay="1.34" arrival="145.00" arrivalLane="1342054204_3" arrivalPos="40.63" arrivalSpeed="16.03" duration="107.00" routeLength="174.69" waitingTime="78.00" waitingCount="2" stopTime="0.00" timeLoss="95.64" rerouteNo="0" devices="tripinfo_flow_route_12_duration_20250327_1920.11" vType="car" speedFactor="1.00" vaporized=""/>
    <tripinfo id="flow_route_8_duration_20250327_1920.9" depart="39.00" departLane="133000078#0_0" departPos="153.02" departSpeed="0.00" departDelay="0.44" arrival="147.00" arrivalLane="1235147073.116_0" arrivalPos="6.17" arrivalSpeed="16.41" duration="108.00" routeLength="213.34" waitingTime="78.00" waitingCount="1" stopTime="0.00" timeLoss="93.87" rerouteNo="0" devices="tripinfo_flow_route_8_duration_20250327_1920.9" vType="car" speedFactor="1.15" vaporized=""/>
    <tripinfo id="flow_route_8_duration_20250327_1920.8" depart="38.00" departLane="133000078#0_0" departPos="117.40" departSpeed="0.00" departDelay="3.72" arrival="148.00" arrivalLane="1235147073.116_0" arrivalPos="6.81" arrivalSpeed="15.93" duration="110.00" routeLength="249.58" waitingTime="72.00" waitingCount="1" stopTime="0.00" timeLoss="93.62" rerouteNo="0" devices="tripinfo_flow_route_8_duration_20250327_1920.8" vType="car" speedFactor="0.98" vaporized=""/>
    <tripinfo id="flow_route_12_duration_20250327_1920.1" depart="4.00" departLane="133000078#0_0" departPos="6.69" departSpeed="0.00" departDelay="0.67" arrival="151.00" arrivalLane="1342054204_3" arrivalPos="77.43" arrivalSpeed="16.27" duration="147.00" routeLength="368.53" waitingTime="80.00" waitingCount="2" stopTime="0.00" timeLoss="124.21" rerouteNo="0" devices="tripinfo_flow_route_12_duration_20250327_1920.1" vType="car" speedFactor="1.05" vaporized=""/>
    <tripinfo id="flow_route_12_duration_20250327_1920.12" depart="40.00" departLane="133000078#0_0" departPos="163.71" departSpeed="0.00" departDelay="0.00" arrival="152.00" arrivalLane="1342054204_3" arrivalPos="39.75" arrivalSpeed="15.27" duration="112.00" routeLength="173.84" waitingTime="86.00" waitingCount="3" stopTime="0.00" timeLoss="101.08" rerouteNo="0" devices="tripinfo_flow_route_12_duration_20250327_1920.12" vType="car" speedFactor="1.02" vaporized=""/>
    <tripinfo id="flow_route_8_duration_20250327_1920.6" depart="27.00" departLane="133000078#0_0" departPos="34.59" departSpeed="0.00" departDelay="1.29" arrival="153.00" arrivalLane="1235147073.116_0" arrivalPos="13.11" arrivalSpeed="15.63" duration="126.00" routeLength="338.71" waitingTime="66.00" waitingCount="1" stopTime="0.00" timeLoss="104.79" rerouteNo="0" devices="tripinfo_flow_route_8_duration_20250327_1920.6" vType="car" speedFactor="1.02" vaporized=""/>
    <tripinfo id="flow_route_8_duration_20250327_1920.10" depart="43.00" departLane="133000078#0_0" departPos="47.56" departSpeed="0.00" departDelay="0.15" arrival="154.00" arrivalLane="1235147073.116_0" arrivalPos="1.68" arrivalSpeed="15.15" duration="111.00" routeLength="314.30" waitingTime="60.00" waitingCount="1" stopTime="0.00" timeLoss="89.38" rerouteNo="0" devices="tripinfo_flow_route_8_duration_20250327_1920.10" vType="car" speedFactor="0.92" vaporized=""/>
    <tripinfo id="flow_route_12_duration_20250327_1920.3" depart="11.00" departLane="133000078#0_0" departPos="5.75" departSpeed="0.00" departDelay="1.00" arrival="157.00" arrivalLane="1342054204_3" arrivalPos="83.74" arrivalSpeed="14.53" duration="146.00" routeLength="375.79" waitingTime="78.00" waitingCount="1" stopTime="0.00" timeLoss="119.43" rerouteNo="0" devices="tripinfo_flow_route_12_duration_20250327_1920.3" vType="car" speedFactor="0.87" vaporized=""/>
    <tripinfo id="flow_route_8_duration_20250327_1920.12" depart="53.00" departLane="133000078#0_0" departPos="10.02" departSpeed="0.00" departDelay="1.58" arrival="157.00" arrivalLane="1235147073.116_0" arrivalPos="2.35" arrivalSpeed="14.34" duration="104.00" routeLength="352.51" waitingTime="49.00" waitingCount="1" stopTime="0.00" timeLoss="78.45" rerouteNo="0" devices="tripinfo_flow_route_8_duration_20250327_1920.12" vType="car" speedFactor="0.87" vaporized=""/>
    <tripinfo id="flow_route_8_duration_20250327_1920.7" depart="31.00" departLane="133000078#0_0" departPos="81.24" departSpeed="0.00" departDelay="1.01" arrival="161.00" arrivalLane="1235147073.116_0" arrivalPos="0.18" arrivalSpeed="14.91" duration="130.00" routeLength="279.11" waitingTime="74.00" waitingCount="3" stopTime="0.00" timeLoss="110.27" rerouteNo="0" devices="tripinfo_flow_route_8_duration_20250327_1920.7" vType="car" speedFactor="0.91" vaporized=""/>
    <tripinfo id="flow_route_22_duration_20250327_1920.4" depart="28.00" departLane="137415945#0_0" departPos="4.31" departSpeed="0.00" departDelay="21.34" arrival="162.00" arrivalLane="1342054204_0" arrivalPos="35.88" arrivalSpeed="12.81" duration="134.00" routeLength="224.90" waitingTime="98.00" waitingCount="2" stopTime="0.00" timeLoss="120.03" rerouteNo="0" devices="tripinfo_flow_route_22_duration_20250327_1920.4" vType="car" speedFactor="1.02" vaporized=""/>