<?xml version="1.0" encoding="UTF-8"?>

<!-- generated on 2025-05-06 21:08:25 by Eclipse SUMO sumo Version 1.20.0
<configuration xmlns:xsi="http://www.w3.org/2001/XMLSchema-instance" xsi:noNamespaceSchemaLocation="http://sumo.dlr.de/xsd/sumoConfiguration.xsd">

    <input>
        <net-file value="osm.net.xml"/>
        <route-files value="xml/route_static_cluster_11648561419_11648561420_2271142975_4854142869_4.rou.xml"/>
    </input>

    <output>
        <tripinfo-output value="xml/tripinfo_static_cluster_11648561419_11648561420_2271142975_4854142869_4.xml"/>
    </output>

    <traci_server>
        <remote-port value="32935"/>
    </traci_server>

</configuration>
-->

<tripinfos xmlns:xsi="http://www.w3.org/2001/XMLSchema-instance" xsi:noNamespaceSchemaLocation="http://sumo.dlr.de/xsd/tripinfo_file.xsd">
    <tripinfo id="flow_route_97_duration_20250327_2010.0" depart="0.00" departLane="1328664748#0_0" departPos="149.74" departSpeed="0.00" departDelay="0.00" arrival="27.00" arrivalLane="135474719#0_0" arrivalPos="137.46" arrivalSpeed="15.56" duration="27.00" routeLength="222.45" waitingTime="0.00" waitingCount="0" stopTime="0.00" timeLoss="12.44" rerouteNo="0" devices="tripinfo_flow_route_97_duration_20250327_2010.0" vType="car" speedFactor="1.06" vaporized=""/>
    <tripinfo id="flow_route_98_duration_20250327_2010.0" depart="0.00" departLane="1328664748#0_0" departPos="103.72" departSpeed="0.00" departDelay="0.00" arrival="27.00" arrivalLane="177211987#1_1" arrivalPos="104.29" arrivalSpeed="15.49" duration="27.00" routeLength="249.04" waitingTime="0.00" waitingCount="0" stopTime="0.00" timeLoss="10.79" rerouteNo="0" devices="tripinfo_flow_route_98_duration_20250327_2010.0" vType="car" speedFactor="0.94" vaporized=""/>
    <tripinfo id="flow_route_118_duration_20250327_2010.1" depart="2.00" departLane="134194079#0_0" departPos="243.19" departSpeed="0.00" departDelay="0.78" arrival="27.00" arrivalLane="1328664744#0_0" arrivalPos="140.54" arrivalSpeed="16.26" duration="25.00" routeLength="218.50" waitingTime="0.00" waitingCount="0" stopTime="0.00" timeLoss="11.32" rerouteNo="0" devices="tripinfo_flow_route_118_duration_20250327_2010.1" vType="car" speedFactor="1.03" vaporized=""/>
    <tripinfo id="flow_route_119_duration_20250327_2010.1" depart="2.00" departLane="134194079#0_0" departPos="261.87" departSpeed="0.00" departDelay="0.13" arrival="31.00" arrivalLane="1253188486#8_0" arrivalPos="230.38" arrivalSpeed="16.38" duration="29.00" routeLength="279.47" waitingTime="0.00" waitingCount="0" stopTime="0.00" timeLoss="10.02" rerouteNo="0" devices="tripinfo_flow_route_119_duration_20250327_2010.1" vType="car" speedFactor="1.05" vaporized=""/>
    <tripinfo id="flow_route_118_duration_20250327_2010.8" depart="14.00" departLane="134194079#0_0" departPos="272.87" departSpeed="0.00" departDelay="4.21" arrival="31.00" arrivalLane="1328664744#0_0" arrivalPos="69.63" arrivalSpeed="13.19" duration="17.00" routeLength="117.91" waitingTime="0.00" waitingCount="0" stopTime="0.00" timeLoss="9.78" rerouteNo="0" devices="tripinfo_flow_route_118_duration_20250327_2010.8" vType="car" speedFactor="0.99" vaporized=""/>
    <tripinfo id="flow_route_119_duration_20250327_2010.0" depart="0.00" departLane="134194079#0_0" departPos="151.34" departSpeed="0.00" departDelay="0.00" arrival="32.00" arrivalLane="1253188486#8_0" arrivalPos="1.48" arrivalSpeed="8.45" duration="32.00" routeLength="161.10" waitingTime="0.00" waitingCount="0" stopTime="0.00" timeLoss="21.31" rerouteNo="0" devices="tripinfo_flow_route_119_duration_20250327_2010.0" vType="car" speedFactor="1.09" vaporized=""/>
    <tripinfo id="flow_route_118_duration_20250327_2010.6" depart="13.00" departLane="134194079#0_0" departPos="243.55" departSpeed="0.00" departDelay="5.66" arrival="32.00" arrivalLane="1328664744#0_0" arrivalPos="37.36" arrivalSpeed="12.08" duration="19.00" routeLength="114.96" waitingTime="0.00" waitingCount="0" stopTime="0.00" timeLoss="11.84" rerouteNo="0" devices="tripinfo_flow_route_118_duration_20250327_2010.6" vType="car" speedFactor="1.18" vaporized=""/>
    <tripinfo id="flow_route_118_duration_20250327_2010.3" depart="4.00" departLane="134194079#0_0" departPos="97.74" departSpeed="0.00" departDelay="0.33" arrival="33.00" arrivalLane="1328664744#0_1" arrivalPos="35.30" arrivalSpeed="15.50" duration="29.00" routeLength="258.71" waitingTime="0.00" waitingCount="0" stopTime="0.00" timeLoss="11.71" rerouteNo="0" devices="tripinfo_flow_route_118_duration_20250327_2010.3" vType="car" speedFactor="0.94" vaporized=""/>
    <tripinfo id="flow_route_119_duration_20250327_2010.3" depart="7.00" departLane="134194079#0_0" departPos="197.11" departSpeed="0.00" departDelay="1.38" arrival="35.00" arrivalLane="1253188486#8_0" arrivalPos="54.74" arrivalSpeed="11.97" duration="28.00" routeLength="168.58" waitingTime="0.00" waitingCount="0" stopTime="0.00" timeLoss="16.86" rerouteNo="0" devices="tripinfo_flow_route_119_duration_20250327_2010.3" vType="car" speedFactor="1.01" vaporized=""/>
    <tripinfo id="flow_route_118_duration_20250327_2010.7" depart="14.00" departLane="134194079#0_0" departPos="258.30" departSpeed="0.00" departDelay="5.43" arrival="36.00" arrivalLane="1328664744#0_0" arrivalPos="121.30" arrivalSpeed="16.23" duration="22.00" routeLength="184.15" waitingTime="0.00" waitingCount="0" stopTime="0.00" timeLoss="10.76" rerouteNo="0" devices="tripinfo_flow_route_118_duration_20250327_2010.7" vType="car" speedFactor="1.01" vaporized=""/>
    <tripinfo id="flow_route_97_duration_20250327_2010.1" depart="8.00" departLane="1328664748#0_0" departPos="142.76" departSpeed="0.00" departDelay="0.50" arrival="38.00" arrivalLane="135474719#0_0" arrivalPos="144.26" arrivalSpeed="14.40" duration="30.00" routeLength="236.22" waitingTime="0.00" waitingCount="0" stopTime="0.00" timeLoss="12.41" rerouteNo="0" devices="tripinfo_flow_route_97_duration_20250327_2010.1" vType="car" speedFactor="0.87" vaporized=""/>
    <tripinfo id="flow_route_118_duration_20250327_2010.2" depart="3.00" departLane="134194079#0_0" departPos="9.56" departSpeed="0.00" departDelay="0.55" arrival="41.00" arrivalLane="1328664744#0_2" arrivalPos="120.76" arrivalSpeed="16.07" duration="38.00" routeLength="432.34" waitingTime="0.00" waitingCount="0" stopTime="0.00" timeLoss="11.35" rerouteNo="0" devices="tripinfo_flow_route_118_duration_20250327_2010.2" vType="car" speedFactor="0.99" vaporized=""/>
    <tripinfo id="flow_route_118_duration_20250327_2010.10" depart="22.00" departLane="134194079#0_0" departPos="235.41" departSpeed="0.00" departDelay="9.76" arrival="43.00" arrivalLane="1328664744#0_0" arrivalPos="86.47" arrivalSpeed="15.63" duration="21.00" routeLength="172.20" waitingTime="0.00" waitingCount="0" stopTime="0.00" timeLoss="9.91" rerouteNo="0" devices="tripinfo_flow_route_118_duration_20250327_2010.10" vType="car" speedFactor="0.96" vaporized=""/>
    <tripinfo id="flow_route_118_duration_20250327_2010.0" depart="0.00" departLane="134194079#0_0" departPos="13.63" departSpeed="0.00" departDelay="0.00" arrival="44.00" arrivalLane="1328664744#0_1" arrivalPos="165.30" arrivalSpeed="14.03" duration="44.00" routeLength="472.83" waitingTime="0.00" waitingCount="0" stopTime="0.00" timeLoss="10.69" rerouteNo="0" devices="tripinfo_flow_route_118_duration_20250327_2010.0" vType="car" speedFactor="0.86" vaporized=""/>
    <tripinfo id="flow_route_97_duration_20250327_2010.3" depart="23.00" departLane="1328664748#0_0" departPos="108.45" departSpeed="0.00" departDelay="0.50" arrival="45.00" arrivalLane="135474719#0_0" arrivalPos="1.80" arrivalSpeed="7.09" duration="22.00" routeLength="128.07" waitingTime="0.00" waitingCount="0" stopTime="0.00" timeLoss="13.07" rerouteNo="0" devices="tripinfo_flow_route_97_duration_20250327_2010.3" vType="car" speedFactor="1.04" vaporized=""/>
    <tripinfo id="flow_route_99_duration_20250327_2010.0" depart="1.00" departLane="1328664748#0_0" departPos="68.32" departSpeed="0.00" departDelay="1.00" arrival="49.00" arrivalLane="1253188486#8_2" arrivalPos="11.16" arrivalSpeed="7.85" duration="48.00" routeLength="200.71" waitingTime="13.00" waitingCount="1" stopTime="0.00" timeLoss="35.06" rerouteNo="0" devices="tripinfo_flow_route_99_duration_20250327_2010.0" vType="car" speedFactor="1.01" vaporized=""/>
    <tripinfo id="flow_route_99_duration_20250327_2010.1" depart="7.00" departLane="1328664748#0_0" departPos="159.20" departSpeed="0.00" departDelay="0.33" arrival="51.00" arrivalLane="1253188486#8_2" arrivalPos="59.22" arrivalSpeed="11.51" duration="44.00" routeLength="157.89" waitingTime="13.00" waitingCount="1" stopTime="0.00" timeLoss="33.65" rerouteNo="0" devices="tripinfo_flow_route_99_duration_20250327_2010.1" vType="car" speedFactor="0.97" vaporized=""/>
    <tripinfo id="flow_route_97_duration_20250327_2010.4" depart="30.00" departLane="1328664748#0_0" departPos="176.40" departSpeed="0.00" departDelay="0.00" arrival="53.00" arrivalLane="135474719#0_0" arrivalPos="114.33" arrivalSpeed="14.43" duration="23.00" routeLength="172.65" waitingTime="0.00" waitingCount="0" stopTime="0.00" timeLoss="11.34" rerouteNo="0" devices="tripinfo_flow_route_97_duration_20250327_2010.4" vType="car" speedFactor="1.02" vaporized=""/>
    <tripinfo id="flow_route_97_duration_20250327_2010.2" depart="15.00" departLane="1328664748#0_0" departPos="22.59" departSpeed="0.00" departDelay="0.00" arrival="55.00" arrivalLane="135474719#0_0" arrivalPos="70.32" arrivalSpeed="12.28" duration="40.00" routeLength="282.45" waitingTime="0.00" waitingCount="0" stopTime="0.00" timeLoss="21.61" rerouteNo="0" devices="tripinfo_flow_route_97_duration_20250327_2010.2" vType="car" speedFactor="1.00" vaporized=""/>
    <tripinfo id="flow_route_99_duration_20250327_2010.3" depart="20.00" departLane="1328664748#0_0" departPos="182.69" departSpeed="0.00" departDelay="0.00" arrival="56.00" arrivalLane="1253188486#8_2" arrivalPos="68.03" arrivalSpeed="12.91" duration="36.00" routeLength="143.21" waitingTime="7.00" waitingCount="1" stopTime="0.00" timeLoss="26.65" rerouteNo="0" devices="tripinfo_flow_route_99_duration_20250327_2010.3" vType="car" speedFactor="1.08" vaporized=""/>
    <tripinfo id="flow_route_99_duration_20250327_2010.4" depart="27.00" departLane="1328664748#0_0" departPos="103.64" departSpeed="0.00" departDelay="0.34" arrival="56.00" arrivalLane="1253188486#8_2" arrivalPos="23.97" arrivalSpeed="9.57" duration="29.00" routeLength="178.20" waitingTime="0.00" waitingCount="0" stopTime="0.00" timeLoss="17.66" rerouteNo="0" devices="tripinfo_flow_route_99_duration_20250327_2010.4" vType="car" speedFactor="1.03" vaporized=""/>
    <tripinfo id="flow_route_110_duration_20250327_2010.0" depart="0.00" departLane="1254519225#0.109_0" departPos="3.76" departSpeed="0.00" departDelay="0.00" arrival="63.00" arrivalLane="177211987#1_2" arrivalPos="6.38" arrivalSpeed="7.38" duration="63.00" routeLength="190.24" waitingTime="32.00" waitingCount="1" stopTime="0.00" timeLoss="48.39" rerouteNo="0" devices="tripinfo_flow_route_110_duration_20250327_2010.0" vType="car" speedFactor="0.83" vaporized=""/>
    <tripinfo id="flow_route_99_duration_20250327_2010.2" depart="14.00" departLane="1328664748#0_0" departPos="94.58" departSpeed="0.00" departDelay="0.67" arrival="70.00" arrivalLane="1253188486#8_2" arrivalPos="239.65" arrivalSpeed="16.41" duration="56.00" routeLength="402.94" waitingTime="6.00" waitingCount="1" stopTime="0.00" timeLoss="30.47" rerouteNo="0" devices="tripinfo_flow_route_99_duration_20250327_2010.2" vType="car" speedFactor="1.09" vaporized=""/>
    <tripinfo id="flow_route_108_duration_20250327_2010.0" depart="0.00" departLane="1254519225#0.109_0" departPos="35.33" departSpeed="0.00" departDelay="0.00" arrival="71.00" arrivalLane="135474719#0_0" arrivalPos="75.82" arrivalSpeed="14.26" duration="71.00" routeLength="240.24" waitingTime="32.00" waitingCount="1" stopTime="0.00" timeLoss="55.82" rerouteNo="0" devices="tripinfo_flow_route_108_duration_20250327_2010.0" vType="car" speedFactor="1.08" vaporized=""/>
    <tripinfo id="flow_route_110_duration_20250327_2010.1" depart="8.00" departLane="1254519225#0.109_0" departPos="1.74" departSpeed="0.00" departDelay="0.50" arrival="71.00" arrivalLane="177211987#1_2" arrivalPos="45.05" arrivalSpeed="11.11" duration="63.00" routeLength="230.93" waitingTime="26.00" waitingCount="1" stopTime="0.00" timeLoss="47.64" rerouteNo="0" devices="tripinfo_flow_route_110_duration_20250327_2010.1" vType="car" speedFactor="0.95" vaporized=""/>
    <tripinfo id="flow_route_108_duration_20250327_2010.2" depart="14.00" departLane="1254519225#0.109_0" departPos="44.34" departSpeed="0.00" departDelay="0.67" arrival="71.00" arrivalLane="135474719#0_0" arrivalPos="3.68" arrivalSpeed="10.95" duration="57.00" routeLength="159.09" waitingTime="24.00" waitingCount="1" stopTime="0.00" timeLoss="46.91" rerouteNo="0" devices="tripinfo_flow_route_108_duration_20250327_2010.2" vType="car" speedFactor="1.04" vaporized=""/>
    <tripinfo id="flow_route_109_duration_20250327_2010.1" depart="4.00" departLane="1254519225#0.109_0" departPos="1.86" departSpeed="0.00" departDelay="0.00" arrival="72.00" arrivalLane="1328664744#0_0" arrivalPos="66.95" arrivalSpeed="12.33" duration="68.00" routeLength="239.32" waitingTime="29.00" waitingCount="1" stopTime="0.00" timeLoss="51.26" rerouteNo="0" devices="tripinfo_flow_route_109_duration_20250327_2010.1" vType="car" speedFactor="0.93" vaporized=""/>
    <tripinfo id="flow_route_109_duration_20250327_2010.3" depart="12.00" departLane="1254519225#0.109_0" departPos="26.40" departSpeed="0.00" departDelay="0.00" arrival="72.00" arrivalLane="1328664744#0_0" arrivalPos="17.75" arrivalSpeed="9.87" duration="60.00" routeLength="165.57" waitingTime="25.00" waitingCount="1" stopTime="0.00" timeLoss="48.27" rerouteNo="0" devices="tripinfo_flow_route_109_duration_20250327_2010.3" vType="car" speedFactor="0.97" vaporized=""/>
    <tripinfo id="flow_route_109_duration_20250327_2010.0" depart="0.00" departLane="1254519225#0.109_0" departPos="16.50" departSpeed="0.00" departDelay="0.00" arrival="74.00" arrivalLane="1328664744#0_0" arrivalPos="130.88" arrivalSpeed="15.12" duration="74.00" routeLength="288.61" waitingTime="32.00" waitingCount="1" stopTime="0.00" timeLoss="55.74" rerouteNo="0" devices="tripinfo_flow_route_109_duration_20250327_2010.0" vType="car" speedFactor="1.03" vaporized=""/>
    <tripinfo id="flow_route_108_duration_20250327_2010.1" depart="7.00" departLane="1254519225#0.109_0" departPos="37.20" departSpeed="0.00" departDelay="0.33" arrival="77.00" arrivalLane="135474719#0_2" arrivalPos="125.23" arrivalSpeed="14.69" duration="70.00" routeLength="287.78" waitingTime="28.00" waitingCount="1" stopTime="0.00" timeLoss="49.68" rerouteNo="0" devices="tripinfo_flow_route_108_duration_20250327_2010.1" vType="car" speedFactor="0.89" vaporized=""/>
    <tripinfo id="flow_route_108_duration_20250327_2010.3" depart="20.00" departLane="1254519225#0.109_0" departPos="58.95" departSpeed="0.00" departDelay="0.00" arrival="77.00" arrivalLane="135474719#0_2" arrivalPos="58.54" arrivalSpeed="14.54" duration="57.00" routeLength="199.35" waitingTime="20.00" waitingCount="2" stopTime="0.00" timeLoss="44.43" rerouteNo="0" devices="tripinfo_flow_route_108_duration_20250327_2010.3" vType="car" speedFactor="1.12" vaporized=""/>
    <tripinfo id="flow_route_110_duration_20250327_2010.3" depart="23.00" departLane="1254519225#0.109_0" departPos="58.41" departSpeed="0.00" departDelay="0.50" arrival="78.00" arrivalLane="177211987#1_2" arrivalPos="71.20" arrivalSpeed="14.37" duration="55.00" routeLength="200.41" waitingTime="18.00" waitingCount="4" stopTime="0.00" timeLoss="42.23" rerouteNo="0" devices="tripinfo_flow_route_110_duration_20250327_2010.3" vType="car" speedFactor="1.02" vaporized=""/>
    <tripinfo id="flow_route_108_duration_20250327_2010.4" depart="27.00" departLane="1254519225#0.109_0" departPos="11.89" departSpeed="0.00" departDelay="0.34" arrival="78.00" arrivalLane="135474719#0_2" arrivalPos="34.86" arrivalSpeed="13.89" duration="51.00" routeLength="222.73" waitingTime="13.00" waitingCount="1" stopTime="0.00" timeLoss="37.45" rerouteNo="0" devices="tripinfo_flow_route_108_duration_20250327_2010.4" vType="car" speedFactor="1.00" vaporized=""/>
    <tripinfo id="flow_route_110_duration_20250327_2010.2" depart="15.00" departLane="1254519225#0.109_0" departPos="29.09" departSpeed="0.00" departDelay="0.00" arrival="79.00" arrivalLane="177211987#1_2" arrivalPos="127.90" arrivalSpeed="14.76" duration="64.00" routeLength="286.43" waitingTime="21.00" waitingCount="3" stopTime="0.00" timeLoss="43.67" rerouteNo="0" devices="tripinfo_flow_route_110_duration_20250327_2010.2" vType="car" speedFactor="0.90" vaporized=""/>
    <tripinfo id="flow_route_108_duration_20250327_2010.5" depart="34.00" departLane="1254519225#0.109_0" departPos="0.83" departSpeed="0.00" departDelay="0.67" arrival="81.00" arrivalLane="135474719#0_2" arrivalPos="40.77" arrivalSpeed="14.23" duration="47.00" routeLength="239.70" waitingTime="9.00" waitingCount="1" stopTime="0.00" timeLoss="31.24" rerouteNo="0" devices="tripinfo_flow_route_108_duration_20250327_2010.5" vType="car" speedFactor="0.96" vaporized=""/>
    <tripinfo id="flow_route_109_duration_20250327_2010.8" depart="32.00" departLane="1254519225#0.109_0" departPos="56.45" departSpeed="0.00" departDelay="0.00" arrival="83.00" arrivalLane="1328664744#0_0" arrivalPos="87.51" arrivalSpeed="14.97" duration="51.00" routeLength="205.28" waitingTime="15.00" waitingCount="3" stopTime="0.00" timeLoss="37.58" rerouteNo="0" devices="tripinfo_flow_route_109_duration_20250327_2010.8" vType="car" speedFactor="1.01" vaporized=""/>
    <tripinfo id="flow_route_109_duration_20250327_2010.5" depart="20.00" departLane="1254519225#0.109_0" departPos="34.27" departSpeed="0.00" departDelay="0.00" arrival="86.00" arrivalLane="1328664744#0_0" arrivalPos="151.05" arrivalSpeed="15.69" duration="66.00" routeLength="291.01" waitingTime="15.00" waitingCount="2" stopTime="0.00" timeLoss="46.92" rerouteNo="0" devices="tripinfo_flow_route_109_duration_20250327_2010.5" vType="car" speedFactor="1.02" vaporized=""/>
    <tripinfo id="flow_route_109_duration_20250327_2010.2" depart="8.00" departLane="1254519225#0.109_0" departPos="9.47" departSpeed="0.00" departDelay="0.00" arrival="88.00" arrivalLane="1328664744#0_0" arrivalPos="212.96" arrivalSpeed="15.14" duration="80.00" routeLength="377.72" waitingTime="20.00" waitingCount="2" stopTime="0.00" timeLoss="54.01" rerouteNo="0" devices="tripinfo_flow_route_109_duration_20250327_2010.2" vType="car" speedFactor="0.92" vaporized=""/>
    <tripinfo id="flow_route_110_duration_20250327_2010.4" depart="30.00" departLane="1254519225#0.109_0" departPos="46.11" departSpeed="0.00" departDelay="0.00" arrival="88.00" arrivalLane="177211987#1_2" arrivalPos="97.50" arrivalSpeed="15.90" duration="58.00" routeLength="239.01" waitingTime="13.00" waitingCount="3" stopTime="0.00" timeLoss="42.22" rerouteNo="0" devices="tripinfo_flow_route_110_duration_20250327_2010.4" vType="car" speedFactor="1.02" vaporized=""/>
    <tripinfo id="flow_route_109_duration_20250327_2010.4" depart="16.00" departLane="1254519225#0.109_0" departPos="8.81" departSpeed="0.00" departDelay="0.00" arrival="89.00" arrivalLane="1328664744#0_0" arrivalPos="146.82" arrivalSpeed="16.49" duration="73.00" routeLength="312.25" waitingTime="10.00" waitingCount="1" stopTime="0.00" timeLoss="52.98" rerouteNo="0" devices="tripinfo_flow_route_109_duration_20250327_2010.4" vType="car" speedFactor="1.02" vaporized=""/>
    <tripinfo id="flow_route_114_duration_20250327_2010.0" depart="0.00" departLane="1253188486#4_0" departPos="49.31" departSpeed="0.00" departDelay="0.00" arrival="94.00" arrivalLane="177211987#1_0" arrivalPos="36.23" arrivalSpeed="9.31" duration="94.00" routeLength="153.37" waitingTime="64.00" waitingCount="1" stopTime="0.00" timeLoss="83.14" rerouteNo="0" devices="tripinfo_flow_route_114_duration_20250327_2010.0" vType="car" speedFactor="0.89" vaporized=""/>
    <tripinfo id="flow_route_113_duration_20250327_2010.1" depart="3.00" departLane="1253188486#4_0" departPos="36.26" departSpeed="0.00" departDelay="0.50" arrival="99.00" arrivalLane="1253188486#8_1" arrivalPos="97.30" arrivalSpeed="15.35" duration="96.00" routeLength="259.67" waitingTime="59.00" waitingCount="1" stopTime="0.00" timeLoss="79.95" rerouteNo="0" devices="tripinfo_flow_route_113_duration_20250327_2010.1" vType="car" speedFactor="1.12" vaporized=""/>
    <tripinfo id="flow_route_113_duration_20250327_2010.2" depart="6.00" departLane="1253188486#4_0" departPos="25.72" departSpeed="0.00" departDelay="1.00" arrival="99.00" arrivalLane="1253188486#8_0" arrivalPos="30.76" arrivalSpeed="11.96" duration="93.00" routeLength="203.67" waitingTime="57.00" waitingCount="1" stopTime="0.00" timeLoss="80.09" rerouteNo="0" devices="tripinfo_flow_route_113_duration_20250327_2010.2" vType="car" speedFactor="1.16" vaporized=""/>
    <tripinfo id="flow_route_113_duration_20250327_2010.7" depart="22.00" departLane="1253188486#4_0" departPos="100.88" departSpeed="0.00" departDelay="4.50" arrival="99.00" arrivalLane="1253188486#8_0" arrivalPos="10.45" arrivalSpeed="10.78" duration="77.00" routeLength="108.20" waitingTime="51.00" waitingCount="1" stopTime="0.00" timeLoss="69.97" rerouteNo="0" devices="tripinfo_flow_route_113_duration_20250327_2010.7" vType="car" speedFactor="1.00" vaporized=""/>
    <tripinfo id="flow_route_115_duration_20250327_2010.0" depart="0.00" departLane="1253188486#4_0" departPos="104.70" departSpeed="0.00" departDelay="0.00" arrival="100.00" arrivalLane="1328664744#0_2" arrivalPos="120.97" arrivalSpeed="15.56" duration="100.00" routeLength="201.67" waitingTime="68.00" waitingCount="1" stopTime="0.00" timeLoss="85.63" rerouteNo="0" devices="tripinfo_flow_route_115_duration_20250327_2010.0" vType="car" speedFactor="0.94" vaporized=""/>
    <tripinfo id="flow_route_115_duration_20250327_2010.2" depart="11.00" departLane="1253188486#4_0" departPos="27.67" departSpeed="0.00" departDelay="3.50" arrival="104.00" arrivalLane="1328664744#0_2" arrivalPos="128.69" arrivalSpeed="14.62" duration="93.00" routeLength="286.42" waitingTime="52.00" waitingCount="1" stopTime="0.00" timeLoss="73.62" rerouteNo="0" devices="tripinfo_flow_route_115_duration_20250327_2010.2" vType="car" speedFactor="0.93" vaporized=""/>
    <tripinfo id="flow_route_113_duration_20250327_2010.0" depart="0.00" departLane="1253188486#4_0" departPos="134.10" departSpeed="0.00" departDelay="0.00" arrival="105.00" arrivalLane="1253188486#8_0" arrivalPos="182.35" arrivalSpeed="16.40" duration="105.00" routeLength="246.88" waitingTime="73.00" waitingCount="1" stopTime="0.00" timeLoss="89.41" rerouteNo="0" devices="tripinfo_flow_route_113_duration_20250327_2010.0" vType="car" speedFactor="1.05" vaporized=""/>
    <tripinfo id="flow_route_115_duration_20250327_2010.1" depart="4.00" departLane="1253188486#4_0" departPos="104.93" departSpeed="0.00" departDelay="0.25" arrival="105.00" arrivalLane="1328664744#0_2" arrivalPos="169.60" arrivalSpeed="14.49" duration="101.00" routeLength="250.08" waitingTime="66.00" waitingCount="1" stopTime="0.00" timeLoss="82.94" rerouteNo="0" devices="tripinfo_flow_route_115_duration_20250327_2010.1" vType="car" speedFactor="0.88" vaporized=""/>
    <tripinfo id="flow_route_113_duration_20250327_2010.3" depart="9.00" departLane="1253188486#4_0" departPos="10.26" departSpeed="0.00" departDelay="1.50" arrival="105.00" arrivalLane="1253188486#8_1" arrivalPos="120.85" arrivalSpeed="16.41" duration="96.00" routeLength="309.22" waitingTime="52.00" waitingCount="1" stopTime="0.00" timeLoss="76.67" rerouteNo="0" devices="tripinfo_flow_route_113_duration_20250327_2010.3" vType="car" speedFactor="1.13" vaporized=""/>
    <tripinfo id="flow_route_113_duration_20250327_2010.5" depart="18.00" departLane="1253188486#4_0" departPos="129.49" departSpeed="0.00" departDelay="5.50" arrival="105.00" arrivalLane="1253188486#8_1" arrivalPos="150.91" arrivalSpeed="16.51" duration="87.00" routeLength="220.05" waitingTime="56.00" waitingCount="1" stopTime="0.00" timeLoss="72.80" rerouteNo="0" devices="tripinfo_flow_route_113_duration_20250327_2010.5" vType="car" speedFactor="1.03" vaporized=""/>
    <tripinfo id="flow_route_114_duration_20250327_2010.1" depart="24.00" departLane="1253188486#4_0" departPos="31.78" departSpeed="0.00" departDelay="4.00" arrival="107.00" arrivalLane="177211987#1_0" arrivalPos="83.92" arrivalSpeed="13.32" duration="83.00" routeLength="218.60" waitingTime="44.00" waitingCount="1" stopTime="0.00" timeLoss="68.42" rerouteNo="0" devices="tripinfo_flow_route_114_duration_20250327_2010.1" vType="car" speedFactor="0.94" vaporized=""/>
    <tripinfo id="flow_route_113_duration_20250327_2010.12" depart="41.00" departLane="1253188486#4_0" departPos="88.29" departSpeed="0.00" departDelay="11.00" arrival="107.00" arrivalLane="1253188486#8_0" arrivalPos="29.30" arrivalSpeed="12.71" duration="66.00" routeLength="139.64" waitingTime="38.00" waitingCount="1" stopTime="0.00" timeLoss="57.28" rerouteNo="0" devices="tripinfo_flow_route_113_duration_20250327_2010.12" vType="car" speedFactor="0.89" vaporized=""/>
    <tripinfo id="flow_route_115_duration_20250327_2010.7" depart="34.00" departLane="1253188486#4_0" departPos="47.46" departSpeed="0.00" departDelay="7.75" arrival="108.00" arrivalLane="1328664744#0_2" arrivalPos="50.53" arrivalSpeed="13.40" duration="74.00" routeLength="188.46" waitingTime="40.00" waitingCount="1" stopTime="0.00" timeLoss="61.46" rerouteNo="0" devices="tripinfo_flow_route_115_duration_20250327_2010.7" vType="car" speedFactor="1.02" vaporized=""/>
    <tripinfo id="flow_route_115_duration_20250327_2010.3" depart="16.00" departLane="1253188486#4_0" departPos="19.04" departSpeed="0.00" departDelay="4.75" arrival="109.00" arrivalLane="1328664744#0_2" arrivalPos="160.15" arrivalSpeed="16.17" duration="93.00" routeLength="326.51" waitingTime="48.00" waitingCount="1" stopTime="0.00" timeLoss="72.08" rerouteNo="0" devices="tripinfo_flow_route_115_duration_20250327_2010.3" vType="car" speedFactor="1.18" vaporized=""/>
    <tripinfo id="flow_route_113_duration_20250327_2010.6" depart="21.00" departLane="1253188486#4_0" departPos="73.93" departSpeed="0.00" departDelay="6.00" arrival="110.00" arrivalLane="1253188486#8_0" arrivalPos="140.74" arrivalSpeed="16.17" duration="89.00" routeLength="265.44" waitingTime="50.00" waitingCount="2" stopTime="0.00" timeLoss="72.48" rerouteNo="0" devices="tripinfo_flow_route_113_duration_20250327_2010.6" vType="car" speedFactor="0.88" vaporized=""/>
    <tripinfo id="flow_route_113_duration_20250327_2010.8" depart="24.00" departLane="1253188486#4_0" departPos="50.98" departSpeed="0.00" departDelay="4.00" arrival="111.00" arrivalLane="1253188486#8_1" arrivalPos="145.41" arrivalSpeed="16.34" duration="87.00" routeLength="293.06" waitingTime="44.00" waitingCount="1" stopTime="0.00" timeLoss="68.48" rerouteNo="0" devices="tripinfo_flow_route_113_duration_20250327_2010.8" vType="car" speedFactor="0.99" vaporized=""/>
    <tripinfo id="flow_route_113_duration_20250327_2010.13" depart="44.00" departLane="1253188486#4_0" departPos="65.51" departSpeed="0.00" departDelay="11.50" arrival="111.00" arrivalLane="1253188486#8_0" arrivalPos="54.45" arrivalSpeed="14.81" duration="67.00" routeLength="187.56" waitingTime="34.00" waitingCount="1" stopTime="0.00" timeLoss="54.98" rerouteNo="0" devices="tripinfo_flow_route_113_duration_20250327_2010.13" vType="car" speedFactor="1.10" vaporized=""/>
    <tripinfo id="flow_route_114_duration_20250327_2010.2" depart="53.00" departLane="1253188486#4_0" departPos="22.42" departSpeed="0.00" departDelay="13.00" arrival="112.00" arrivalLane="177211987#1_0" arrivalPos="7.10" arrivalSpeed="8.31" duration="59.00" routeLength="151.14" waitingTime="23.00" waitingCount="1" stopTime="0.00" timeLoss="48.91" rerouteNo="0" devices="tripinfo_flow_route_114_duration_20250327_2010.2" vType="car" speedFactor="1.10" vaporized=""/>
    <tripinfo id="flow_route_115_duration_20250327_2010.5" depart="23.00" departLane="1253188486#4_0" departPos="60.26" departSpeed="0.00" departDelay="4.25" arrival="113.00" arrivalLane="1328664744#0_2" arrivalPos="200.65" arrivalSpeed="16.12" duration="90.00" routeLength="325.78" waitingTime="45.00" waitingCount="1" stopTime="0.00" timeLoss="69.08" rerouteNo="0" devices="tripinfo_flow_route_115_duration_20250327_2010.5" vType="car" speedFactor="1.14" vaporized=""/>
    <tripinfo id="flow_route_113_duration_20250327_2010.14" depart="45.00" departLane="1253188486#4_0" departPos="8.71" departSpeed="0.00" departDelay="10.00" arrival="114.00" arrivalLane="1253188486#8_1" arrivalPos="51.94" arrivalSpeed="15.14" duration="69.00" routeLength="241.86" waitingTime="33.00" waitingCount="1" stopTime="0.00" timeLoss="54.42" rerouteNo="0" devices="tripinfo_flow_route_113_duration_20250327_2010.14" vType="car" speedFactor="1.07" vaporized=""/>
    <tripinfo id="flow_route_113_duration_20250327_2010.4" depart="16.00" departLane="1253188486#4_0" departPos="43.07" departSpeed="0.00" departDelay="6.00" arrival="115.00" arrivalLane="1253188486#8_1" arrivalPos="243.44" arrivalSpeed="16.36" duration="99.00" routeLength="399.00" waitingTime="49.00" waitingCount="1" stopTime="0.00" timeLoss="74.46" rerouteNo="0" devices="tripinfo_flow_route_113_duration_20250327_2010.4" vType="car" speedFactor="1.17" vaporized=""/>
    <tripinfo id="flow_route_115_duration_20250327_2010.6" depart="29.00" departLane="1253188486#4_0" departPos="5.30" departSpeed="0.00" departDelay="6.50" arrival="115.00" arrivalLane="1328664744#0_2" arrivalPos="91.37" arrivalSpeed="14.12" duration="86.00" routeLength="271.47" waitingTime="39.00" waitingCount="1" stopTime="0.00" timeLoss="67.95" rerouteNo="0" devices="tripinfo_flow_route_115_duration_20250327_2010.6" vType="car" speedFactor="0.97" vaporized=""/>