<?xml version="1.0" encoding="UTF-8"?>

<!-- generated on 2025-05-06 21:07:52 by Eclipse SUMO sumo Version 1.20.0
<configuration xmlns:xsi="http://www.w3.org/2001/XMLSchema-instance" xsi:noNamespaceSchemaLocation="http://sumo.dlr.de/xsd/sumoConfiguration.xsd">

    <input>
        <net-file value="osm.net.xml"/>
        <route-files value="xml/route_rl_cluster_2271368471_4779869278_1.rou.xml"/>
    </input>

    <output>
        <tripinfo-output value="xml/tripinfo_rl_cluster_2271368471_4779869278_1.xml"/>
    </output>

    <traci_server>
        <remote-port value="43643"/>
    </traci_server>

</configuration>
-->

<tripinfos xmlns:xsi="http://www.w3.org/2001/XMLSchema-instance" xsi:noNamespaceSchemaLocation="http://sumo.dlr.de/xsd/tripinfo_file.xsd">
    <tripinfo id="flow_route_36_duration_20250327_2130.0" depart="0.00" departLane="485211947#0_0" departPos="162.24" departSpeed="0.00" departDelay="0.00" arrival="23.00" arrivalLane="137415945#0_0" arrivalPos="6.94" arrivalSpeed="15.19" duration="23.00" routeLength="189.23" waitingTime="0.00" waitingCount="0" stopTime="0.00" timeLoss="10.26" rerouteNo="0" devices="tripinfo_flow_route_36_duration_20250327_2130.0" vType="car" speedFactor="0.94" vaporized=""/>
    <tripinfo id="flow_route_35_duration_20250327_2130.2" depart="12.00" departLane="485211947#0_0" departPos="173.26" departSpeed="0.00" departDelay="0.00" arrival="24.00" arrivalLane="1369578054_0" arrivalPos="26.67" arrivalSpeed="8.74" duration="12.00" routeLength="50.88" waitingTime="0.00" waitingCount="0" stopTime="0.00" timeLoss="7.95" rerouteNo="0" devices="tripinfo_flow_route_35_duration_20250327_2130.2" vType="car" speedFactor="1.02" vaporized=""/>
    <tripinfo id="flow_route_37_duration_20250327_2130.0" depart="0.00" departLane="485211947#0_0" departPos="59.66" departSpeed="0.00" departDelay="0.00" arrival="33.00" arrivalLane="-430406005#1_1" arrivalPos="133.07" arrivalSpeed="16.27" duration="33.00" routeLength="286.39" waitingTime="0.00" waitingCount="0" stopTime="0.00" timeLoss="13.06" rerouteNo="0" devices="tripinfo_flow_route_37_duration_20250327_2130.0" vType="car" speedFactor="0.86" vaporized=""/>
    <tripinfo id="flow_route_36_duration_20250327_2130.1" depart="6.00" departLane="485211947#0_0" departPos="6.01" departSpeed="0.00" departDelay="0.00" arrival="38.00" arrivalLane="137415945#0_1" arrivalPos="5.05" arrivalSpeed="16.38" duration="32.00" routeLength="343.57" waitingTime="0.00" waitingCount="0" stopTime="0.00" timeLoss="10.59" rerouteNo="0" devices="tripinfo_flow_route_36_duration_20250327_2130.1" vType="car" speedFactor="1.05" vaporized=""/>
    <tripinfo id="flow_route_30_duration_20250327_2130.1" depart="18.00" departLane="1235147073.116_0" departPos="1.32" departSpeed="0.00" departDelay="10.50" arrival="41.00" arrivalLane="133126030#0_1" arrivalPos="29.48" arrivalSpeed="16.48" duration="23.00" routeLength="202.68" waitingTime="0.00" waitingCount="0" stopTime="0.00" timeLoss="10.27" rerouteNo="0" devices="tripinfo_flow_route_30_duration_20250327_2130.1" vType="car" speedFactor="0.99" vaporized=""/>
    <tripinfo id="flow_route_36_duration_20250327_2130.2" depart="13.00" departLane="485211947#0_0" departPos="91.27" departSpeed="0.00" departDelay="1.00" arrival="41.00" arrivalLane="137415945#0_0" arrivalPos="8.51" arrivalSpeed="16.60" duration="28.00" routeLength="261.77" waitingTime="0.00" waitingCount="0" stopTime="0.00" timeLoss="11.46" rerouteNo="0" devices="tripinfo_flow_route_36_duration_20250327_2130.2" vType="car" speedFactor="1.01" vaporized=""/>
    <tripinfo id="flow_route_37_duration_20250327_2130.1" depart="11.00" departLane="485211947#0_0" departPos="105.91" departSpeed="0.00" departDelay="1.00" arrival="42.00" arrivalLane="-430406005#1_1" arrivalPos="172.26" arrivalSpeed="16.30" duration="31.00" routeLength="279.32" waitingTime="0.00" waitingCount="0" stopTime="0.00" timeLoss="11.78" rerouteNo="0" devices="tripinfo_flow_route_37_duration_20250327_2130.1" vType="car" speedFactor="0.94" vaporized=""/>
    <tripinfo id="flow_route_30_duration_20250327_2130.0" depart="0.00" departLane="1235147073.116_0" departPos="7.14" departSpeed="0.00" departDelay="0.00" arrival="46.00" arrivalLane="133126030#0_0" arrivalPos="8.43" arrivalSpeed="7.31" duration="46.00" routeLength="175.81" waitingTime="16.00" waitingCount="1" stopTime="0.00" timeLoss="35.02" rerouteNo="0" devices="tripinfo_flow_route_30_duration_20250327_2130.0" vType="car" speedFactor="1.01" vaporized=""/>
    <tripinfo id="flow_route_35_duration_20250327_2130.1" depart="6.00" departLane="485211947#0_0" departPos="43.86" departSpeed="0.00" departDelay="0.00" arrival="53.00" arrivalLane="1369578054_0" arrivalPos="265.97" arrivalSpeed="16.45" duration="47.00" routeLength="419.57" waitingTime="0.00" waitingCount="0" stopTime="0.00" timeLoss="20.05" rerouteNo="0" devices="tripinfo_flow_route_35_duration_20250327_2130.1" vType="car" speedFactor="1.03" vaporized=""/>
    <tripinfo id="flow_route_30_duration_20250327_2130.2" depart="27.00" departLane="1235147073.116_0" departPos="4.54" departSpeed="0.00" departDelay="12.00" arrival="53.00" arrivalLane="133126030#0_1" arrivalPos="33.97" arrivalSpeed="14.38" duration="26.00" routeLength="203.96" waitingTime="0.00" waitingCount="0" stopTime="0.00" timeLoss="11.40" rerouteNo="0" devices="tripinfo_flow_route_30_duration_20250327_2130.2" vType="car" speedFactor="0.89" vaporized=""/>
    <tripinfo id="flow_route_31_duration_20250327_2130.0" depart="2.00" departLane="1235147073.116_0" departPos="0.71" departSpeed="0.00" departDelay="2.00" arrival="54.00" arrivalLane="-430406005#1_0" arrivalPos="87.77" arrivalSpeed="12.67" duration="52.00" routeLength="250.02" waitingTime="14.00" waitingCount="1" stopTime="0.00" timeLoss="36.04" rerouteNo="0" devices="tripinfo_flow_route_31_duration_20250327_2130.0" vType="car" speedFactor="1.08" vaporized=""/>
    <tripinfo id="flow_route_31_duration_20250327_2130.1" depart="14.00" departLane="1235147073.116_0" departPos="2.58" departSpeed="0.00" departDelay="7.33" arrival="54.00" arrivalLane="-430406005#1_0" arrivalPos="53.89" arrivalSpeed="10.51" duration="40.00" routeLength="214.27" waitingTime="3.00" waitingCount="1" stopTime="0.00" timeLoss="26.10" rerouteNo="0" devices="tripinfo_flow_route_31_duration_20250327_2130.1" vType="car" speedFactor="1.12" vaporized=""/>
    <tripinfo id="flow_route_32_duration_20250327_2130.0" depart="8.00" departLane="1235147073.116_0" departPos="0.46" departSpeed="0.00" departDelay="8.00" arrival="59.00" arrivalLane="1369578054_1" arrivalPos="176.77" arrivalSpeed="16.35" duration="51.00" routeLength="356.05" waitingTime="6.00" waitingCount="1" stopTime="0.00" timeLoss="28.53" rerouteNo="0" devices="tripinfo_flow_route_32_duration_20250327_2130.0" vType="car" speedFactor="1.03" vaporized=""/>
    <tripinfo id="flow_route_31_duration_20250327_2130.2" depart="27.00" departLane="1235147073.116_0" departPos="14.87" departSpeed="0.00" departDelay="13.67" arrival="60.00" arrivalLane="-430406005#1_0" arrivalPos="103.59" arrivalSpeed="14.00" duration="33.00" routeLength="251.68" waitingTime="0.00" waitingCount="0" stopTime="0.00" timeLoss="16.45" rerouteNo="0" devices="tripinfo_flow_route_31_duration_20250327_2130.2" vType="car" speedFactor="0.97" vaporized=""/>
    <tripinfo id="flow_route_32_duration_20250327_2130.1" depart="12.00" departLane="1235147073.116_0" departPos="10.96" departSpeed="0.00" departDelay="6.00" arrival="66.00" arrivalLane="1369578054_1" arrivalPos="247.00" arrivalSpeed="16.56" duration="54.00" routeLength="415.77" waitingTime="5.00" waitingCount="1" stopTime="0.00" timeLoss="27.42" rerouteNo="0" devices="tripinfo_flow_route_32_duration_20250327_2130.1" vType="car" speedFactor="1.09" vaporized=""/>
    <tripinfo id="flow_route_32_duration_20250327_2130.2" depart="24.00" departLane="1235147073.116_0" departPos="4.63" departSpeed="0.00" departDelay="12.00" arrival="67.00" arrivalLane="1369578054_1" arrivalPos="243.22" arrivalSpeed="16.19" duration="43.00" routeLength="418.31" waitingTime="0.00" waitingCount="0" stopTime="0.00" timeLoss="16.86" rerouteNo="0" devices="tripinfo_flow_route_32_duration_20250327_2130.2" vType="car" speedFactor="1.16" vaporized=""/>
    <tripinfo id="flow_route_31_duration_20250327_2130.3" depart="36.00" departLane="1235147073.116_0" departPos="12.57" departSpeed="0.00" departDelay="16.00" arrival="67.00" arrivalLane="-430406005#1_0" arrivalPos="128.92" arrivalSpeed="16.53" duration="31.00" routeLength="279.31" waitingTime="0.00" waitingCount="0" stopTime="0.00" timeLoss="13.59" rerouteNo="0" devices="tripinfo_flow_route_31_duration_20250327_2130.3" vType="car" speedFactor="1.18" vaporized=""/>
    <tripinfo id="flow_route_30_duration_20250327_2130.3" depart="39.00" departLane="1235147073.116_0" departPos="0.01" departSpeed="0.00" departDelay="16.50" arrival="70.00" arrivalLane="133126030#0_1" arrivalPos="72.22" arrivalSpeed="16.60" duration="31.00" routeLength="246.72" waitingTime="1.00" waitingCount="1" stopTime="0.00" timeLoss="15.64" rerouteNo="0" devices="tripinfo_flow_route_30_duration_20250327_2130.3" vType="car" speedFactor="1.01" vaporized=""/>
    <tripinfo id="flow_route_32_duration_20250327_2130.4" depart="41.00" departLane="1235147073.116_0" departPos="13.03" departSpeed="0.00" departDelay="17.00" arrival="72.00" arrivalLane="1369578054_1" arrivalPos="109.42" arrivalSpeed="16.26" duration="31.00" routeLength="276.12" waitingTime="0.00" waitingCount="0" stopTime="0.00" timeLoss="12.93" rerouteNo="0" devices="tripinfo_flow_route_32_duration_20250327_2130.4" vType="car" speedFactor="1.02" vaporized=""/>
    <tripinfo id="flow_route_31_duration_20250327_2130.4" depart="43.00" departLane="1235147073.116_0" departPos="5.10" departSpeed="0.00" departDelay="16.34" arrival="75.00" arrivalLane="-430406005#1_0" arrivalPos="102.45" arrivalSpeed="14.62" duration="32.00" routeLength="260.31" waitingTime="0.00" waitingCount="0" stopTime="0.00" timeLoss="13.55" rerouteNo="0" devices="tripinfo_flow_route_31_duration_20250327_2130.4" vType="car" speedFactor="0.90" vaporized=""/>
    <tripinfo id="flow_route_32_duration_20250327_2130.3" depart="33.00" departLane="1235147073.116_0" departPos="5.28" departSpeed="0.00" departDelay="15.00" arrival="76.00" arrivalLane="1369578054_1" arrivalPos="297.32" arrivalSpeed="15.58" duration="43.00" routeLength="471.78" waitingTime="0.00" waitingCount="0" stopTime="0.00" timeLoss="12.19" rerouteNo="0" devices="tripinfo_flow_route_32_duration_20250327_2130.3" vType="car" speedFactor="0.95" vaporized=""/>
    <tripinfo id="flow_route_30_duration_20250327_2130.4" depart="46.00" departLane="1235147073.116_0" departPos="1.50" departSpeed="0.00" departDelay="16.00" arrival="76.00" arrivalLane="133126030#0_0" arrivalPos="122.63" arrivalSpeed="16.21" duration="30.00" routeLength="295.65" waitingTime="0.00" waitingCount="0" stopTime="0.00" timeLoss="11.74" rerouteNo="0" devices="tripinfo_flow_route_30_duration_20250327_2130.4" vType="car" speedFactor="1.03" vaporized=""/>
    <tripinfo id="flow_route_33_duration_20250327_2130.0" depart="0.00" departLane="133126008#0_0" departPos="101.07" departSpeed="0.00" departDelay="0.00" arrival="83.00" arrivalLane="1369578054_0" arrivalPos="13.07" arrivalSpeed="8.24" duration="83.00" routeLength="125.36" waitingTime="57.00" waitingCount="1" stopTime="0.00" timeLoss="75.20" rerouteNo="0" devices="tripinfo_flow_route_33_duration_20250327_2130.0" vType="car" speedFactor="0.83" vaporized=""/>
    <tripinfo id="flow_route_28_duration_20250327_2130.1" depart="12.00" departLane="-422986370#2_0" departPos="207.17" departSpeed="0.00" departDelay="0.00" arrival="86.00" arrivalLane="-430406005#1_0" arrivalPos="43.11" arrivalSpeed="11.40" duration="74.00" routeLength="170.37" waitingTime="44.00" waitingCount="1" stopTime="0.00" timeLoss="63.07" rerouteNo="0" devices="tripinfo_flow_route_28_duration_20250327_2130.1" vType="car" speedFactor="0.94" vaporized=""/>
    <tripinfo id="flow_route_34_duration_20250327_2130.1" depart="15.00" departLane="133126008#0_0" departPos="97.59" departSpeed="0.00" departDelay="0.00" arrival="86.00" arrivalLane="133126030#0_0" arrivalPos="28.13" arrivalSpeed="8.26" duration="71.00" routeLength="118.07" waitingTime="45.00" waitingCount="1" stopTime="0.00" timeLoss="62.91" rerouteNo="0" devices="tripinfo_flow_route_34_duration_20250327_2130.1" vType="car" speedFactor="0.87" vaporized=""/>
    <tripinfo id="flow_route_28_duration_20250327_2130.2" depart="24.00" departLane="-422986370#2_0" departPos="262.27" departSpeed="0.00" departDelay="0.00" arrival="92.00" arrivalLane="-430406005#1_0" arrivalPos="74.50" arrivalSpeed="12.78" duration="68.00" routeLength="146.67" waitingTime="40.00" waitingCount="1" stopTime="0.00" timeLoss="59.10" rerouteNo="0" devices="tripinfo_flow_route_28_duration_20250327_2130.2" vType="car" speedFactor="0.99" vaporized=""/>
    <tripinfo id="flow_route_29_duration_20250327_2130.0" depart="0.00" departLane="-422986370#2_0" departPos="201.60" departSpeed="0.00" departDelay="0.00" arrival="93.00" arrivalLane="137415945#0_0" arrivalPos="9.07" arrivalSpeed="15.01" duration="93.00" routeLength="253.29" waitingTime="54.00" waitingCount="1" stopTime="0.00" timeLoss="75.42" rerouteNo="0" devices="tripinfo_flow_route_29_duration_20250327_2130.0" vType="car" speedFactor="0.94" vaporized=""/>
    <tripinfo id="flow_route_34_duration_20250327_2130.3" depart="45.00" departLane="133126008#0_0" departPos="20.47" departSpeed="0.00" departDelay="0.00" arrival="93.00" arrivalLane="133126030#0_0" arrivalPos="29.20" arrivalSpeed="9.07" duration="48.00" routeLength="196.26" waitingTime="13.00" waitingCount="1" stopTime="0.00" timeLoss="35.33" rerouteNo="0" devices="tripinfo_flow_route_34_duration_20250327_2130.3" vType="car" speedFactor="0.99" vaporized=""/>
    <tripinfo id="flow_route_28_duration_20250327_2130.4" depart="50.00" departLane="-422986370#2_0" departPos="25.34" departSpeed="0.00" departDelay="2.00" arrival="93.00" arrivalLane="-430406005#1_1" arrivalPos="57.30" arrivalSpeed="12.79" duration="43.00" routeLength="366.39" waitingTime="0.00" waitingCount="0" stopTime="0.00" timeLoss="18.74" rerouteNo="0" devices="tripinfo_flow_route_28_duration_20250327_2130.4" vType="car" speedFactor="0.88" vaporized=""/>
    <tripinfo id="flow_route_34_duration_20250327_2130.0" depart="0.00" departLane="133126008#0_0" departPos="47.21" departSpeed="0.00" departDelay="0.00" arrival="94.00" arrivalLane="133126030#0_0" arrivalPos="137.72" arrivalSpeed="14.61" duration="94.00" routeLength="278.03" waitingTime="53.00" waitingCount="1" stopTime="0.00" timeLoss="75.80" rerouteNo="0" devices="tripinfo_flow_route_34_duration_20250327_2130.0" vType="car" speedFactor="1.05" vaporized=""/>
    <tripinfo id="flow_route_28_duration_20250327_2130.3" depart="36.00" departLane="-422986370#2_0" departPos="4.38" departSpeed="0.00" departDelay="0.00" arrival="95.00" arrivalLane="-430406005#1_1" arrivalPos="102.39" arrivalSpeed="15.39" duration="59.00" routeLength="432.44" waitingTime="5.00" waitingCount="1" stopTime="0.00" timeLoss="29.34" rerouteNo="0" devices="tripinfo_flow_route_28_duration_20250327_2130.3" vType="car" speedFactor="0.85" vaporized=""/>
    <tripinfo id="flow_route_28_duration_20250327_2130.0" depart="0.00" departLane="-422986370#2_0" departPos="1.81" departSpeed="0.00" departDelay="0.00" arrival="96.00" arrivalLane="-430406005#1_1" arrivalPos="159.13" arrivalSpeed="16.36" duration="96.00" routeLength="491.75" waitingTime="42.00" waitingCount="1" stopTime="0.00" timeLoss="66.19" rerouteNo="0" devices="tripinfo_flow_route_28_duration_20250327_2130.0" vType="car" speedFactor="1.06" vaporized=""/>
    <tripinfo id="flow_route_33_duration_20250327_2130.4" depart="30.00" departLane="133126008#0_0" departPos="66.33" departSpeed="0.00" departDelay="0.00" arrival="96.00" arrivalLane="1369578054_1" arrivalPos="84.26" arrivalSpeed="14.47" duration="66.00" routeLength="231.30" waitingTime="29.00" waitingCount="1" stopTime="0.00" timeLoss="51.38" rerouteNo="0" devices="tripinfo_flow_route_33_duration_20250327_2130.4" vType="car" speedFactor="1.09" vaporized=""/>
    <tripinfo id="flow_route_34_duration_20250327_2130.2" depart="30.00" departLane="133126008#0_0" departPos="85.67" departSpeed="0.00" departDelay="0.00" arrival="97.00" arrivalLane="133126030#0_0" arrivalPos="131.97" arrivalSpeed="15.49" duration="67.00" routeLength="233.81" waitingTime="30.00" waitingCount="1" stopTime="0.00" timeLoss="51.33" rerouteNo="0" devices="tripinfo_flow_route_34_duration_20250327_2130.2" vType="car" speedFactor="1.04" vaporized=""/>
    <tripinfo id="flow_route_29_duration_20250327_2130.1" depart="9.00" departLane="-422986370#2_0" departPos="123.22" departSpeed="0.00" departDelay="0.43" arrival="98.00" arrivalLane="137415945#0_0" arrivalPos="1.65" arrivalSpeed="14.64" duration="89.00" routeLength="324.25" waitingTime="39.00" waitingCount="1" stopTime="0.00" timeLoss="65.13" rerouteNo="0" devices="tripinfo_flow_route_29_duration_20250327_2130.1" vType="car" speedFactor="0.88" vaporized=""/>
    <tripinfo id="flow_route_33_duration_20250327_2130.2" depart="15.00" departLane="133126008#0_0" departPos="49.77" departSpeed="0.00" departDelay="0.00" arrival="99.00" arrivalLane="1369578054_1" arrivalPos="192.26" arrivalSpeed="13.50" duration="84.00" routeLength="355.85" waitingTime="38.00" waitingCount="1" stopTime="0.00" timeLoss="60.05" rerouteNo="0" devices="tripinfo_flow_route_33_duration_20250327_2130.2" vType="car" speedFactor="0.83" vaporized=""/>
    <tripinfo id="flow_route_29_duration_20250327_2130.2" depart="18.00" departLane="-422986370#2_0" departPos="62.06" departSpeed="0.00" departDelay="0.86" arrival="99.00" arrivalLane="137415945#0_0" arrivalPos="2.28" arrivalSpeed="14.58" duration="81.00" routeLength="386.04" waitingTime="31.00" waitingCount="1" stopTime="0.00" timeLoss="55.08" rerouteNo="0" devices="tripinfo_flow_route_29_duration_20250327_2130.2" vType="car" speedFactor="0.92" vaporized=""/>
    <tripinfo id="flow_route_33_duration_20250327_2130.3" depart="23.00" departLane="133126008#0_0" departPos="104.41" departSpeed="0.00" departDelay="0.50" arrival="99.00" arrivalLane="1369578054_1" arrivalPos="153.66" arrivalSpeed="14.82" duration="76.00" routeLength="262.61" waitingTime="37.00" waitingCount="1" stopTime="0.00" timeLoss="59.43" rerouteNo="0" devices="tripinfo_flow_route_33_duration_20250327_2130.3" vType="car" speedFactor="1.17" vaporized=""/>
    <tripinfo id="flow_route_33_duration_20250327_2130.5" depart="38.00" departLane="133126008#0_0" departPos="60.48" departSpeed="0.00" departDelay="0.50" arrival="99.00" arrivalLane="1369578054_1" arrivalPos="103.63" arrivalSpeed="16.23" duration="61.00" routeLength="256.51" waitingTime="22.00" waitingCount="1" stopTime="0.00" timeLoss="44.98" rerouteNo="0" devices="tripinfo_flow_route_33_duration_20250327_2130.5" vType="car" speedFactor="1.00" vaporized=""/>
    <tripinfo id="flow_route_29_duration_20250327_2130.4" depart="36.00" departLane="-422986370#2_0" departPos="164.52" departSpeed="0.00" departDelay="1.72" arrival="102.00" arrivalLane="137415945#0_0" arrivalPos="4.83" arrivalSpeed="14.46" duration="66.00" routeLength="286.13" waitingTime="23.00" waitingCount="1" stopTime="0.00" timeLoss="44.99" rerouteNo="0" devices="tripinfo_flow_route_29_duration_20250327_2130.4" vType="car" speedFactor="0.88" vaporized=""/>
    <tripinfo id="flow_route_33_duration_20250327_2130.1" depart="8.00" departLane="133126008#0_0" departPos="59.13" departSpeed="0.00" departDelay="0.50" arrival="103.00" arrivalLane="1369578054_0" arrivalPos="286.63" arrivalSpeed="15.30" duration="95.00" routeLength="440.86" waitingTime="44.00" waitingCount="1" stopTime="0.00" timeLoss="66.74" rerouteNo="0" devices="tripinfo_flow_route_33_duration_20250327_2130.1" vType="car" speedFactor="0.93" vaporized=""/>
    <tripinfo id="flow_route_29_duration_20250327_2130.3" depart="28.00" departLane="-422986370#2_0" departPos="30.41" departSpeed="0.00" departDelay="2.29" arrival="105.00" arrivalLane="137415945#0_0" arrivalPos="9.05" arrivalSpeed="16.41" duration="77.00" routeLength="424.46" waitingTime="21.00" waitingCount="1" stopTime="0.00" timeLoss="50.03" rerouteNo="0" devices="tripinfo_flow_route_29_duration_20250327_2130.3" vType="car" speedFactor="1.10" vaporized=""/>
    <tripinfo id="flow_route_33_duration_20250327_2130.6" depart="45.00" departLane="133126008#0_0" departPos="140.91" departSpeed="0.00" departDelay="0.00" arrival="106.00" arrivalLane="1369578054_0" arrivalPos="240.24" arrivalSpeed="16.12" duration="61.00" routeLength="312.68" waitingTime="26.00" waitingCount="1" stopTime="0.00" timeLoss="41.79" rerouteNo="0" devices="tripinfo_flow_route_33_duration_20250327_2130.6" vType="car" speedFactor="1.02" vaporized=""/>
    <tripinfo id="flow_route_29_duration_20250327_2130.6" depart="53.00" departLane="-422986370#2_0" departPos="181.09" departSpeed="0.00" departDelay="1.57" arrival="107.00" arrivalLane="137415945#0_0" arrivalPos="8.48" arrivalSpeed="15.71" duration="54.00" routeLength="273.21" waitingTime="10.00" waitingCount="1" stopTime="0.00" timeLoss="35.73" rerouteNo="0" devices="tripinfo_flow_route_29_duration_20250327_2130.6" vType="car" speedFactor="1.02" vaporized=""/>
    <tripinfo id="flow_route_29_duration_20250327_2130.5" depart="46.00" departLane="-422986370#2_0" departPos="68.22" departSpeed="0.00" departDelay="3.15" arrival="109.00" arrivalLane="137415945#0_0" arrivalPos="10.74" arrivalSpeed="16.53" duration="63.00" routeLength="388.34" waitingTime="10.00" waitingCount="1" stopTime="0.00" timeLoss="37.54" rerouteNo="0" devices="tripinfo_flow_route_29_duration_20250327_2130.5" vType="car" speedFactor="1.08" vaporized=""/>
    <tripinfo id="flow_route_33_duration_20250327_2130.7" depart="53.00" departLane="133126008#0_0" departPos="34.02" departSpeed="0.00" departDelay="0.50" arrival="110.00" arrivalLane="1369578054_1" arrivalPos="237.57" arrivalSpeed="15.45" duration="57.00" routeLength="416.91" waitingTime="6.00" waitingCount="1" stopTime="0.00" timeLoss="30.33" rerouteNo="0" devices="tripinfo_flow_route_33_duration_20250327_2130.7" vType="car" speedFactor="0.94" vaporized=""/>
    <tripinfo id="flow_route_37_duration_20250327_2130.3" depart="33.00" departLane="485211947#0_0" departPos="79.83" departSpeed="0.00" departDelay="3.00" arrival="123.00" arrivalLane="-430406005#1_1" arrivalPos="25.21" arrivalSpeed="9.58" duration="90.00" routeLength="158.36" waitingTime="59.00" waitingCount="1" stopTime="0.00" timeLoss="78.99" rerouteNo="0" devices="tripinfo_flow_route_37_duration_20250327_2130.3" vType="car" speedFactor="1.00" vaporized=""/>
    <tripinfo id="flow_route_35_duration_20250327_2130.0" depart="0.00" departLane="485211947#0_0" departPos="11.17" departSpeed="0.00" departDelay="0.00" arrival="124.00" arrivalLane="1369578054_0" arrivalPos="74.16" arrivalSpeed="12.38" duration="124.00" routeLength="260.46" waitingTime="74.00" waitingCount="1" stopTime="0.00" timeLoss="104.86" rerouteNo="0" devices="tripinfo_flow_route_35_duration_20250327_2130.0" vType="car" speedFactor="0.89" vaporized=""/>
    <tripinfo id="flow_route_37_duration_20250327_2130.2" depart="21.00" departLane="485211947#0_0" departPos="78.42" departSpeed="0.00" departDelay="1.00" arrival="124.00" arrivalLane="-430406005#1_1" arrivalPos="62.84" arrivalSpeed="11.78" duration="103.00" routeLength="197.40" waitingTime="70.00" waitingCount="1" stopTime="0.00" timeLoss="90.41" rerouteNo="0" devices="tripinfo_flow_route_37_duration_20250327_2130.2" vType="car" speedFactor="1.15" vaporized=""/>
    <tripinfo id="flow_route_35_duration_20250327_2130.3" depart="18.00" departLane="485211947#0_0" departPos="33.48" departSpeed="0.00" departDelay="0.00" arrival="130.00" arrivalLane="1369578054_0" arrivalPos="94.05" arrivalSpeed="13.62" duration="112.00" routeLength="258.03" waitingTime="66.00" waitingCount="1" stopTime="0.00" timeLoss="95.24" rerouteNo="0" devices="tripinfo_flow_route_35_duration_20250327_2130.3" vType="car" speedFactor="1.13" vaporized=""/>
    <tripinfo id="flow_route_37_duration_20250327_2130.4" depart="40.00" departLane="485211947#0_0" departPos="21.19" departSpeed="0.00" departDelay="0.00" arrival="130.00" arrivalLane="-430406005#1_1" arrivalPos="86.87" arrivalSpeed="13.35" duration="90.00" routeLength="278.66" waitingTime="50.00" waitingCount="1" stopTime="0.00" timeLoss="70.41" rerouteNo="0" devices="tripinfo_flow_route_37_duration_20250327_2130.4" vType="car" speedFactor="0.90" vaporized=""/>
    <tripinfo id="flow_route_36_duration_20250327_2130.3" depart="18.00" departLane="485211947#0_0" departPos="8.68" departSpeed="0.00" departDelay="0.00" arrival="131.00" arrivalLane="137415945#0_1" arrivalPos="4.32" arrivalSpeed="15.23" duration="113.00" routeLength="340.17" waitingTime="68.00" waitingCount="1" stopTime="0.00" timeLoss="90.38" rerouteNo="0" devices="tripinfo_flow_route_36_duration_20250327_2130.3" vType="car" speedFactor="0.93" vaporized=""/>
    <tripinfo id="flow_route_36_duration_20250327_2130.4" depart="25.00" departLane="485211947#0_0" departPos="78.77" departSpeed="0.00" departDelay="1.00" arrival="132.00" arrivalLane="137415945#0_1" arrivalPos="0.30" arrivalSpeed="15.33" duration="107.00" routeLength="266.07" waitingTime="67.00" waitingCount="1" stopTime="0.00" timeLoss="90.63" rerouteNo="0" devices="tripinfo_flow_route_36_duration_20250327_2130.4" vType="car" speedFactor="1.18" vaporized=""/>
    <tripinfo id="flow_route_35_duration_20250327_2130.5" depart="30.00" departLane="485211947#0_0" departPos="7.89" departSpeed="0.00" departDelay="0.00" arrival="132.00" arrivalLane="1369578054_0" arrivalPos="37.24" arrivalSpeed="11.21" duration="102.00" routeLength="226.81" waitingTime="56.00" waitingCount="1" stopTime="0.00" timeLoss="86.83" rerouteNo="0" devices="tripinfo_flow_route_35_duration_20250327_2130.5" vType="car" speedFactor="1.04" vaporized=""/>
    <tripinfo id="flow_route_36_duration_20250327_2130.5" depart="32.00" departLane="485211947#0_0" departPos="28.45" departSpeed="0.00" departDelay="2.00" arrival="134.00" arrivalLane="137415945#0_1" arrivalPos="9.08" arrivalSpeed="16.47" duration="102.00" routeLength="325.16" waitingTime="59.00" waitingCount="1" stopTime="0.00" timeLoss="82.08" rerouteNo="0" devices="tripinfo_flow_route_36_duration_20250327_2130.5" vType="car" speedFactor="1.09" vaporized=""/>
    <tripinfo id="flow_route_35_duration_20250327_2130.9" depart="54.00" departLane="485211947#0_0" departPos="107.32" departSpeed="0.00" departDelay="0.00" arrival="134.00" arrivalLane="1369578054_0" arrivalPos="32.86" arrivalSpeed="10.48" duration="80.00" routeLength="123.00" waitingTime="51.00" waitingCount="1" stopTime="0.00" timeLoss="71.61" rerouteNo="0" devices="tripinfo_flow_route_35_duration_20250327_2130.9" vType="car" speedFactor="0.98" vaporized=""/>
    <tripinfo id="flow_route_36_duration_20250327_2130.7" depart="44.00" departLane="485211947#0_0" departPos="133.99" departSpeed="0.00" departDelay="2.00" arrival="136.00" arrivalLane="137415945#0_1" arrivalPos="6.21" arrivalSpeed="16.06" duration="92.00" routeLength="216.74" waitingTime="57.00" waitingCount="1" stopTime="0.00" timeLoss="77.90" rerouteNo="0" devices="tripinfo_flow_route_36_duration_20250327_2130.7" vType="car" speedFactor="0.97" vaporized=""/>
    <tripinfo id="flow_route_37_duration_20250327_2130.5" depart="52.00" departLane="485211947#0_0" departPos="109.04" departSpeed="0.00" departDelay="2.00" arrival="136.00" arrivalLane="-430406005#1_1" arrivalPos="141.62" arrivalSpeed="16.20" duration="84.00" routeLength="245.57" waitingTime="48.00" waitingCount="1" stopTime="0.00" timeLoss="67.74" rerouteNo="0" devices="tripinfo_flow_route_37_duration_20250327_2130.5" vType="car" speedFactor="1.02" vaporized=""/>
    <tripinfo id="flow_route_36_duration_20250327_2130.6" depart="40.00" departLane="485211947#0_0" departPos="76.31" departSpeed="0.00" departDelay="4.00" arrival="138.00" arrivalLane="137415945#0_1" arrivalPos="8.16" arrivalSpeed="16.16" duration="98.00" routeLength="276.38" waitingTime="57.00" waitingCount="1" stopTime="0.00" timeLoss="80.90" rerouteNo="0" devices="tripinfo_flow_route_36_duration_20250327_2130.6" vType="car" speedFactor="1.02" vaporized=""/>
    <tripinfo id="flow_route_35_duration_20250327_2130.4" depart="25.00" departLane="485211947#0_0" departPos="91.29" departSpeed="0.00" departDelay="1.00" arrival="140.00" arrivalLane="1369578054_0" arrivalPos="292.70" arrivalSpeed="15.78" duration="115.00" routeLength="398.87" waitingTime="69.00" waitingCount="1" stopTime="0.00" timeLoss="89.31" rerouteNo="0" devices="tripinfo_flow_route_35_duration_20250327_2130.4" vType="car" speedFactor="0.97" vaporized=""/>
    <tripinfo id="flow_route_36_duration_20250327_2130.9" depart="54.00" departLane="485211947#0_0" departPos="42.68" departSpeed="0.00" departDelay="0.00" arrival="140.00" arrivalLane="137415945#0_1" arrivalPos="6.73" arrivalSpeed="16.21" duration="86.00" routeLength="308.57" waitingTime="42.00" waitingCount="1" stopTime="0.00" timeLoss="67.03" rerouteNo="0" devices="tripinfo_flow_route_36_duration_20250327_2130.9" vType="car" speedFactor="1.03" vaporized=""/>
    <tripinfo id="flow_route_36_duration_20250327_2130.8" depart="52.00" departLane="485211947#0_0" departPos="1.36" departSpeed="0.00" departDelay="4.00" arrival="142.00" arrivalLane="137415945#0_1" arrivalPos="5.93" arrivalSpeed="16.57" duration="90.00" routeLength="349.10" waitingTime="41.00" waitingCount="1" stopTime="0.00" timeLoss="68.13" rerouteNo="0" devices="tripinfo_flow_route_36_duration_20250327_2130.8" vType="car" speedFactor="1.04" vaporized=""/>