<?xml version="1.0" encoding="UTF-8"?>

<!-- generated on 2025-05-06 21:08:02 by Eclipse SUMO sumo Version 1.20.0
<configuration xmlns:xsi="http://www.w3.org/2001/XMLSchema-instance" xsi:noNamespaceSchemaLocation="http://sumo.dlr.de/xsd/sumoConfiguration.xsd">

    <input>
        <net-file value="osm.net.xml"/>
        <route-files value="xml/route_rl_cluster_2271368471_4779869278_2.rou.xml"/>
    </input>

    <output>
        <tripinfo-output value="xml/tripinfo_rl_cluster_2271368471_4779869278_2.xml"/>
    </output>

    <traci_server>
        <remote-port value="50335"/>
    </traci_server>

</configuration>
-->

<tripinfos xmlns:xsi="http://www.w3.org/2001/XMLSchema-instance" xsi:noNamespaceSchemaLocation="http://sumo.dlr.de/xsd/tripinfo_file.xsd">
    <tripinfo id="flow_route_36_duration_20250327_2100.0" depart="0.00" departLane="485211947#0_0" departPos="162.24" departSpeed="0.00" departDelay="0.00" arrival="23.00" arrivalLane="137415945#0_0" arrivalPos="6.94" arrivalSpeed="15.53" duration="23.00" routeLength="189.23" waitingTime="0.00" waitingCount="0" stopTime="0.00" timeLoss="10.47" rerouteNo="0" devices="tripinfo_flow_route_36_duration_20250327_2100.0" vType="car" speedFactor="0.94" vaporized=""/>
    <tripinfo id="flow_route_36_duration_20250327_2100.1" depart="4.00" departLane="485211947#0_0" departPos="73.48" departSpeed="0.00" departDelay="1.78" arrival="31.00" arrivalLane="137415945#0_1" arrivalPos="3.91" arrivalSpeed="16.51" duration="27.00" routeLength="274.96" waitingTime="0.00" waitingCount="0" stopTime="0.00" timeLoss="10.38" rerouteNo="0" devices="tripinfo_flow_route_36_duration_20250327_2100.1" vType="car" speedFactor="1.09" vaporized=""/>
    <tripinfo id="flow_route_36_duration_20250327_2100.4" depart="10.00" departLane="485211947#0_0" departPos="176.93" departSpeed="0.00" departDelay="1.11" arrival="31.00" arrivalLane="137415945#0_0" arrivalPos="11.90" arrivalSpeed="16.00" duration="21.00" routeLength="179.50" waitingTime="0.00" waitingCount="0" stopTime="0.00" timeLoss="9.95" rerouteNo="0" devices="tripinfo_flow_route_36_duration_20250327_2100.4" vType="car" speedFactor="0.97" vaporized=""/>
    <tripinfo id="flow_route_37_duration_20250327_2100.0" depart="0.00" departLane="485211947#0_0" departPos="59.66" departSpeed="0.00" departDelay="0.00" arrival="33.00" arrivalLane="-430406005#1_1" arrivalPos="133.07" arrivalSpeed="16.05" duration="33.00" routeLength="286.39" waitingTime="0.00" waitingCount="0" stopTime="0.00" timeLoss="12.84" rerouteNo="0" devices="tripinfo_flow_route_37_duration_20250327_2100.0" vType="car" speedFactor="0.86" vaporized=""/>
    <tripinfo id="flow_route_36_duration_20250327_2100.3" depart="8.00" departLane="485211947#0_0" departPos="123.80" departSpeed="0.00" departDelay="1.33" arrival="33.00" arrivalLane="137415945#0_0" arrivalPos="1.65" arrivalSpeed="15.66" duration="25.00" routeLength="222.38" waitingTime="0.00" waitingCount="0" stopTime="0.00" timeLoss="10.02" rerouteNo="0" devices="tripinfo_flow_route_36_duration_20250327_2100.3" vType="car" speedFactor="0.94" vaporized=""/>
    <tripinfo id="flow_route_36_duration_20250327_2100.2" depart="5.00" departLane="485211947#0_0" departPos="55.91" departSpeed="0.00" departDelay="0.56" arrival="35.00" arrivalLane="137415945#0_1" arrivalPos="3.01" arrivalSpeed="16.50" duration="30.00" routeLength="291.63" waitingTime="0.00" waitingCount="0" stopTime="0.00" timeLoss="11.88" rerouteNo="0" devices="tripinfo_flow_route_36_duration_20250327_2100.2" vType="car" speedFactor="1.05" vaporized=""/>
    <tripinfo id="flow_route_35_duration_20250327_2100.2" depart="7.00" departLane="485211947#0_0" departPos="48.93" departSpeed="0.00" departDelay="0.69" arrival="42.00" arrivalLane="1369578054_0" arrivalPos="99.27" arrivalSpeed="13.44" duration="35.00" routeLength="247.80" waitingTime="0.00" waitingCount="0" stopTime="0.00" timeLoss="17.02" rerouteNo="0" devices="tripinfo_flow_route_35_duration_20250327_2100.2" vType="car" speedFactor="0.88" vaporized=""/>
    <tripinfo id="flow_route_35_duration_20250327_2100.0" depart="0.00" departLane="485211947#0_0" departPos="11.17" departSpeed="0.00" departDelay="0.00" arrival="43.00" arrivalLane="1369578054_0" arrivalPos="74.16" arrivalSpeed="12.32" duration="43.00" routeLength="260.46" waitingTime="0.00" waitingCount="0" stopTime="0.00" timeLoss="23.69" rerouteNo="0" devices="tripinfo_flow_route_35_duration_20250327_2100.0" vType="car" speedFactor="0.89" vaporized=""/>
    <tripinfo id="flow_route_35_duration_20250327_2100.1" depart="4.00" departLane="485211947#0_0" departPos="100.86" departSpeed="0.00" departDelay="0.84" arrival="43.00" arrivalLane="1369578054_0" arrivalPos="247.00" arrivalSpeed="16.52" duration="39.00" routeLength="343.60" waitingTime="0.00" waitingCount="0" stopTime="0.00" timeLoss="16.65" rerouteNo="0" devices="tripinfo_flow_route_35_duration_20250327_2100.1" vType="car" speedFactor="1.03" vaporized=""/>
    <tripinfo id="flow_route_36_duration_20250327_2100.6" depart="21.00" departLane="485211947#0_0" departPos="163.43" departSpeed="0.00" departDelay="7.67" arrival="44.00" arrivalLane="137415945#0_0" arrivalPos="0.60" arrivalSpeed="15.23" duration="23.00" routeLength="181.70" waitingTime="0.00" waitingCount="0" stopTime="0.00" timeLoss="10.47" rerouteNo="0" devices="tripinfo_flow_route_36_duration_20250327_2100.6" vType="car" speedFactor="0.93" vaporized=""/>
    <tripinfo id="flow_route_30_duration_20250327_2100.0" depart="0.00" departLane="1235147073.116_0" departPos="7.14" departSpeed="0.00" departDelay="0.00" arrival="47.00" arrivalLane="133126030#0_0" arrivalPos="8.43" arrivalSpeed="7.34" duration="47.00" routeLength="175.81" waitingTime="17.00" waitingCount="1" stopTime="0.00" timeLoss="36.21" rerouteNo="0" devices="tripinfo_flow_route_30_duration_20250327_2100.0" vType="car" speedFactor="1.01" vaporized=""/>
    <tripinfo id="flow_route_37_duration_20250327_2100.1" depart="10.00" departLane="485211947#0_0" departPos="31.20" departSpeed="0.00" departDelay="2.50" arrival="47.00" arrivalLane="-430406005#1_1" arrivalPos="144.96" arrivalSpeed="16.30" duration="37.00" routeLength="326.74" waitingTime="0.00" waitingCount="0" stopTime="0.00" timeLoss="15.70" rerouteNo="0" devices="tripinfo_flow_route_37_duration_20250327_2100.1" vType="car" speedFactor="1.01" vaporized=""/>
    <tripinfo id="flow_route_31_duration_20250327_2100.0" depart="2.00" departLane="1235147073.116_0" departPos="0.71" departSpeed="0.00" departDelay="2.00" arrival="56.00" arrivalLane="-430406005#1_0" arrivalPos="87.77" arrivalSpeed="12.92" duration="54.00" routeLength="250.02" waitingTime="16.00" waitingCount="1" stopTime="0.00" timeLoss="37.51" rerouteNo="0" devices="tripinfo_flow_route_31_duration_20250327_2100.0" vType="car" speedFactor="1.08" vaporized=""/>
    <tripinfo id="flow_route_31_duration_20250327_2100.1" depart="15.00" departLane="1235147073.116_0" departPos="5.97" departSpeed="0.00" departDelay="7.50" arrival="59.00" arrivalLane="-430406005#1_0" arrivalPos="102.08" arrivalSpeed="13.32" duration="44.00" routeLength="259.08" waitingTime="4.00" waitingCount="1" stopTime="0.00" timeLoss="27.49" rerouteNo="0" devices="tripinfo_flow_route_31_duration_20250327_2100.1" vType="car" speedFactor="1.16" vaporized=""/>
    <tripinfo id="flow_route_32_duration_20250327_2100.0" depart="7.00" departLane="1235147073.116_0" departPos="1.92" departSpeed="0.00" departDelay="7.00" arrival="60.00" arrivalLane="1369578054_1" arrivalPos="176.77" arrivalSpeed="16.27" duration="53.00" routeLength="354.58" waitingTime="9.00" waitingCount="1" stopTime="0.00" timeLoss="30.34" rerouteNo="0" devices="tripinfo_flow_route_32_duration_20250327_2100.0" vType="car" speedFactor="1.03" vaporized=""/>
    <tripinfo id="flow_route_30_duration_20250327_2100.1" depart="30.00" departLane="1235147073.116_0" departPos="5.10" departSpeed="0.00" departDelay="10.00" arrival="60.00" arrivalLane="133126030#0_1" arrivalPos="122.63" arrivalSpeed="15.55" duration="30.00" routeLength="292.05" waitingTime="0.00" waitingCount="0" stopTime="0.00" timeLoss="11.36" rerouteNo="0" devices="tripinfo_flow_route_30_duration_20250327_2100.1" vType="car" speedFactor="0.96" vaporized=""/>
    <tripinfo id="flow_route_31_duration_20250327_2100.2" depart="23.00" departLane="1235147073.116_0" departPos="5.81" departSpeed="0.00" departDelay="8.00" arrival="62.00" arrivalLane="-430406005#1_0" arrivalPos="121.21" arrivalSpeed="14.65" duration="39.00" routeLength="278.36" waitingTime="0.00" waitingCount="0" stopTime="0.00" timeLoss="21.44" rerouteNo="0" devices="tripinfo_flow_route_31_duration_20250327_2100.2" vType="car" speedFactor="1.15" vaporized=""/>
    <tripinfo id="flow_route_32_duration_20250327_2100.3" depart="29.00" departLane="1235147073.116_0" departPos="12.54" departSpeed="0.00" departDelay="12.64" arrival="64.00" arrivalLane="1369578054_1" arrivalPos="147.63" arrivalSpeed="13.68" duration="35.00" routeLength="314.81" waitingTime="0.00" waitingCount="0" stopTime="0.00" timeLoss="14.52" rerouteNo="0" devices="tripinfo_flow_route_32_duration_20250327_2100.3" vType="car" speedFactor="0.97" vaporized=""/>
    <tripinfo id="flow_route_32_duration_20250327_2100.1" depart="11.00" departLane="1235147073.116_0" departPos="2.32" departSpeed="0.00" departDelay="5.55" arrival="66.00" arrivalLane="1369578054_1" arrivalPos="229.08" arrivalSpeed="16.35" duration="55.00" routeLength="406.48" waitingTime="5.00" waitingCount="1" stopTime="0.00" timeLoss="29.05" rerouteNo="0" devices="tripinfo_flow_route_32_duration_20250327_2100.1" vType="car" speedFactor="1.12" vaporized=""/>
    <tripinfo id="flow_route_32_duration_20250327_2100.2" depart="19.00" departLane="1235147073.116_0" departPos="5.25" departSpeed="0.00" departDelay="8.09" arrival="66.00" arrivalLane="1369578054_1" arrivalPos="192.26" arrivalSpeed="13.69" duration="47.00" routeLength="366.74" waitingTime="0.00" waitingCount="0" stopTime="0.00" timeLoss="18.77" rerouteNo="0" devices="tripinfo_flow_route_32_duration_20250327_2100.2" vType="car" speedFactor="0.83" vaporized=""/>
    <tripinfo id="flow_route_31_duration_20250327_2100.3" depart="39.00" departLane="1235147073.116_0" departPos="6.04" departSpeed="0.00" departDelay="16.50" arrival="67.00" arrivalLane="-430406005#1_0" arrivalPos="61.53" arrivalSpeed="12.21" duration="28.00" routeLength="218.46" waitingTime="0.00" waitingCount="0" stopTime="0.00" timeLoss="14.11" rerouteNo="0" devices="tripinfo_flow_route_31_duration_20250327_2100.3" vType="car" speedFactor="1.09" vaporized=""/>
    <tripinfo id="flow_route_32_duration_20250327_2100.5" depart="44.00" departLane="1235147073.116_0" departPos="0.75" departSpeed="0.00" departDelay="16.73" arrival="80.00" arrivalLane="1369578054_1" arrivalPos="145.75" arrivalSpeed="16.26" duration="36.00" routeLength="324.73" waitingTime="0.00" waitingCount="0" stopTime="0.00" timeLoss="15.26" rerouteNo="0" devices="tripinfo_flow_route_32_duration_20250327_2100.5" vType="car" speedFactor="1.00" vaporized=""/>
    <tripinfo id="flow_route_32_duration_20250327_2100.6" depart="48.00" departLane="1235147073.116_0" departPos="13.68" departSpeed="0.00" departDelay="15.28" arrival="80.00" arrivalLane="1369578054_1" arrivalPos="67.71" arrivalSpeed="12.72" duration="32.00" routeLength="233.76" waitingTime="0.00" waitingCount="0" stopTime="0.00" timeLoss="14.59" rerouteNo="0" devices="tripinfo_flow_route_32_duration_20250327_2100.6" vType="car" speedFactor="0.88" vaporized=""/>
    <tripinfo id="flow_route_32_duration_20250327_2100.4" depart="37.00" departLane="1235147073.116_0" departPos="11.48" departSpeed="0.00" departDelay="15.18" arrival="81.00" arrivalLane="1369578054_1" arrivalPos="293.11" arrivalSpeed="16.24" duration="44.00" routeLength="461.37" waitingTime="0.00" waitingCount="0" stopTime="0.00" timeLoss="15.31" rerouteNo="0" devices="tripinfo_flow_route_32_duration_20250327_2100.4" vType="car" speedFactor="1.04" vaporized=""/>
    <tripinfo id="flow_route_31_duration_20250327_2100.4" depart="47.00" departLane="1235147073.116_0" departPos="4.49" departSpeed="0.00" departDelay="17.00" arrival="83.00" arrivalLane="-430406005#1_0" arrivalPos="167.19" arrivalSpeed="16.33" duration="36.00" routeLength="325.66" waitingTime="0.00" waitingCount="0" stopTime="0.00" timeLoss="15.55" rerouteNo="0" devices="tripinfo_flow_route_31_duration_20250327_2100.4" vType="car" speedFactor="0.97" vaporized=""/>
    <tripinfo id="flow_route_33_duration_20250327_2100.0" depart="0.00" departLane="133126008#0_0" departPos="101.07" departSpeed="0.00" departDelay="0.00" arrival="84.00" arrivalLane="1369578054_0" arrivalPos="13.07" arrivalSpeed="8.73" duration="84.00" routeLength="125.36" waitingTime="57.00" waitingCount="1" stopTime="0.00" timeLoss="75.88" rerouteNo="0" devices="tripinfo_flow_route_33_duration_20250327_2100.0" vType="car" speedFactor="0.83" vaporized=""/>
    <tripinfo id="flow_route_34_duration_20250327_2100.1" depart="6.00" departLane="133126008#0_0" departPos="5.32" departSpeed="0.00" departDelay="0.00" arrival="90.00" arrivalLane="133126030#0_0" arrivalPos="29.48" arrivalSpeed="9.01" duration="84.00" routeLength="211.68" waitingTime="49.00" waitingCount="1" stopTime="0.00" timeLoss="70.31" rerouteNo="0" devices="tripinfo_flow_route_34_duration_20250327_2100.1" vType="car" speedFactor="0.99" vaporized=""/>
    <tripinfo id="flow_route_28_duration_20250327_2100.2" depart="15.00" departLane="-422986370#2_0" departPos="124.96" departSpeed="0.00" departDelay="1.67" arrival="90.00" arrivalLane="-430406005#1_1" arrivalPos="32.26" arrivalSpeed="10.06" duration="75.00" routeLength="241.73" waitingTime="37.00" waitingCount="1" stopTime="0.00" timeLoss="60.41" rerouteNo="0" devices="tripinfo_flow_route_28_duration_20250327_2100.2" vType="car" speedFactor="1.13" vaporized=""/>
    <tripinfo id="flow_route_33_duration_20250327_2100.1" depart="8.00" departLane="133126008#0_0" departPos="106.41" departSpeed="0.00" departDelay="0.50" arrival="91.00" arrivalLane="1369578054_1" arrivalPos="72.33" arrivalSpeed="13.03" duration="83.00" routeLength="179.28" waitingTime="49.00" waitingCount="1" stopTime="0.00" timeLoss="72.16" rerouteNo="0" devices="tripinfo_flow_route_33_duration_20250327_2100.1" vType="car" speedFactor="1.02" vaporized=""/>
    <tripinfo id="flow_route_34_duration_20250327_2100.2" depart="15.00" departLane="133126008#0_0" departPos="147.34" departSpeed="0.00" departDelay="3.00" arrival="92.00" arrivalLane="133126030#0_0" arrivalPos="101.31" arrivalSpeed="13.20" duration="77.00" routeLength="141.49" waitingTime="51.00" waitingCount="1" stopTime="0.00" timeLoss="65.85" rerouteNo="0" devices="tripinfo_flow_route_34_duration_20250327_2100.2" vType="car" speedFactor="0.87" vaporized=""/>
    <tripinfo id="flow_route_33_duration_20250327_2100.2" depart="16.00" departLane="133126008#0_0" departPos="165.08" departSpeed="0.00" departDelay="1.00" arrival="93.00" arrivalLane="1369578054_1" arrivalPos="126.81" arrivalSpeed="16.58" duration="77.00" routeLength="175.10" waitingTime="50.00" waitingCount="1" stopTime="0.00" timeLoss="66.04" rerouteNo="0" devices="tripinfo_flow_route_33_duration_20250327_2100.2" vType="car" speedFactor="1.01" vaporized=""/>
    <tripinfo id="flow_route_28_duration_20250327_2100.3" depart="20.00" departLane="-422986370#2_0" departPos="213.66" departSpeed="0.00" departDelay="0.00" arrival="93.00" arrivalLane="-430406005#1_1" arrivalPos="83.28" arrivalSpeed="12.82" duration="73.00" routeLength="204.05" waitingTime="38.00" waitingCount="1" stopTime="0.00" timeLoss="60.41" rerouteNo="0" devices="tripinfo_flow_route_28_duration_20250327_2100.3" vType="car" speedFactor="1.03" vaporized=""/>
    <tripinfo id="flow_route_33_duration_20250327_2100.5" depart="39.00" departLane="133126008#0_0" departPos="2.08" departSpeed="0.00" departDelay="1.50" arrival="93.00" arrivalLane="1369578054_1" arrivalPos="2.20" arrivalSpeed="10.22" duration="54.00" routeLength="213.48" waitingTime="16.00" waitingCount="1" stopTime="0.00" timeLoss="40.96" rerouteNo="0" devices="tripinfo_flow_route_33_duration_20250327_2100.5" vType="car" speedFactor="1.06" vaporized=""/>
    <tripinfo id="flow_route_28_duration_20250327_2100.1" depart="7.00" departLane="-422986370#2_0" departPos="288.93" departSpeed="0.00" departDelay="0.33" arrival="94.00" arrivalLane="-430406005#1_0" arrivalPos="122.35" arrivalSpeed="15.48" duration="87.00" routeLength="167.85" waitingTime="60.00" waitingCount="1" stopTime="0.00" timeLoss="76.39" rerouteNo="0" devices="tripinfo_flow_route_28_duration_20250327_2100.1" vType="car" speedFactor="0.93" vaporized=""/>
    <tripinfo id="flow_route_28_duration_20250327_2100.0" depart="0.00" departLane="-422986370#2_0" departPos="1.81" departSpeed="0.00" departDelay="0.00" arrival="96.00" arrivalLane="-430406005#1_0" arrivalPos="159.13" arrivalSpeed="16.28" duration="96.00" routeLength="491.75" waitingTime="42.00" waitingCount="1" stopTime="0.00" timeLoss="65.99" rerouteNo="0" devices="tripinfo_flow_route_28_duration_20250327_2100.0" vType="car" speedFactor="1.06" vaporized=""/>
    <tripinfo id="flow_route_29_duration_20250327_2100.0" depart="0.00" departLane="-422986370#2_0" departPos="201.60" departSpeed="0.00" departDelay="0.00" arrival="96.00" arrivalLane="137415945#0_0" arrivalPos="9.07" arrivalSpeed="15.19" duration="96.00" routeLength="253.29" waitingTime="56.00" waitingCount="1" stopTime="0.00" timeLoss="77.97" rerouteNo="0" devices="tripinfo_flow_route_29_duration_20250327_2100.0" vType="car" speedFactor="0.94" vaporized=""/>
    <tripinfo id="flow_route_34_duration_20250327_2100.0" depart="0.00" departLane="133126008#0_0" departPos="47.21" departSpeed="0.00" departDelay="0.00" arrival="96.00" arrivalLane="133126030#0_0" arrivalPos="137.72" arrivalSpeed="15.89" duration="96.00" routeLength="278.03" waitingTime="50.00" waitingCount="1" stopTime="0.00" timeLoss="77.91" rerouteNo="0" devices="tripinfo_flow_route_34_duration_20250327_2100.0" vType="car" speedFactor="1.05" vaporized=""/>
    <tripinfo id="flow_route_29_duration_20250327_2100.1" depart="8.00" departLane="-422986370#2_0" departPos="214.35" departSpeed="0.00" departDelay="0.50" arrival="97.00" arrivalLane="137415945#0_0" arrivalPos="2.14" arrivalSpeed="15.58" duration="89.00" routeLength="233.61" waitingTime="52.00" waitingCount="1" stopTime="0.00" timeLoss="72.58" rerouteNo="0" devices="tripinfo_flow_route_29_duration_20250327_2100.1" vType="car" speedFactor="0.94" vaporized=""/>
    <tripinfo id="flow_route_34_duration_20250327_2100.3" depart="18.00" departLane="133126008#0_0" departPos="52.89" departSpeed="0.00" departDelay="0.00" arrival="97.00" arrivalLane="133126030#0_0" arrivalPos="84.45" arrivalSpeed="13.37" duration="79.00" routeLength="219.08" waitingTime="38.00" waitingCount="1" stopTime="0.00" timeLoss="64.69" rerouteNo="0" devices="tripinfo_flow_route_34_duration_20250327_2100.3" vType="car" speedFactor="1.18" vaporized=""/>
    <tripinfo id="flow_route_29_duration_20250327_2100.2" depart="16.00" departLane="-422986370#2_0" departPos="187.29" departSpeed="0.00" departDelay="1.00" arrival="99.00" arrivalLane="137415945#0_0" arrivalPos="2.70" arrivalSpeed="15.87" duration="83.00" routeLength="261.24" waitingTime="40.00" waitingCount="1" stopTime="0.00" timeLoss="66.06" rerouteNo="0" devices="tripinfo_flow_route_29_duration_20250327_2100.2" vType="car" speedFactor="1.18" vaporized=""/>
    <tripinfo id="flow_route_33_duration_20250327_2100.6" depart="46.00" departLane="133126008#0_0" departPos="85.49" departSpeed="0.00" departDelay="1.00" arrival="99.00" arrivalLane="1369578054_1" arrivalPos="102.75" arrivalSpeed="15.65" duration="53.00" routeLength="230.62" waitingTime="17.00" waitingCount="1" stopTime="0.00" timeLoss="38.84" rerouteNo="0" devices="tripinfo_flow_route_33_duration_20250327_2100.6" vType="car" speedFactor="1.04" vaporized=""/>
    <tripinfo id="flow_route_28_duration_20250327_2100.4" depart="27.00" departLane="-422986370#2_0" departPos="3.49" departSpeed="0.00" departDelay="0.34" arrival="100.00" arrivalLane="-430406005#1_1" arrivalPos="142.51" arrivalSpeed="16.51" duration="73.00" routeLength="473.44" waitingTime="18.00" waitingCount="1" stopTime="0.00" timeLoss="44.22" rerouteNo="0" devices="tripinfo_flow_route_28_duration_20250327_2100.4" vType="car" speedFactor="1.10" vaporized=""/>
    <tripinfo id="flow_route_28_duration_20250327_2100.6" depart="41.00" departLane="-422986370#2_0" departPos="56.31" departSpeed="0.00" departDelay="1.00" arrival="101.00" arrivalLane="-430406005#1_1" arrivalPos="103.44" arrivalSpeed="15.44" duration="60.00" routeLength="381.55" waitingTime="12.00" waitingCount="1" stopTime="0.00" timeLoss="36.81" rerouteNo="0" devices="tripinfo_flow_route_28_duration_20250327_2100.6" vType="car" speedFactor="1.01" vaporized=""/>
    <tripinfo id="flow_route_28_duration_20250327_2100.7" depart="48.00" departLane="-422986370#2_0" departPos="14.53" departSpeed="0.00" departDelay="1.34" arrival="101.00" arrivalLane="-430406005#1_1" arrivalPos="68.75" arrivalSpeed="14.98" duration="53.00" routeLength="388.64" waitingTime="4.00" waitingCount="1" stopTime="0.00" timeLoss="26.73" rerouteNo="0" devices="tripinfo_flow_route_28_duration_20250327_2100.7" vType="car" speedFactor="0.89" vaporized=""/>
    <tripinfo id="flow_route_33_duration_20250327_2100.3" depart="24.00" departLane="133126008#0_0" departPos="98.03" departSpeed="0.00" departDelay="1.50" arrival="102.00" arrivalLane="1369578054_1" arrivalPos="198.75" arrivalSpeed="16.20" duration="78.00" routeLength="314.08" waitingTime="37.00" waitingCount="1" stopTime="0.00" timeLoss="58.26" rerouteNo="0" devices="tripinfo_flow_route_33_duration_20250327_2100.3" vType="car" speedFactor="1.00" vaporized=""/>
    <tripinfo id="flow_route_34_duration_20250327_2100.4" depart="24.00" departLane="133126008#0_0" departPos="2.61" departSpeed="0.00" departDelay="0.00" arrival="103.00" arrivalLane="133126030#0_0" arrivalPos="118.79" arrivalSpeed="13.79" duration="79.00" routeLength="303.70" waitingTime="33.00" waitingCount="1" stopTime="0.00" timeLoss="58.80" rerouteNo="0" devices="tripinfo_flow_route_34_duration_20250327_2100.4" vType="car" speedFactor="0.85" vaporized=""/>
    <tripinfo id="flow_route_34_duration_20250327_2100.5" depart="32.00" departLane="133126008#0_0" departPos="17.44" departSpeed="0.00" departDelay="2.00" arrival="103.00" arrivalLane="133126030#0_0" arrivalPos="85.77" arrivalSpeed="12.22" duration="71.00" routeLength="255.85" waitingTime="29.00" waitingCount="1" stopTime="0.00" timeLoss="54.20" rerouteNo="0" devices="tripinfo_flow_route_34_duration_20250327_2100.5" vType="car" speedFactor="1.12" vaporized=""/>
    <tripinfo id="flow_route_28_duration_20250327_2100.5" depart="34.00" departLane="-422986370#2_0" departPos="57.07" departSpeed="0.00" departDelay="0.67" arrival="103.00" arrivalLane="-430406005#1_1" arrivalPos="164.22" arrivalSpeed="16.22" duration="69.00" routeLength="441.58" waitingTime="16.00" waitingCount="1" stopTime="0.00" timeLoss="40.75" rerouteNo="0" devices="tripinfo_flow_route_28_duration_20250327_2100.5" vType="car" speedFactor="0.91" vaporized=""/>
    <tripinfo id="flow_route_29_duration_20250327_2100.5" depart="38.00" departLane="-422986370#2_0" departPos="181.09" departSpeed="0.00" departDelay="0.50" arrival="103.00" arrivalLane="137415945#0_0" arrivalPos="1.52" arrivalSpeed="15.35" duration="65.00" routeLength="266.25" waitingTime="22.00" waitingCount="1" stopTime="0.00" timeLoss="46.75" rerouteNo="0" devices="tripinfo_flow_route_29_duration_20250327_2100.5" vType="car" speedFactor="0.97" vaporized=""/>
    <tripinfo id="flow_route_34_duration_20250327_2100.8" depart="51.00" departLane="133126008#0_0" departPos="116.01" departSpeed="0.00" departDelay="3.00" arrival="103.00" arrivalLane="133126030#0_0" arrivalPos="59.12" arrivalSpeed="11.08" duration="52.00" routeLength="130.64" waitingTime="23.00" waitingCount="1" stopTime="0.00" timeLoss="42.24" rerouteNo="0" devices="tripinfo_flow_route_34_duration_20250327_2100.8" vType="car" speedFactor="0.92" vaporized=""/>
    <tripinfo id="flow_route_34_duration_20250327_2100.9" depart="55.00" departLane="133126008#0_0" departPos="10.14" departSpeed="0.00" departDelay="1.00" arrival="104.00" arrivalLane="133126030#0_0" arrivalPos="3.04" arrivalSpeed="5.98" duration="49.00" routeLength="180.42" waitingTime="11.00" waitingCount="1" stopTime="0.00" timeLoss="37.20" rerouteNo="0" devices="tripinfo_flow_route_34_duration_20250327_2100.9" vType="car" speedFactor="0.89" vaporized=""/>
    <tripinfo id="flow_route_29_duration_20250327_2100.4" depart="30.00" departLane="-422986370#2_0" departPos="96.88" departSpeed="0.00" departDelay="0.00" arrival="105.00" arrivalLane="137415945#0_0" arrivalPos="6.21" arrivalSpeed="16.09" duration="75.00" routeLength="355.14" waitingTime="21.00" waitingCount="1" stopTime="0.00" timeLoss="52.47" rerouteNo="0" devices="tripinfo_flow_route_29_duration_20250327_2100.4" vType="car" speedFactor="1.02" vaporized=""/>
    <tripinfo id="flow_route_28_duration_20250327_2100.8" depart="54.00" departLane="-422986370#2_0" departPos="104.52" departSpeed="0.00" departDelay="0.67" arrival="105.00" arrivalLane="-430406005#1_1" arrivalPos="107.92" arrivalSpeed="16.41" duration="51.00" routeLength="337.83" waitingTime="3.00" waitingCount="1" stopTime="0.00" timeLoss="29.62" rerouteNo="0" devices="tripinfo_flow_route_28_duration_20250327_2100.8" vType="car" speedFactor="0.95" vaporized=""/>
    <tripinfo id="flow_route_33_duration_20250327_2100.4" depart="31.00" departLane="133126008#0_0" departPos="143.10" departSpeed="0.00" departDelay="1.00" arrival="106.00" arrivalLane="1369578054_1" arrivalPos="234.93" arrivalSpeed="16.34" duration="75.00" routeLength="305.19" waitingTime="37.00" waitingCount="2" stopTime="0.00" timeLoss="55.64" rerouteNo="0" devices="tripinfo_flow_route_33_duration_20250327_2100.4" vType="car" speedFactor="1.08" vaporized=""/>
    <tripinfo id="flow_route_29_duration_20250327_2100.3" depart="23.00" departLane="-422986370#2_0" departPos="30.82" departSpeed="0.00" departDelay="0.50" arrival="108.00" arrivalLane="137415945#0_0" arrivalPos="11.51" arrivalSpeed="16.06" duration="85.00" routeLength="426.52" waitingTime="21.00" waitingCount="1" stopTime="0.00" timeLoss="57.79" rerouteNo="0" devices="tripinfo_flow_route_29_duration_20250327_2100.3" vType="car" speedFactor="1.04" vaporized=""/>
    <tripinfo id="flow_route_34_duration_20250327_2100.7" depart="44.00" departLane="133126008#0_0" departPos="5.62" departSpeed="0.00" departDelay="2.00" arrival="108.00" arrivalLane="133126030#0_0" arrivalPos="64.24" arrivalSpeed="11.28" duration="64.00" routeLength="246.14" waitingTime="21.00" waitingCount="2" stopTime="0.00" timeLoss="47.85" rerouteNo="0" devices="tripinfo_flow_route_34_duration_20250327_2100.7" vType="car" speedFactor="1.00" vaporized=""/>
    <tripinfo id="flow_route_29_duration_20250327_2100.6" depart="45.00" departLane="-422986370#2_0" departPos="151.85" departSpeed="0.00" departDelay="0.00" arrival="110.00" arrivalLane="137415945#0_0" arrivalPos="11.69" arrivalSpeed="15.85" duration="65.00" routeLength="305.66" waitingTime="19.00" waitingCount="1" stopTime="0.00" timeLoss="44.85" rerouteNo="0" devices="tripinfo_flow_route_29_duration_20250327_2100.6" vType="car" speedFactor="0.98" vaporized=""/>
    <tripinfo id="flow_route_34_duration_20250327_2100.6" depart="36.00" departLane="133126008#0_0" departPos="6.18" departSpeed="0.00" departDelay="0.00" arrival="112.00" arrivalLane="133126030#0_0" arrivalPos="170.10" arrivalSpeed="16.12" duration="76.00" routeLength="351.44" waitingTime="23.00" waitingCount="1" stopTime="0.00" timeLoss="54.18" rerouteNo="0" devices="tripinfo_flow_route_34_duration_20250327_2100.6" vType="car" speedFactor="1.02" vaporized=""/>
    <tripinfo id="flow_route_29_duration_20250327_2100.7" depart="54.00" departLane="-422986370#2_0" departPos="23.49" departSpeed="0.00" departDelay="1.50" arrival="112.00" arrivalLane="137415945#0_0" arrivalPos="5.18" arrivalSpeed="15.51" duration="58.00" routeLength="427.51" waitingTime="1.00" waitingCount="1" stopTime="0.00" timeLoss="31.20" rerouteNo="0" devices="tripinfo_flow_route_29_duration_20250327_2100.7" vType="car" speedFactor="1.10" vaporized=""/>
    <tripinfo id="flow_route_33_duration_20250327_2100.7" depart="55.00" departLane="133126008#0_0" departPos="25.69" departSpeed="0.00" departDelay="2.50" arrival="114.00" arrivalLane="1369578054_1" arrivalPos="270.00" arrivalSpeed="15.52" duration="59.00" routeLength="457.67" waitingTime="6.00" waitingCount="1" stopTime="0.00" timeLoss="29.84" rerouteNo="0" devices="tripinfo_flow_route_33_duration_20250327_2100.7" vType="car" speedFactor="0.96" vaporized=""/>
    <tripinfo id="flow_route_37_duration_20250327_2100.3" depart="36.00" departLane="485211947#0_0" departPos="74.73" departSpeed="0.00" departDelay="13.50" arrival="126.00" arrivalLane="-430406005#1_1" arrivalPos="49.52" arrivalSpeed="10.78" duration="90.00" routeLength="187.77" waitingTime="56.00" waitingCount="1" stopTime="0.00" timeLoss="76.01" rerouteNo="0" devices="tripinfo_flow_route_37_duration_20250327_2100.3" vType="car" speedFactor="0.85" vaporized=""/>
    <tripinfo id="flow_route_35_duration_20250327_2100.5" depart="21.00" departLane="485211947#0_0" departPos="7.89" departSpeed="0.00" departDelay="5.22" arrival="127.00" arrivalLane="1369578054_0" arrivalPos="7.15" arrivalSpeed="8.65" duration="106.00" routeLength="196.71" waitingTime="63.00" waitingCount="1" stopTime="0.00" timeLoss="92.74" rerouteNo="0" devices="tripinfo_flow_route_35_duration_20250327_2100.5" vType="car" speedFactor="0.99" vaporized=""/>