<?xml version="1.0" encoding="UTF-8"?>

<!-- generated on 2025-05-06 21:08:58 by Eclipse SUMO sumo Version 1.20.0
<configuration xmlns:xsi="http://www.w3.org/2001/XMLSchema-instance" xsi:noNamespaceSchemaLocation="http://sumo.dlr.de/xsd/sumoConfiguration.xsd">

    <input>
        <net-file value="osm.net.xml"/>
        <route-files value="xml/route_static_J7_7.rou.xml"/>
    </input>

    <output>
        <tripinfo-output value="xml/tripinfo_static_J7_7.xml"/>
    </output>

    <traci_server>
        <remote-port value="49595"/>
    </traci_server>

</configuration>
-->

<tripinfos xmlns:xsi="http://www.w3.org/2001/XMLSchema-instance" xsi:noNamespaceSchemaLocation="http://sumo.dlr.de/xsd/tripinfo_file.xsd">
    <tripinfo id="flow_route_127_duration_20250327_1910.1" depart="2.00" departLane="-138000461_0" departPos="174.20" departSpeed="0.00" departDelay="0.18" arrival="21.00" arrivalLane="189240000#0-AddedOnRampEdge_0" arrivalPos="28.99" arrivalSpeed="11.31" duration="19.00" routeLength="113.90" waitingTime="0.00" waitingCount="0" stopTime="0.00" timeLoss="10.94" rerouteNo="0" devices="tripinfo_flow_route_127_duration_20250327_1910.1" vType="car" speedFactor="1.03" vaporized=""/>
    <tripinfo id="flow_route_127_duration_20250327_1910.2" depart="4.00" departLane="-138000461_0" departPos="203.84" departSpeed="0.00" departDelay="0.36" arrival="22.00" arrivalLane="189240000#0-AddedOnRampEdge_0" arrivalPos="64.68" arrivalSpeed="13.30" duration="18.00" routeLength="119.95" waitingTime="0.00" waitingCount="0" stopTime="0.00" timeLoss="9.57" rerouteNo="0" devices="tripinfo_flow_route_127_duration_20250327_1910.2" vType="car" speedFactor="0.94" vaporized=""/>
    <tripinfo id="flow_route_121_duration_20250327_1910.1" depart="2.00" departLane="799091563#0_0" departPos="356.57" departSpeed="0.00" departDelay="0.64" arrival="25.00" arrivalLane="134194079#0_0" arrivalPos="151.34" arrivalSpeed="16.09" duration="23.00" routeLength="183.92" waitingTime="0.00" waitingCount="0" stopTime="0.00" timeLoss="10.81" rerouteNo="0" devices="tripinfo_flow_route_121_duration_20250327_1910.1" vType="car" speedFactor="1.09" vaporized=""/>
    <tripinfo id="flow_route_131_duration_20250327_1910.0" depart="0.00" departLane="714011134#0_0" departPos="6.35" departSpeed="0.00" departDelay="0.00" arrival="27.00" arrivalLane="134194079#0_2" arrivalPos="73.02" arrivalSpeed="14.63" duration="27.00" routeLength="232.63" waitingTime="0.00" waitingCount="0" stopTime="0.00" timeLoss="10.52" rerouteNo="0" devices="tripinfo_flow_route_131_duration_20250327_1910.0" vType="car" speedFactor="0.89" vaporized=""/>
    <tripinfo id="flow_route_127_duration_20250327_1910.0" depart="0.00" departLane="-138000461_0" departPos="55.90" departSpeed="0.00" departDelay="0.00" arrival="31.00" arrivalLane="189240000#0-AddedOnRampEdge_0" arrivalPos="70.17" arrivalSpeed="14.72" duration="31.00" routeLength="273.38" waitingTime="0.00" waitingCount="0" stopTime="0.00" timeLoss="13.70" rerouteNo="0" devices="tripinfo_flow_route_127_duration_20250327_1910.0" vType="car" speedFactor="1.05" vaporized=""/>
    <tripinfo id="flow_route_121_duration_20250327_1910.3" depart="5.00" departLane="799091563#0_0" departPos="253.70" departSpeed="0.00" departDelay="0.91" arrival="34.00" arrivalLane="134194079#0_0" arrivalPos="49.55" arrivalSpeed="9.77" duration="29.00" routeLength="185.01" waitingTime="0.00" waitingCount="0" stopTime="0.00" timeLoss="16.43" rerouteNo="0" devices="tripinfo_flow_route_121_duration_20250327_1910.3" vType="car" speedFactor="1.02" vaporized=""/>
    <tripinfo id="flow_route_127_duration_20250327_1910.9" depart="20.00" departLane="-138000461_0" departPos="198.80" departSpeed="0.00" departDelay="3.64" arrival="34.00" arrivalLane="189240000#0-AddedOnRampEdge_0" arrivalPos="10.80" arrivalSpeed="9.26" duration="14.00" routeLength="71.11" waitingTime="0.00" waitingCount="0" stopTime="0.00" timeLoss="9.04" rerouteNo="0" devices="tripinfo_flow_route_127_duration_20250327_1910.9" vType="car" speedFactor="0.88" vaporized=""/>
    <tripinfo id="flow_route_132_duration_20250327_1910.0" depart="0.00" departLane="714011134#0_0" departPos="92.28" departSpeed="0.00" departDelay="0.00" arrival="35.00" arrivalLane="189240000#0-AddedOnRampEdge_1" arrivalPos="51.48" arrivalSpeed="15.31" duration="35.00" routeLength="375.34" waitingTime="0.00" waitingCount="0" stopTime="0.00" timeLoss="10.06" rerouteNo="0" devices="tripinfo_flow_route_132_duration_20250327_1910.0" vType="car" speedFactor="0.94" vaporized=""/>
    <tripinfo id="flow_route_121_duration_20250327_1910.7" depart="13.00" departLane="799091563#0_0" departPos="371.45" departSpeed="0.00" departDelay="3.46" arrival="36.00" arrivalLane="134194079#0_0" arrivalPos="181.47" arrivalSpeed="16.57" duration="23.00" routeLength="199.18" waitingTime="0.00" waitingCount="0" stopTime="0.00" timeLoss="9.58" rerouteNo="0" devices="tripinfo_flow_route_121_duration_20250327_1910.7" vType="car" speedFactor="1.18" vaporized=""/>
    <tripinfo id="flow_route_121_duration_20250327_1910.0" depart="1.00" departLane="799091563#0_0" departPos="259.58" departSpeed="0.00" departDelay="1.00" arrival="38.00" arrivalLane="134194079#0_0" arrivalPos="144.99" arrivalSpeed="15.45" duration="37.00" routeLength="274.57" waitingTime="0.00" waitingCount="0" stopTime="0.00" timeLoss="19.88" rerouteNo="0" devices="tripinfo_flow_route_121_duration_20250327_1910.0" vType="car" speedFactor="1.08" vaporized=""/>
    <tripinfo id="flow_route_116_duration_20250327_1910.0" depart="0.00" departLane="177211987#1_0" departPos="0.88" departSpeed="0.00" departDelay="0.00" arrival="39.00" arrivalLane="688883939#0_2" arrivalPos="93.94" arrivalSpeed="16.58" duration="39.00" routeLength="448.08" waitingTime="0.00" waitingCount="0" stopTime="0.00" timeLoss="11.18" rerouteNo="0" devices="tripinfo_flow_route_116_duration_20250327_1910.0" vType="car" speedFactor="1.06" vaporized=""/>
    <tripinfo id="flow_route_132_duration_20250327_1910.4" depart="5.00" departLane="714011134#0_0" departPos="62.84" departSpeed="0.00" departDelay="0.39" arrival="40.00" arrivalLane="189240000#0-AddedOnRampEdge_1" arrivalPos="22.79" arrivalSpeed="15.51" duration="35.00" routeLength="376.09" waitingTime="0.00" waitingCount="0" stopTime="0.00" timeLoss="11.53" rerouteNo="0" devices="tripinfo_flow_route_132_duration_20250327_1910.4" vType="car" speedFactor="0.97" vaporized=""/>
    <tripinfo id="flow_route_132_duration_20250327_1910.5" depart="7.00" departLane="714011134#0_0" departPos="104.58" departSpeed="0.00" departDelay="1.24" arrival="40.00" arrivalLane="189240000#0-AddedOnRampEdge_1" arrivalPos="46.50" arrivalSpeed="15.57" duration="33.00" routeLength="358.07" waitingTime="0.00" waitingCount="0" stopTime="0.00" timeLoss="10.00" rerouteNo="0" devices="tripinfo_flow_route_132_duration_20250327_1910.5" vType="car" speedFactor="0.95" vaporized=""/>
    <tripinfo id="flow_route_127_duration_20250327_1910.10" depart="21.00" departLane="-138000461_0" departPos="158.41" departSpeed="0.00" departDelay="2.82" arrival="41.00" arrivalLane="189240000#0-AddedOnRampEdge_0" arrivalPos="34.60" arrivalSpeed="11.06" duration="20.00" routeLength="135.31" waitingTime="0.00" waitingCount="0" stopTime="0.00" timeLoss="10.97" rerouteNo="0" devices="tripinfo_flow_route_127_duration_20250327_1910.10" vType="car" speedFactor="0.94" vaporized=""/>
    <tripinfo id="flow_route_132_duration_20250327_1910.2" depart="4.00" departLane="714011134#0_0" departPos="43.35" departSpeed="0.00" departDelay="1.69" arrival="42.00" arrivalLane="189240000#0-AddedOnRampEdge_1" arrivalPos="3.06" arrivalSpeed="14.59" duration="38.00" routeLength="375.85" waitingTime="0.00" waitingCount="0" stopTime="0.00" timeLoss="11.42" rerouteNo="0" devices="tripinfo_flow_route_132_duration_20250327_1910.2" vType="car" speedFactor="0.88" vaporized=""/>
    <tripinfo id="flow_route_132_duration_20250327_1910.1" depart="3.00" departLane="714011134#0_0" departPos="31.80" departSpeed="0.00" departDelay="1.85" arrival="45.00" arrivalLane="189240000#0-AddedOnRampEdge_2" arrivalPos="59.81" arrivalSpeed="16.57" duration="42.00" routeLength="444.14" waitingTime="0.00" waitingCount="0" stopTime="0.00" timeLoss="15.07" rerouteNo="0" devices="tripinfo_flow_route_132_duration_20250327_1910.1" vType="car" speedFactor="1.05" vaporized=""/>
    <tripinfo id="flow_route_116_duration_20250327_1910.1" depart="10.00" departLane="177211987#1_0" departPos="85.63" departSpeed="0.00" departDelay="4.55" arrival="45.00" arrivalLane="688883939#0_1" arrivalPos="72.92" arrivalSpeed="14.65" duration="35.00" routeLength="342.31" waitingTime="0.00" waitingCount="0" stopTime="0.00" timeLoss="11.81" rerouteNo="0" devices="tripinfo_flow_route_116_duration_20250327_1910.1" vType="car" speedFactor="0.89" vaporized=""/>
    <tripinfo id="flow_route_127_duration_20250327_1910.6" depart="15.00" departLane="-138000461_0" departPos="102.01" departSpeed="0.00" departDelay="4.09" arrival="45.00" arrivalLane="189240000#0-AddedOnRampEdge_0" arrivalPos="43.03" arrivalSpeed="12.53" duration="30.00" routeLength="200.13" waitingTime="0.00" waitingCount="0" stopTime="0.00" timeLoss="17.31" rerouteNo="0" devices="tripinfo_flow_route_127_duration_20250327_1910.6" vType="car" speedFactor="1.04" vaporized=""/>
    <tripinfo id="flow_route_127_duration_20250327_1910.4" depart="8.00" departLane="-138000461_0" departPos="9.90" departSpeed="0.00" departDelay="0.73" arrival="48.00" arrivalLane="189240000#0-AddedOnRampEdge_0" arrivalPos="8.12" arrivalSpeed="9.62" duration="40.00" routeLength="257.33" waitingTime="0.00" waitingCount="0" stopTime="0.00" timeLoss="24.03" rerouteNo="0" devices="tripinfo_flow_route_127_duration_20250327_1910.4" vType="car" speedFactor="1.17" vaporized=""/>
    <tripinfo id="flow_route_132_duration_20250327_1910.7" depart="11.00" departLane="714011134#0_0" departPos="43.32" departSpeed="0.00" departDelay="2.93" arrival="48.00" arrivalLane="189240000#0-AddedOnRampEdge_1" arrivalPos="33.22" arrivalSpeed="15.74" duration="37.00" routeLength="406.03" waitingTime="0.00" waitingCount="0" stopTime="0.00" timeLoss="11.60" rerouteNo="0" devices="tripinfo_flow_route_132_duration_20250327_1910.7" vType="car" speedFactor="0.97" vaporized=""/>
    <tripinfo id="flow_route_127_duration_20250327_1910.3" depart="6.00" departLane="-138000461_0" departPos="38.75" departSpeed="0.00" departDelay="0.55" arrival="49.00" arrivalLane="189240000#0-AddedOnRampEdge_0" arrivalPos="29.06" arrivalSpeed="10.70" duration="43.00" routeLength="249.42" waitingTime="0.00" waitingCount="0" stopTime="0.00" timeLoss="25.54" rerouteNo="0" devices="tripinfo_flow_route_127_duration_20250327_1910.3" vType="car" speedFactor="0.92" vaporized=""/>
    <tripinfo id="flow_route_132_duration_20250327_1910.6" depart="10.00" departLane="714011134#0_0" departPos="31.91" departSpeed="0.00" departDelay="3.08" arrival="49.00" arrivalLane="189240000#0-AddedOnRampEdge_1" arrivalPos="26.33" arrivalSpeed="16.49" duration="39.00" routeLength="410.56" waitingTime="0.00" waitingCount="0" stopTime="0.00" timeLoss="14.09" rerouteNo="0" devices="tripinfo_flow_route_132_duration_20250327_1910.6" vType="car" speedFactor="1.18" vaporized=""/>
    <tripinfo id="flow_route_127_duration_20250327_1910.5" depart="11.00" departLane="-138000461_0" departPos="72.46" departSpeed="0.00" departDelay="1.91" arrival="49.00" arrivalLane="189240000#0-AddedOnRampEdge_0" arrivalPos="48.42" arrivalSpeed="12.37" duration="38.00" routeLength="235.07" waitingTime="0.00" waitingCount="0" stopTime="0.00" timeLoss="21.00" rerouteNo="0" devices="tripinfo_flow_route_127_duration_20250327_1910.5" vType="car" speedFactor="0.90" vaporized=""/>
    <tripinfo id="flow_route_126_duration_20250327_1910.0" depart="0.00" departLane="-138000461_0" departPos="119.67" departSpeed="0.00" departDelay="0.00" arrival="51.00" arrivalLane="138000492#0_1" arrivalPos="18.35" arrivalSpeed="13.69" duration="51.00" routeLength="582.25" waitingTime="0.00" waitingCount="0" stopTime="0.00" timeLoss="8.87" rerouteNo="0" devices="tripinfo_flow_route_126_duration_20250327_1910.0" vType="car" speedFactor="0.83" vaporized=""/>
    <tripinfo id="flow_route_121_duration_20250327_1910.8" depart="20.00" departLane="799091563#0_0" departPos="323.05" departSpeed="0.00" departDelay="9.10" arrival="51.00" arrivalLane="134194079#0_0" arrivalPos="209.68" arrivalSpeed="16.51" duration="31.00" routeLength="275.79" waitingTime="0.00" waitingCount="0" stopTime="0.00" timeLoss="12.87" rerouteNo="0" devices="tripinfo_flow_route_121_duration_20250327_1910.8" vType="car" speedFactor="1.04" vaporized=""/>
    <tripinfo id="flow_route_132_duration_20250327_1910.3" depart="5.00" departLane="714011134#0_0" departPos="9.38" departSpeed="0.00" departDelay="1.54" arrival="52.00" arrivalLane="189240000#0-AddedOnRampEdge_1" arrivalPos="31.28" arrivalSpeed="15.14" duration="47.00" routeLength="438.04" waitingTime="0.00" waitingCount="0" stopTime="0.00" timeLoss="18.67" rerouteNo="0" devices="tripinfo_flow_route_132_duration_20250327_1910.3" vType="car" speedFactor="0.94" vaporized=""/>
    <tripinfo id="flow_route_117_duration_20250327_1910.2" depart="7.00" departLane="177211987#1_0" departPos="135.85" departSpeed="0.00" departDelay="2.56" arrival="52.00" arrivalLane="138000492#0_1" arrivalPos="93.90" arrivalSpeed="15.42" duration="45.00" routeLength="458.32" waitingTime="0.00" waitingCount="0" stopTime="0.00" timeLoss="16.68" rerouteNo="0" devices="tripinfo_flow_route_117_duration_20250327_1910.2" vType="car" speedFactor="1.16" vaporized=""/>
    <tripinfo id="flow_route_127_duration_20250327_1910.8" depart="19.00" departLane="-138000461_0" departPos="27.37" departSpeed="0.00" departDelay="4.46" arrival="52.00" arrivalLane="189240000#0-AddedOnRampEdge_0" arrivalPos="1.38" arrivalSpeed="9.10" duration="33.00" routeLength="233.12" waitingTime="0.00" waitingCount="0" stopTime="0.00" timeLoss="17.82" rerouteNo="0" devices="tripinfo_flow_route_127_duration_20250327_1910.8" vType="car" speedFactor="0.97" vaporized=""/>
    <tripinfo id="flow_route_133_duration_20250327_1910.0" depart="0.00" departLane="714011134#0_0" departPos="33.93" departSpeed="0.00" departDelay="0.00" arrival="57.00" arrivalLane="138000492#0_0" arrivalPos="313.58" arrivalSpeed="13.86" duration="57.00" routeLength="604.48" waitingTime="0.00" waitingCount="0" stopTime="0.00" timeLoss="13.28" rerouteNo="0" devices="tripinfo_flow_route_133_duration_20250327_1910.0" vType="car" speedFactor="0.86" vaporized=""/>
    <tripinfo id="flow_route_132_duration_20250327_1910.8" depart="12.00" departLane="714011134#0_0" departPos="14.88" departSpeed="0.00" departDelay="2.78" arrival="57.00" arrivalLane="189240000#0-AddedOnRampEdge_1" arrivalPos="77.94" arrivalSpeed="16.23" duration="45.00" routeLength="479.20" waitingTime="0.00" waitingCount="0" stopTime="0.00" timeLoss="15.25" rerouteNo="0" devices="tripinfo_flow_route_132_duration_20250327_1910.8" vType="car" speedFactor="1.03" vaporized=""/>
    <tripinfo id="flow_route_131_duration_20250327_1910.1" depart="23.00" departLane="714011134#0_0" departPos="11.56" departSpeed="0.00" departDelay="11.00" arrival="57.00" arrivalLane="134194079#0_1" arrivalPos="195.25" arrivalSpeed="14.91" duration="34.00" routeLength="349.65" waitingTime="0.00" waitingCount="0" stopTime="0.00" timeLoss="10.08" rerouteNo="0" devices="tripinfo_flow_route_131_duration_20250327_1910.1" vType="car" speedFactor="0.90" vaporized=""/>
    <tripinfo id="flow_route_127_duration_20250327_1910.11" depart="23.00" departLane="-138000461_0" departPos="48.68" departSpeed="0.00" departDelay="3.00" arrival="57.00" arrivalLane="189240000#0-AddedOnRampEdge_0" arrivalPos="86.82" arrivalSpeed="13.91" duration="34.00" routeLength="297.25" waitingTime="0.00" waitingCount="0" stopTime="0.00" timeLoss="14.86" rerouteNo="0" devices="tripinfo_flow_route_127_duration_20250327_1910.11" vType="car" speedFactor="0.98" vaporized=""/>
    <tripinfo id="flow_route_132_duration_20250327_1910.9" depart="16.00" departLane="714011134#0_0" departPos="0.09" departSpeed="0.00" departDelay="5.62" arrival="58.00" arrivalLane="189240000#0-AddedOnRampEdge_1" arrivalPos="82.50" arrivalSpeed="16.53" duration="42.00" routeLength="498.55" waitingTime="0.00" waitingCount="0" stopTime="0.00" timeLoss="11.84" rerouteNo="0" devices="tripinfo_flow_route_132_duration_20250327_1910.9" vType="car" speedFactor="1.09" vaporized=""/>
    <tripinfo id="flow_route_127_duration_20250327_1910.7" depart="16.00" departLane="-138000461_0" departPos="2.47" departSpeed="0.00" departDelay="3.27" arrival="58.00" arrivalLane="189240000#0-AddedOnRampEdge_0" arrivalPos="36.88" arrivalSpeed="11.20" duration="42.00" routeLength="293.53" waitingTime="0.00" waitingCount="0" stopTime="0.00" timeLoss="20.84" rerouteNo="0" devices="tripinfo_flow_route_127_duration_20250327_1910.7" vType="car" speedFactor="0.85" vaporized=""/>
    <tripinfo id="flow_route_127_duration_20250327_1910.12" depart="25.00" departLane="-138000461_0" departPos="10.35" departSpeed="0.00" departDelay="3.18" arrival="61.00" arrivalLane="189240000#0-AddedOnRampEdge_0" arrivalPos="55.56" arrivalSpeed="13.33" duration="36.00" routeLength="304.32" waitingTime="0.00" waitingCount="0" stopTime="0.00" timeLoss="16.58" rerouteNo="0" devices="tripinfo_flow_route_127_duration_20250327_1910.12" vType="car" speedFactor="0.98" vaporized=""/>
    <tripinfo id="flow_route_121_duration_20250327_1910.9" depart="22.00" departLane="799091563#0_0" departPos="301.06" departSpeed="0.00" departDelay="9.73" arrival="64.00" arrivalLane="134194079#0_0" arrivalPos="12.57" arrivalSpeed="5.99" duration="42.00" routeLength="100.67" waitingTime="12.00" waitingCount="1" stopTime="0.00" timeLoss="32.90" rerouteNo="0" devices="tripinfo_flow_route_121_duration_20250327_1910.9" vType="car" speedFactor="0.85" vaporized=""/>
    <tripinfo id="flow_route_117_duration_20250327_1910.4" depart="12.00" departLane="177211987#1_0" departPos="104.25" departSpeed="0.00" departDelay="3.11" arrival="65.00" arrivalLane="138000492#0_1" arrivalPos="33.67" arrivalSpeed="10.08" duration="53.00" routeLength="429.68" waitingTime="3.00" waitingCount="1" stopTime="0.00" timeLoss="26.50" rerouteNo="0" devices="tripinfo_flow_route_117_duration_20250327_1910.4" vType="car" speedFactor="0.99" vaporized=""/>
    <tripinfo id="flow_route_122_duration_20250327_1910.2" depart="14.00" departLane="799091563#0_0" departPos="217.71" departSpeed="0.00" departDelay="4.77" arrival="66.00" arrivalLane="688883939#0_2" arrivalPos="41.09" arrivalSpeed="13.12" duration="52.00" routeLength="262.02" waitingTime="13.00" waitingCount="1" stopTime="0.00" timeLoss="35.69" rerouteNo="0" devices="tripinfo_flow_route_122_duration_20250327_1910.2" vType="car" speedFactor="1.10" vaporized=""/>
    <tripinfo id="flow_route_127_duration_20250327_1910.20" depart="50.00" departLane="-138000461_0" departPos="183.50" departSpeed="0.00" departDelay="13.64" arrival="66.00" arrivalLane="189240000#0-AddedOnRampEdge_0" arrivalPos="21.50" arrivalSpeed="11.83" duration="16.00" routeLength="97.11" waitingTime="0.00" waitingCount="0" stopTime="0.00" timeLoss="9.89" rerouteNo="0" devices="tripinfo_flow_route_127_duration_20250327_1910.20" vType="car" speedFactor="1.11" vaporized=""/>
    <tripinfo id="flow_route_122_duration_20250327_1910.1" depart="9.00" departLane="799091563#0_0" departPos="110.13" departSpeed="0.00" departDelay="4.39" arrival="70.00" arrivalLane="688883939#0_2" arrivalPos="60.26" arrivalSpeed="13.83" duration="61.00" routeLength="388.77" waitingTime="13.00" waitingCount="1" stopTime="0.00" timeLoss="36.89" rerouteNo="0" devices="tripinfo_flow_route_122_duration_20250327_1910.1" vType="car" speedFactor="1.01" vaporized=""/>
    <tripinfo id="flow_route_126_duration_20250327_1910.1" depart="21.00" departLane="-138000461_0" departPos="140.77" departSpeed="0.00" departDelay="1.00" arrival="70.00" arrivalLane="138000492#0_1" arrivalPos="82.21" arrivalSpeed="16.45" duration="49.00" routeLength="625.01" waitingTime="0.00" waitingCount="0" stopTime="0.00" timeLoss="11.34" rerouteNo="0" devices="tripinfo_flow_route_126_duration_20250327_1910.1" vType="car" speedFactor="1.03" vaporized=""/>
    <tripinfo id="flow_route_121_duration_20250327_1910.5" depart="10.00" departLane="799091563#0_0" departPos="9.05" departSpeed="0.00" departDelay="3.19" arrival="71.00" arrivalLane="134194079#0_0" arrivalPos="8.21" arrivalSpeed="5.69" duration="61.00" routeLength="388.32" waitingTime="7.00" waitingCount="1" stopTime="0.00" timeLoss="34.56" rerouteNo="0" devices="tripinfo_flow_route_121_duration_20250327_1910.5" vType="car" speedFactor="0.93" vaporized=""/>
    <tripinfo id="flow_route_132_duration_20250327_1910.17" depart="37.00" departLane="714011134#0_0" departPos="90.22" departSpeed="0.00" departDelay="17.40" arrival="71.00" arrivalLane="189240000#0-AddedOnRampEdge_1" arrivalPos="30.29" arrivalSpeed="16.12" duration="34.00" routeLength="356.21" waitingTime="0.00" waitingCount="0" stopTime="0.00" timeLoss="11.96" rerouteNo="0" devices="tripinfo_flow_route_132_duration_20250327_1910.17" vType="car" speedFactor="1.01" vaporized=""/>
    <tripinfo id="flow_route_122_duration_20250327_1910.0" depart="1.00" departLane="799091563#0_0" departPos="17.54" departSpeed="0.00" departDelay="1.00" arrival="72.00" arrivalLane="688883939#0_2" arrivalPos="62.20" arrivalSpeed="14.46" duration="71.00" routeLength="483.30" waitingTime="10.00" waitingCount="1" stopTime="0.00" timeLoss="41.16" rerouteNo="0" devices="tripinfo_flow_route_122_duration_20250327_1910.0" vType="car" speedFactor="1.03" vaporized=""/>
    <tripinfo id="flow_route_122_duration_20250327_1910.3" depart="27.00" departLane="799091563#0_0" departPos="181.89" departSpeed="0.00" departDelay="13.16" arrival="72.00" arrivalLane="688883939#0_2" arrivalPos="40.01" arrivalSpeed="13.45" duration="45.00" routeLength="296.76" waitingTime="0.00" waitingCount="0" stopTime="0.00" timeLoss="26.55" rerouteNo="0" devices="tripinfo_flow_route_122_duration_20250327_1910.3" vType="car" speedFactor="1.00" vaporized=""/>
    <tripinfo id="flow_route_132_duration_20250327_1910.16" depart="37.00" departLane="714011134#0_0" departPos="102.31" departSpeed="0.00" departDelay="18.55" arrival="72.00" arrivalLane="189240000#0-AddedOnRampEdge_1" arrivalPos="75.69" arrivalSpeed="16.25" duration="35.00" routeLength="389.52" waitingTime="0.00" waitingCount="0" stopTime="0.00" timeLoss="10.94" rerouteNo="0" devices="tripinfo_flow_route_132_duration_20250327_1910.16" vType="car" speedFactor="1.06" vaporized=""/>
    <tripinfo id="flow_route_117_duration_20250327_1910.1" depart="6.00" departLane="177211987#1_0" departPos="84.90" departSpeed="0.00" departDelay="3.78" arrival="73.00" arrivalLane="138000492#0_1" arrivalPos="166.90" arrivalSpeed="16.23" duration="67.00" routeLength="582.25" waitingTime="4.00" waitingCount="1" stopTime="0.00" timeLoss="31.49" rerouteNo="0" devices="tripinfo_flow_route_117_duration_20250327_1910.1" vType="car" speedFactor="1.12" vaporized=""/>
    <tripinfo id="flow_route_121_duration_20250327_1910.16" depart="45.00" departLane="799091563#0_0" departPos="296.28" departSpeed="0.00" departDelay="23.19" arrival="73.00" arrivalLane="134194079#0_0" arrivalPos="2.16" arrivalSpeed="6.42" duration="28.00" routeLength="95.05" waitingTime="0.00" waitingCount="0" stopTime="0.00" timeLoss="20.91" rerouteNo="0" devices="tripinfo_flow_route_121_duration_20250327_1910.16" vType="car" speedFactor="1.15" vaporized=""/>
    <tripinfo id="flow_route_127_duration_20250327_1910.14" depart="35.00" departLane="-138000461_0" departPos="42.84" departSpeed="0.00" departDelay="9.55" arrival="73.00" arrivalLane="189240000#0-AddedOnRampEdge_0" arrivalPos="19.07" arrivalSpeed="11.90" duration="38.00" routeLength="235.33" waitingTime="0.00" waitingCount="0" stopTime="0.00" timeLoss="22.89" rerouteNo="0" devices="tripinfo_flow_route_127_duration_20250327_1910.14" vType="car" speedFactor="1.12" vaporized=""/>
    <tripinfo id="flow_route_127_duration_20250327_1910.17" depart="48.00" departLane="-138000461_0" departPos="135.26" departSpeed="0.00" departDelay="17.09" arrival="73.00" arrivalLane="189240000#0-AddedOnRampEdge_0" arrivalPos="47.80" arrivalSpeed="13.36" duration="25.00" routeLength="171.65" waitingTime="0.00" waitingCount="0" stopTime="0.00" timeLoss="14.05" rerouteNo="0" devices="tripinfo_flow_route_127_duration_20250327_1910.17" vType="car" speedFactor="1.18" vaporized=""/>
    <tripinfo id="flow_route_127_duration_20250327_1910.21" depart="50.00" departLane="-138000461_0" departPos="172.58" departSpeed="0.00" departDelay="11.82" arrival="73.00" arrivalLane="189240000#0-AddedOnRampEdge_0" arrivalPos="71.88" arrivalSpeed="14.41" duration="23.00" routeLength="158.41" waitingTime="0.00" waitingCount="0" stopTime="0.00" timeLoss="12.88" rerouteNo="0" devices="tripinfo_flow_route_127_duration_20250327_1910.21" vType="car" speedFactor="1.14" vaporized=""/>
    <tripinfo id="flow_route_121_duration_20250327_1910.11" depart="27.00" departLane="799091563#0_0" departPos="337.11" departSpeed="0.00" departDelay="12.01" arrival="74.00" arrivalLane="134194079#0_0" arrivalPos="162.04" arrivalSpeed="16.23" duration="47.00" routeLength="214.09" waitingTime="13.00" waitingCount="1" stopTime="0.00" timeLoss="32.35" rerouteNo="0" devices="tripinfo_flow_route_121_duration_20250327_1910.11" vType="car" speedFactor="1.02" vaporized=""/>
    <tripinfo id="flow_route_121_duration_20250327_1910.2" depart="4.00" departLane="799091563#0_0" departPos="47.61" departSpeed="0.00" departDelay="1.27" arrival="75.00" arrivalLane="134194079#0_0" arrivalPos="69.84" arrivalSpeed="11.22" duration="71.00" routeLength="411.39" waitingTime="11.00" waitingCount="1" stopTime="0.00" timeLoss="42.96" rerouteNo="0" devices="tripinfo_flow_route_121_duration_20250327_1910.2" vType="car" speedFactor="0.93" vaporized=""/>
    <tripinfo id="flow_route_127_duration_20250327_1910.13" depart="33.00" departLane="-138000461_0" departPos="9.11" departSpeed="0.00" departDelay="9.37" arrival="75.00" arrivalLane="189240000#0-AddedOnRampEdge_0" arrivalPos="17.75" arrivalSpeed="9.60" duration="42.00" routeLength="267.75" waitingTime="0.00" waitingCount="0" stopTime="0.00" timeLoss="23.50" rerouteNo="0" devices="tripinfo_flow_route_127_duration_20250327_1910.13" vType="car" speedFactor="0.89" vaporized=""/>
    <tripinfo id="flow_route_132_duration_20250327_1910.13" depart="32.00" departLane="714011134#0_0" departPos="63.69" departSpeed="0.00" departDelay="17.01" arrival="76.00" arrivalLane="189240000#0-AddedOnRampEdge_1" arrivalPos="92.61" arrivalSpeed="16.12" duration="44.00" routeLength="445.07" waitingTime="0.00" waitingCount="0" stopTime="0.00" timeLoss="17.03" rerouteNo="0" devices="tripinfo_flow_route_132_duration_20250327_1910.13" vType="car" speedFactor="1.08" vaporized=""/>
    <tripinfo id="flow_route_120_duration_20250327_1910.0" depart="0.00" departLane="799091563#0_0" departPos="177.01" departSpeed="0.00" departDelay="0.00" arrival="79.00" arrivalLane="138000492#0_1" arrivalPos="19.14" arrivalSpeed="10.05" duration="79.00" routeLength="440.29" waitingTime="20.00" waitingCount="2" stopTime="0.00" timeLoss="52.28" rerouteNo="0" devices="tripinfo_flow_route_120_duration_20250327_1910.0" vType="car" speedFactor="1.01" vaporized=""/>
    <tripinfo id="flow_route_122_duration_20250327_1910.4" depart="35.00" departLane="799091563#0_0" departPos="42.71" departSpeed="0.00" departDelay="16.54" arrival="81.00" arrivalLane="688883939#0_2" arrivalPos="46.87" arrivalSpeed="13.41" duration="46.00" routeLength="442.80" waitingTime="0.00" waitingCount="0" stopTime="0.00" timeLoss="17.99" rerouteNo="0" devices="tripinfo_flow_route_122_duration_20250327_1910.4" vType="car" speedFactor="0.97" vaporized=""/>
    <tripinfo id="flow_route_127_duration_20250327_1910.22" depart="53.00" departLane="-138000461_0" departPos="99.59" departSpeed="0.00" departDelay="13.00" arrival="81.00" arrivalLane="189240000#0-AddedOnRampEdge_0" arrivalPos="19.76" arrivalSpeed="10.19" duration="28.00" routeLength="179.28" waitingTime="0.00" waitingCount="0" stopTime="0.00" timeLoss="16.66" rerouteNo="0" devices="tripinfo_flow_route_127_duration_20250327_1910.22" vType="car" speedFactor="1.00" vaporized=""/>
    <tripinfo id="flow_route_117_duration_20250327_1910.0" depart="0.00" departLane="177211987#1_0" departPos="98.51" departSpeed="0.00" departDelay="0.00" arrival="82.00" arrivalLane="138000492#0_0" arrivalPos="299.85" arrivalSpeed="15.22" duration="82.00" routeLength="701.60" waitingTime="5.00" waitingCount="1" stopTime="0.00" timeLoss="36.24" rerouteNo="0" devices="tripinfo_flow_route_117_duration_20250327_1910.0" vType="car" speedFactor="0.94" vaporized=""/>
    <tripinfo id="flow_route_121_duration_20250327_1910.14" depart="37.00" departLane="799091563#0_0" departPos="229.11" departSpeed="0.00" departDelay="17.92" arrival="83.00" arrivalLane="134194079#0_0" arrivalPos="67.19" arrivalSpeed="12.08" duration="46.00" routeLength="227.24" waitingTime="0.00" waitingCount="0" stopTime="0.00" timeLoss="30.36" rerouteNo="0" devices="tripinfo_flow_route_121_duration_20250327_1910.14" vType="car" speedFactor="0.98" vaporized=""/>
    <tripinfo id="flow_route_127_duration_20250327_1910.24" depart="61.00" departLane="-138000461_0" departPos="157.28" departSpeed="0.00" departDelay="17.37" arrival="85.00" arrivalLane="189240000#0-AddedOnRampEdge_0" arrivalPos="87.27" arrivalSpeed="14.23" duration="24.00" routeLength="189.10" waitingTime="0.00" waitingCount="0" stopTime="0.00" timeLoss="10.82" rerouteNo="0" devices="tripinfo_flow_route_127_duration_20250327_1910.24" vType="car" speedFactor="0.91" vaporized=""/>