<?xml version="1.0" encoding="UTF-8"?>

<!-- generated on 2025-05-06 21:08:58 by Eclipse SUMO sumo Version 1.20.0
<configuration xmlns:xsi="http://www.w3.org/2001/XMLSchema-instance" xsi:noNamespaceSchemaLocation="http://sumo.dlr.de/xsd/sumoConfiguration.xsd">

    <input>
        <net-file value="osm.net.xml"/>
        <route-files value="xml/route_static_cluster3828547534_cluster_1507433914_2954854770_2954854771_2954854772_#9more_7.rou.xml"/>
    </input>

    <output>
        <tripinfo-output value="xml/tripinfo_static_cluster3828547534_cluster_1507433914_2954854770_2954854771_2954854772_#9more_7.xml"/>
    </output>

    <traci_server>
        <remote-port value="58629"/>
    </traci_server>

</configuration>
-->

<tripinfos xmlns:xsi="http://www.w3.org/2001/XMLSchema-instance" xsi:noNamespaceSchemaLocation="http://sumo.dlr.de/xsd/tripinfo_file.xsd">
    <tripinfo id="flow_route_6_duration_20250327_2140.0" depart="0.00" departLane="1252820505#0_0" departPos="39.30" departSpeed="0.00" departDelay="0.00" arrival="18.00" arrivalLane="379698350#0_0" arrivalPos="9.38" arrivalSpeed="14.40" duration="18.00" routeLength="129.45" waitingTime="0.00" waitingCount="0" stopTime="0.00" timeLoss="9.81" rerouteNo="0" devices="tripinfo_flow_route_6_duration_20250327_2140.0" vType="car" speedFactor="1.01" vaporized=""/>
    <tripinfo id="flow_route_22_duration_20250327_2140.0" depart="0.00" departLane="137415945#0_0" departPos="8.70" departSpeed="0.00" departDelay="0.00" arrival="25.00" arrivalLane="1342054204_0" arrivalPos="47.56" arrivalSpeed="15.23" duration="25.00" routeLength="232.19" waitingTime="0.00" waitingCount="0" stopTime="0.00" timeLoss="9.35" rerouteNo="0" devices="tripinfo_flow_route_22_duration_20250327_2140.0" vType="car" speedFactor="0.94" vaporized=""/>
    <tripinfo id="flow_route_24_duration_20250327_2140.0" depart="5.00" departLane="137415945#0_0" departPos="5.05" departSpeed="0.00" departDelay="5.00" arrival="26.00" arrivalLane="137406408#0_0" arrivalPos="0.56" arrivalSpeed="15.98" duration="21.00" routeLength="164.51" waitingTime="0.00" waitingCount="0" stopTime="0.00" timeLoss="10.29" rerouteNo="0" devices="tripinfo_flow_route_24_duration_20250327_2140.0" vType="car" speedFactor="1.09" vaporized=""/>
    <tripinfo id="flow_route_10_duration_20250327_2140.0" depart="0.00" departLane="1252820505#0_0" departPos="5.24" departSpeed="0.00" departDelay="0.00" arrival="28.00" arrivalLane="1235147073.116_0" arrivalPos="0.67" arrivalSpeed="13.73" duration="28.00" routeLength="263.17" waitingTime="0.00" waitingCount="0" stopTime="0.00" timeLoss="8.26" rerouteNo="0" devices="tripinfo_flow_route_10_duration_20250327_2140.0" vType="car" speedFactor="0.83" vaporized=""/>
    <tripinfo id="flow_route_8_duration_20250327_2140.0" depart="0.00" departLane="133000078#0_0" departPos="54.62" departSpeed="0.00" departDelay="0.00" arrival="33.00" arrivalLane="1235147073.116_0" arrivalPos="9.03" arrivalSpeed="16.58" duration="33.00" routeLength="314.60" waitingTime="0.00" waitingCount="0" stopTime="0.00" timeLoss="12.87" rerouteNo="0" devices="tripinfo_flow_route_8_duration_20250327_2140.0" vType="car" speedFactor="1.03" vaporized=""/>
    <tripinfo id="flow_route_11_duration_20250327_2140.0" depart="0.00" departLane="1252820505#0_0" departPos="76.11" departSpeed="0.00" departDelay="0.00" arrival="38.00" arrivalLane="137406408#0_2" arrivalPos="68.60" arrivalSpeed="12.52" duration="38.00" routeLength="154.08" waitingTime="8.00" waitingCount="1" stopTime="0.00" timeLoss="28.29" rerouteNo="0" devices="tripinfo_flow_route_11_duration_20250327_2140.0" vType="car" speedFactor="1.05" vaporized=""/>
    <tripinfo id="flow_route_10_duration_20250327_2140.1" depart="12.00" departLane="1252820505#0_0" departPos="14.60" departSpeed="0.00" departDelay="0.00" arrival="39.00" arrivalLane="1235147073.116_0" arrivalPos="6.30" arrivalSpeed="15.22" duration="27.00" routeLength="259.44" waitingTime="0.00" waitingCount="0" stopTime="0.00" timeLoss="10.19" rerouteNo="0" devices="tripinfo_flow_route_10_duration_20250327_2140.1" vType="car" speedFactor="0.93" vaporized=""/>
    <tripinfo id="flow_route_8_duration_20250327_2140.1" depart="12.00" departLane="133000078#0_0" departPos="46.07" departSpeed="0.00" departDelay="0.00" arrival="46.00" arrivalLane="1235147073.116_0" arrivalPos="1.92" arrivalSpeed="16.38" duration="34.00" routeLength="316.03" waitingTime="0.00" waitingCount="0" stopTime="0.00" timeLoss="13.77" rerouteNo="0" devices="tripinfo_flow_route_8_duration_20250327_2140.1" vType="car" speedFactor="0.99" vaporized=""/>
    <tripinfo id="flow_route_5_duration_20250327_2140.1" depart="30.00" departLane="291974733#0_0" departPos="39.66" departSpeed="0.00" departDelay="0.00" arrival="54.00" arrivalLane="1342054204_0" arrivalPos="4.09" arrivalSpeed="9.77" duration="24.00" routeLength="102.68" waitingTime="0.00" waitingCount="0" stopTime="0.00" timeLoss="15.76" rerouteNo="0" devices="tripinfo_flow_route_5_duration_20250327_2140.1" vType="car" speedFactor="0.87" vaporized=""/>
    <tripinfo id="flow_route_5_duration_20250327_2140.0" depart="0.00" departLane="291974733#0_0" departPos="43.68" departSpeed="0.00" departDelay="0.00" arrival="57.00" arrivalLane="1342054204_0" arrivalPos="62.15" arrivalSpeed="13.42" duration="57.00" routeLength="156.72" waitingTime="28.00" waitingCount="1" stopTime="0.00" timeLoss="45.47" rerouteNo="0" devices="tripinfo_flow_route_5_duration_20250327_2140.0" vType="car" speedFactor="0.94" vaporized=""/>
    <tripinfo id="flow_route_8_duration_20250327_2140.3" depart="37.00" departLane="133000078#0_0" departPos="200.59" departSpeed="0.00" departDelay="1.00" arrival="57.00" arrivalLane="1235147073.116_0" arrivalPos="14.16" arrivalSpeed="16.25" duration="20.00" routeLength="173.75" waitingTime="0.00" waitingCount="0" stopTime="0.00" timeLoss="8.62" rerouteNo="0" devices="tripinfo_flow_route_8_duration_20250327_2140.3" vType="car" speedFactor="1.01" vaporized=""/>
    <tripinfo id="flow_route_23_duration_20250327_2140.1" depart="32.00" departLane="137415945#0_0" departPos="5.31" departSpeed="0.00" departDelay="17.00" arrival="58.00" arrivalLane="379698350#0_2" arrivalPos="18.36" arrivalSpeed="11.87" duration="26.00" routeLength="205.40" waitingTime="0.00" waitingCount="0" stopTime="0.00" timeLoss="12.02" rerouteNo="0" devices="tripinfo_flow_route_23_duration_20250327_2140.1" vType="car" speedFactor="0.94" vaporized=""/>
    <tripinfo id="flow_route_8_duration_20250327_2140.2" depart="24.00" departLane="133000078#0_0" departPos="13.83" departSpeed="0.00" departDelay="0.00" arrival="62.00" arrivalLane="1235147073.116_0" arrivalPos="0.43" arrivalSpeed="16.18" duration="38.00" routeLength="346.78" waitingTime="0.00" waitingCount="0" stopTime="0.00" timeLoss="15.67" rerouteNo="0" devices="tripinfo_flow_route_8_duration_20250327_2140.2" vType="car" speedFactor="1.01" vaporized=""/>
    <tripinfo id="flow_route_23_duration_20250327_2140.0" depart="0.00" departLane="137415945#0_0" departPos="0.59" departSpeed="0.00" departDelay="0.00" arrival="64.00" arrivalLane="379698350#0_2" arrivalPos="153.67" arrivalSpeed="14.05" duration="64.00" routeLength="345.44" waitingTime="19.00" waitingCount="1" stopTime="0.00" timeLoss="38.54" rerouteNo="0" devices="tripinfo_flow_route_23_duration_20250327_2140.0" vType="car" speedFactor="0.86" vaporized=""/>
    <tripinfo id="flow_route_6_duration_20250327_2140.1" depart="30.00" departLane="1252820505#0_0" departPos="53.47" departSpeed="0.00" departDelay="0.00" arrival="64.00" arrivalLane="379698350#0_0" arrivalPos="16.50" arrivalSpeed="11.95" duration="34.00" routeLength="122.40" waitingTime="7.00" waitingCount="1" stopTime="0.00" timeLoss="25.28" rerouteNo="0" devices="tripinfo_flow_route_6_duration_20250327_2140.1" vType="car" speedFactor="0.92" vaporized=""/>
    <tripinfo id="flow_route_4_duration_20250327_2140.0" depart="0.00" departLane="291974733#0_0" departPos="63.06" departSpeed="0.00" departDelay="0.00" arrival="66.00" arrivalLane="379698350#0_0" arrivalPos="183.76" arrivalSpeed="16.29" duration="66.00" routeLength="311.60" waitingTime="28.00" waitingCount="1" stopTime="0.00" timeLoss="46.65" rerouteNo="0" devices="tripinfo_flow_route_4_duration_20250327_2140.0" vType="car" speedFactor="1.06" vaporized=""/>
    <tripinfo id="flow_route_23_duration_20250327_2140.2" depart="53.00" departLane="137415945#0_0" departPos="1.31" departSpeed="0.00" departDelay="23.00" arrival="79.00" arrivalLane="379698350#0_2" arrivalPos="43.80" arrivalSpeed="16.30" duration="26.00" routeLength="234.84" waitingTime="0.00" waitingCount="0" stopTime="0.00" timeLoss="10.96" rerouteNo="0" devices="tripinfo_flow_route_23_duration_20250327_2140.2" vType="car" speedFactor="1.18" vaporized=""/>
    <tripinfo id="flow_route_8_duration_20250327_2140.4" depart="48.00" departLane="133000078#0_0" departPos="71.14" departSpeed="0.00" departDelay="0.00" arrival="84.00" arrivalLane="1235147073.116_0" arrivalPos="10.34" arrivalSpeed="14.79" duration="36.00" routeLength="299.38" waitingTime="0.00" waitingCount="0" stopTime="0.00" timeLoss="15.15" rerouteNo="0" devices="tripinfo_flow_route_8_duration_20250327_2140.4" vType="car" speedFactor="0.90" vaporized=""/>
    <tripinfo id="flow_route_12_duration_20250327_2140.0" depart="0.00" departLane="133000078#0_0" departPos="66.48" departSpeed="0.00" departDelay="0.00" arrival="91.00" arrivalLane="1342054204_3" arrivalPos="21.59" arrivalSpeed="12.88" duration="91.00" routeLength="252.91" waitingTime="53.00" waitingCount="1" stopTime="0.00" timeLoss="73.87" rerouteNo="0" devices="tripinfo_flow_route_12_duration_20250327_2140.0" vType="car" speedFactor="0.89" vaporized=""/>
    <tripinfo id="flow_route_12_duration_20250327_2140.1" depart="10.00" departLane="133000078#0_0" departPos="141.45" departSpeed="0.00" departDelay="0.00" arrival="93.00" arrivalLane="1342054204_3" arrivalPos="13.88" arrivalSpeed="13.34" duration="83.00" routeLength="170.23" waitingTime="50.00" waitingCount="1" stopTime="0.00" timeLoss="72.05" rerouteNo="0" devices="tripinfo_flow_route_12_duration_20250327_2140.1" vType="car" speedFactor="1.05" vaporized=""/>
    <tripinfo id="flow_route_7_duration_20250327_2140.0" depart="0.00" departLane="133000078#0_0" departPos="116.92" departSpeed="0.00" departDelay="0.00" arrival="94.00" arrivalLane="137406408#0_1" arrivalPos="45.36" arrivalSpeed="15.24" duration="94.00" routeLength="233.24" waitingTime="56.00" waitingCount="1" stopTime="0.00" timeLoss="79.52" rerouteNo="0" devices="tripinfo_flow_route_7_duration_20250327_2140.0" vType="car" speedFactor="1.08" vaporized=""/>
    <tripinfo id="flow_route_12_duration_20250327_2140.2" depart="20.00" departLane="133000078#0_0" departPos="34.77" departSpeed="0.00" departDelay="0.00" arrival="96.00" arrivalLane="1342054204_3" arrivalPos="26.85" arrivalSpeed="13.20" duration="76.00" routeLength="289.88" waitingTime="33.00" waitingCount="1" stopTime="0.00" timeLoss="58.32" rerouteNo="0" devices="tripinfo_flow_route_12_duration_20250327_2140.2" vType="car" speedFactor="1.16" vaporized=""/>
    <tripinfo id="flow_route_12_duration_20250327_2140.3" depart="30.00" departLane="133000078#0_0" departPos="105.89" departSpeed="0.00" departDelay="0.00" arrival="98.00" arrivalLane="1342054204_3" arrivalPos="30.69" arrivalSpeed="13.44" duration="68.00" routeLength="222.60" waitingTime="32.00" waitingCount="1" stopTime="0.00" timeLoss="54.36" rerouteNo="0" devices="tripinfo_flow_route_12_duration_20250327_2140.3" vType="car" speedFactor="1.13" vaporized=""/>
    <tripinfo id="flow_route_12_duration_20250327_2140.4" depart="40.00" departLane="133000078#0_0" departPos="161.26" departSpeed="0.00" departDelay="0.00" arrival="98.00" arrivalLane="1342054204_3" arrivalPos="8.86" arrivalSpeed="12.70" duration="58.00" routeLength="145.39" waitingTime="30.00" waitingCount="1" stopTime="0.00" timeLoss="49.04" rerouteNo="0" devices="tripinfo_flow_route_12_duration_20250327_2140.4" vType="car" speedFactor="1.02" vaporized=""/>
    <tripinfo id="flow_route_12_duration_20250327_2140.5" depart="50.00" departLane="133000078#0_0" departPos="140.58" departSpeed="0.00" departDelay="0.00" arrival="105.00" arrivalLane="1342054204_3" arrivalPos="51.39" arrivalSpeed="15.78" duration="55.00" routeLength="208.60" waitingTime="19.00" waitingCount="1" stopTime="0.00" timeLoss="41.54" rerouteNo="0" devices="tripinfo_flow_route_12_duration_20250327_2140.5" vType="car" speedFactor="1.09" vaporized=""/>
    <tripinfo id="flow_route_22_duration_20250327_2140.1" depart="10.00" departLane="137415945#0_0" departPos="0.38" departSpeed="0.00" departDelay="5.00" arrival="144.00" arrivalLane="1342054204_0" arrivalPos="77.43" arrivalSpeed="15.13" duration="134.00" routeLength="270.38" waitingTime="93.00" waitingCount="1" stopTime="0.00" timeLoss="116.97" rerouteNo="0" devices="tripinfo_flow_route_22_duration_20250327_2140.1" vType="car" speedFactor="1.03" vaporized=""/>
    <tripinfo id="flow_route_22_duration_20250327_2140.2" depart="17.00" departLane="137415945#0_0" departPos="7.59" departSpeed="0.00" departDelay="7.00" arrival="144.00" arrivalLane="1342054204_1" arrivalPos="83.44" arrivalSpeed="14.10" duration="127.00" routeLength="269.18" waitingTime="87.00" waitingCount="1" stopTime="0.00" timeLoss="110.78" rerouteNo="0" devices="tripinfo_flow_route_22_duration_20250327_2140.2" vType="car" speedFactor="1.12" vaporized=""/>
    <tripinfo id="flow_route_24_duration_20250327_2140.1" depart="22.00" departLane="137415945#0_0" departPos="2.33" departSpeed="0.00" departDelay="10.00" arrival="144.00" arrivalLane="137406408#0_0" arrivalPos="89.03" arrivalSpeed="14.41" duration="122.00" routeLength="255.69" waitingTime="83.00" waitingCount="1" stopTime="0.00" timeLoss="103.92" rerouteNo="0" devices="tripinfo_flow_route_24_duration_20250327_2140.1" vType="car" speedFactor="0.88" vaporized=""/>
    <tripinfo id="flow_route_22_duration_20250327_2140.4" depart="35.00" departLane="137415945#0_0" departPos="11.15" departSpeed="0.00" departDelay="15.00" arrival="144.00" arrivalLane="1342054204_0" arrivalPos="42.97" arrivalSpeed="13.55" duration="109.00" routeLength="225.15" waitingTime="74.00" waitingCount="1" stopTime="0.00" timeLoss="95.33" rerouteNo="0" devices="tripinfo_flow_route_22_duration_20250327_2140.4" vType="car" speedFactor="1.02" vaporized=""/>
    <tripinfo id="flow_route_22_duration_20250327_2140.3" depart="27.00" departLane="137415945#0_0" departPos="1.09" departSpeed="0.00" departDelay="12.00" arrival="145.00" arrivalLane="1342054204_1" arrivalPos="70.80" arrivalSpeed="14.11" duration="118.00" routeLength="263.04" waitingTime="78.00" waitingCount="1" stopTime="0.00" timeLoss="101.13" rerouteNo="0" devices="tripinfo_flow_route_22_duration_20250327_2140.3" vType="car" speedFactor="0.94" vaporized=""/>
    <tripinfo id="flow_route_24_duration_20250327_2140.2" depart="38.00" departLane="137415945#0_0" departPos="5.23" departSpeed="0.00" departDelay="14.00" arrival="145.00" arrivalLane="137406408#0_0" arrivalPos="50.47" arrivalSpeed="12.80" duration="107.00" routeLength="214.23" waitingTime="72.00" waitingCount="1" stopTime="0.00" timeLoss="92.28" rerouteNo="0" devices="tripinfo_flow_route_24_duration_20250327_2140.2" vType="car" speedFactor="0.89" vaporized=""/>
    <tripinfo id="flow_route_10_duration_20250327_2140.2" depart="24.00" departLane="1252820505#0_0" departPos="15.56" departSpeed="0.00" departDelay="0.00" arrival="146.00" arrivalLane="1235147073.116_1" arrivalPos="4.27" arrivalSpeed="16.17" duration="122.00" routeLength="256.45" waitingTime="85.00" waitingCount="1" stopTime="0.00" timeLoss="106.11" rerouteNo="0" devices="tripinfo_flow_route_10_duration_20250327_2140.2" vType="car" speedFactor="0.97" vaporized=""/>
    <tripinfo id="flow_route_22_duration_20250327_2140.6" depart="48.00" departLane="137415945#0_0" departPos="1.95" departSpeed="0.00" departDelay="18.00" arrival="146.00" arrivalLane="1342054204_1" arrivalPos="25.30" arrivalSpeed="12.89" duration="98.00" routeLength="216.68" waitingTime="60.00" waitingCount="1" stopTime="0.00" timeLoss="83.69" rerouteNo="0" devices="tripinfo_flow_route_22_duration_20250327_2140.6" vType="car" speedFactor="0.93" vaporized=""/>
    <tripinfo id="flow_route_22_duration_20250327_2140.7" depart="56.00" departLane="137415945#0_0" departPos="6.99" departSpeed="0.00" departDelay="21.00" arrival="146.00" arrivalLane="1342054204_0" arrivalPos="9.13" arrivalSpeed="12.74" duration="90.00" routeLength="195.47" waitingTime="56.00" waitingCount="1" stopTime="0.00" timeLoss="77.95" rerouteNo="0" devices="tripinfo_flow_route_22_duration_20250327_2140.7" vType="car" speedFactor="1.15" vaporized=""/>
    <tripinfo id="flow_route_10_duration_20250327_2140.3" depart="37.00" departLane="1252820505#0_0" departPos="25.76" departSpeed="0.00" departDelay="1.00" arrival="147.00" arrivalLane="1235147073.116_0" arrivalPos="7.54" arrivalSpeed="15.88" duration="110.00" routeLength="249.53" waitingTime="70.00" waitingCount="1" stopTime="0.00" timeLoss="94.93" rerouteNo="0" devices="tripinfo_flow_route_10_duration_20250327_2140.3" vType="car" speedFactor="1.17" vaporized=""/>
    <tripinfo id="flow_route_10_duration_20250327_2140.4" depart="48.00" departLane="1252820505#0_0" departPos="57.65" departSpeed="0.00" departDelay="0.00" arrival="147.00" arrivalLane="1235147073.116_1" arrivalPos="14.98" arrivalSpeed="16.58" duration="99.00" routeLength="225.06" waitingTime="67.00" waitingCount="1" stopTime="0.00" timeLoss="84.54" rerouteNo="0" devices="tripinfo_flow_route_10_duration_20250327_2140.4" vType="car" speedFactor="1.03" vaporized=""/>
    <tripinfo id="flow_route_22_duration_20250327_2140.5" depart="43.00" departLane="137415945#0_0" departPos="1.58" departSpeed="0.00" departDelay="18.00" arrival="148.00" arrivalLane="1342054204_1" arrivalPos="86.56" arrivalSpeed="13.54" duration="105.00" routeLength="278.30" waitingTime="65.00" waitingCount="1" stopTime="0.00" timeLoss="84.54" rerouteNo="0" devices="tripinfo_flow_route_22_duration_20250327_2140.5" vType="car" speedFactor="0.83" vaporized=""/>
    <tripinfo id="flow_route_24_duration_20250327_2140.3" depart="61.00" departLane="137415945#0_0" departPos="2.13" departSpeed="0.00" departDelay="25.00" arrival="149.00" arrivalLane="137406408#0_0" arrivalPos="39.24" arrivalSpeed="12.90" duration="88.00" routeLength="206.10" waitingTime="51.00" waitingCount="1" stopTime="0.00" timeLoss="74.84" rerouteNo="0" devices="tripinfo_flow_route_24_duration_20250327_2140.3" vType="car" speedFactor="0.99" vaporized=""/>
    <tripinfo id="flow_route_22_duration_20250327_2140.8" depart="65.00" departLane="137415945#0_0" departPos="0.01" departSpeed="0.00" departDelay="25.00" arrival="149.00" arrivalLane="1342054204_1" arrivalPos="40.68" arrivalSpeed="14.96" duration="84.00" routeLength="234.00" waitingTime="45.00" waitingCount="1" stopTime="0.00" timeLoss="68.91" rerouteNo="0" devices="tripinfo_flow_route_22_duration_20250327_2140.8" vType="car" speedFactor="0.97" vaporized=""/>
    <tripinfo id="flow_route_22_duration_20250327_2140.10" depart="84.00" departLane="137415945#0_0" departPos="5.66" departSpeed="0.00" departDelay="34.00" arrival="152.00" arrivalLane="1342054204_1" arrivalPos="24.19" arrivalSpeed="14.47" duration="68.00" routeLength="211.86" waitingTime="31.00" waitingCount="1" stopTime="0.00" timeLoss="54.47" rerouteNo="0" devices="tripinfo_flow_route_22_duration_20250327_2140.10" vType="car" speedFactor="1.04" vaporized=""/>
    <tripinfo id="flow_route_22_duration_20250327_2140.9" depart="71.00" departLane="137415945#0_0" departPos="1.46" departSpeed="0.00" departDelay="26.00" arrival="153.00" arrivalLane="1342054204_1" arrivalPos="76.94" arrivalSpeed="16.22" duration="82.00" routeLength="268.81" waitingTime="39.00" waitingCount="1" stopTime="0.00" timeLoss="65.33" rerouteNo="0" devices="tripinfo_flow_route_22_duration_20250327_2140.9" vType="car" speedFactor="1.18" vaporized=""/>
    <tripinfo id="flow_route_24_duration_20250327_2140.4" depart="79.00" departLane="137415945#0_0" departPos="4.24" departSpeed="0.00" departDelay="31.00" arrival="153.00" arrivalLane="137406408#0_0" arrivalPos="78.04" arrivalSpeed="15.65" duration="74.00" routeLength="242.80" waitingTime="35.00" waitingCount="1" stopTime="0.00" timeLoss="58.19" rerouteNo="0" devices="tripinfo_flow_route_24_duration_20250327_2140.4" vType="car" speedFactor="0.96" vaporized=""/>
    <tripinfo id="flow_route_22_duration_20250327_2140.11" depart="88.00" departLane="137415945#0_0" departPos="1.65" departSpeed="0.00" departDelay="33.00" arrival="156.00" arrivalLane="1342054204_0" arrivalPos="71.62" arrivalSpeed="16.12" duration="68.00" routeLength="263.31" waitingTime="29.00" waitingCount="1" stopTime="0.00" timeLoss="51.30" rerouteNo="0" devices="tripinfo_flow_route_22_duration_20250327_2140.11" vType="car" speedFactor="1.04" vaporized=""/>
    <tripinfo id="flow_route_11_duration_20250327_2140.1" depart="32.00" departLane="1252820505#0_0" departPos="84.91" departSpeed="0.00" departDelay="2.00" arrival="165.00" arrivalLane="137406408#0_2" arrivalPos="66.63" arrivalSpeed="12.23" duration="133.00" routeLength="143.30" waitingTime="103.00" waitingCount="2" stopTime="0.00" timeLoss="123.46" rerouteNo="0" devices="tripinfo_flow_route_11_duration_20250327_2140.1" vType="car" speedFactor="0.95" vaporized=""/>
    <tripinfo id="flow_route_23_duration_20250327_2140.3" depart="72.00" departLane="137415945#0_0" departPos="10.43" departSpeed="0.00" departDelay="27.00" arrival="185.00" arrivalLane="379698350#0_2" arrivalPos="76.64" arrivalSpeed="14.59" duration="113.00" routeLength="258.56" waitingTime="72.00" waitingCount="1" stopTime="0.00" timeLoss="96.63" rerouteNo="0" devices="tripinfo_flow_route_23_duration_20250327_2140.3" vType="car" speedFactor="1.10" vaporized=""/>
</tripinfos>
