<?xml version="1.0" encoding="UTF-8"?>

<!-- generated on 2025-05-06 21:08:46 by Eclipse SUMO sumo Version 1.20.0
<configuration xmlns:xsi="http://www.w3.org/2001/XMLSchema-instance" xsi:noNamespaceSchemaLocation="http://sumo.dlr.de/xsd/sumoConfiguration.xsd">

    <input>
        <net-file value="osm.net.xml"/>
        <route-files value="xml/route_static_cluster_4110471701_632031939_6.rou.xml"/>
    </input>

    <output>
        <tripinfo-output value="xml/tripinfo_static_cluster_4110471701_632031939_6.xml"/>
    </output>

    <traci_server>
        <remote-port value="34521"/>
    </traci_server>

</configuration>
-->

<tripinfos xmlns:xsi="http://www.w3.org/2001/XMLSchema-instance" xsi:noNamespaceSchemaLocation="http://sumo.dlr.de/xsd/tripinfo_file.xsd">
    <tripinfo id="flow_route_83_duration_20250327_2210.0" depart="0.00" departLane="423956929_0" departPos="101.16" departSpeed="0.00" departDelay="0.00" arrival="17.00" arrivalLane="186407685_0" arrivalPos="8.05" arrivalSpeed="6.86" duration="17.00" routeLength="101.45" waitingTime="0.00" waitingCount="0" stopTime="0.00" timeLoss="10.18" rerouteNo="0" devices="tripinfo_flow_route_83_duration_20250327_2210.0" vType="car" speedFactor="1.01" vaporized=""/>
    <tripinfo id="flow_route_62_duration_20250327_2210.0" depart="0.00" departLane="409155823_0" departPos="65.43" departSpeed="0.00" departDelay="0.00" arrival="23.00" arrivalLane="1091883842_0" arrivalPos="165.47" arrivalSpeed="16.16" duration="23.00" routeLength="205.45" waitingTime="0.00" waitingCount="0" stopTime="0.00" timeLoss="10.53" rerouteNo="0" devices="tripinfo_flow_route_62_duration_20250327_2210.0" vType="car" speedFactor="1.06" vaporized=""/>
    <tripinfo id="flow_route_82_duration_20250327_2210.0" depart="0.00" departLane="423956929_0" departPos="45.92" departSpeed="0.00" departDelay="0.00" arrival="24.00" arrivalLane="186407684#0_0" arrivalPos="62.79" arrivalSpeed="15.18" duration="24.00" routeLength="219.95" waitingTime="0.00" waitingCount="0" stopTime="0.00" timeLoss="8.99" rerouteNo="0" devices="tripinfo_flow_route_82_duration_20250327_2210.0" vType="car" speedFactor="0.94" vaporized=""/>
    <tripinfo id="flow_route_62_duration_20250327_2210.1" depart="9.00" departLane="409155823_0" departPos="60.18" departSpeed="0.00" departDelay="0.43" arrival="26.00" arrivalLane="1091883842_0" arrivalPos="59.79" arrivalSpeed="12.97" duration="17.00" routeLength="105.02" waitingTime="0.00" waitingCount="0" stopTime="0.00" timeLoss="9.09" rerouteNo="0" devices="tripinfo_flow_route_62_duration_20250327_2210.1" vType="car" speedFactor="0.86" vaporized=""/>
    <tripinfo id="flow_route_87_duration_20250327_2210.1" depart="12.00" departLane="430416184_0" departPos="183.20" departSpeed="0.00" departDelay="0.00" arrival="39.00" arrivalLane="1091883842_0" arrivalPos="57.02" arrivalSpeed="11.71" duration="27.00" routeLength="174.28" waitingTime="0.00" waitingCount="0" stopTime="0.00" timeLoss="15.11" rerouteNo="0" devices="tripinfo_flow_route_87_duration_20250327_2210.1" vType="car" speedFactor="1.03" vaporized=""/>
    <tripinfo id="flow_route_88_duration_20250327_2210.2" depart="8.00" departLane="430416184_0" departPos="253.21" departSpeed="0.00" departDelay="0.94" arrival="44.00" arrivalLane="186407684#0_1" arrivalPos="23.31" arrivalSpeed="9.43" duration="36.00" routeLength="87.73" waitingTime="13.00" waitingCount="2" stopTime="0.00" timeLoss="29.14" rerouteNo="0" devices="tripinfo_flow_route_88_duration_20250327_2210.2" vType="car" speedFactor="0.94" vaporized=""/>
    <tripinfo id="flow_route_86_duration_20250327_2210.0" depart="0.00" departLane="430416184_0" departPos="215.48" departSpeed="0.00" departDelay="0.00" arrival="48.00" arrivalLane="186407685_1" arrivalPos="87.02" arrivalSpeed="12.88" duration="48.00" routeLength="195.42" waitingTime="14.00" waitingCount="1" stopTime="0.00" timeLoss="36.03" rerouteNo="0" devices="tripinfo_flow_route_86_duration_20250327_2210.0" vType="car" speedFactor="1.08" vaporized=""/>
    <tripinfo id="flow_route_88_duration_20250327_2210.0" depart="0.00" departLane="430416184_0" departPos="194.63" departSpeed="0.00" departDelay="0.00" arrival="52.00" arrivalLane="186407684#0_1" arrivalPos="3.84" arrivalSpeed="8.72" duration="52.00" routeLength="126.85" waitingTime="15.00" waitingCount="3" stopTime="0.00" timeLoss="42.41" rerouteNo="0" devices="tripinfo_flow_route_88_duration_20250327_2210.0" vType="car" speedFactor="0.83" vaporized=""/>
    <tripinfo id="flow_route_88_duration_20250327_2210.9" depart="33.00" departLane="430416184_0" departPos="270.41" departSpeed="0.00" departDelay="1.24" arrival="53.00" arrivalLane="186407684#0_1" arrivalPos="63.06" arrivalSpeed="12.79" duration="20.00" routeLength="110.28" waitingTime="2.00" waitingCount="1" stopTime="0.00" timeLoss="11.51" rerouteNo="0" devices="tripinfo_flow_route_88_duration_20250327_2210.9" vType="car" speedFactor="0.89" vaporized=""/>
    <tripinfo id="flow_route_88_duration_20250327_2210.3" depart="11.00" departLane="430416184_0" departPos="148.34" departSpeed="0.00" departDelay="0.41" arrival="56.00" arrivalLane="186407684#0_1" arrivalPos="4.07" arrivalSpeed="10.19" duration="45.00" routeLength="173.36" waitingTime="7.00" waitingCount="2" stopTime="0.00" timeLoss="33.57" rerouteNo="0" devices="tripinfo_flow_route_88_duration_20250327_2210.3" vType="car" speedFactor="1.09" vaporized=""/>
    <tripinfo id="flow_route_86_duration_20250327_2210.2" depart="15.00" departLane="430416184_0" departPos="256.69" departSpeed="0.00" departDelay="0.00" arrival="56.00" arrivalLane="186407685_1" arrivalPos="166.28" arrivalSpeed="16.56" duration="41.00" routeLength="233.46" waitingTime="10.00" waitingCount="1" stopTime="0.00" timeLoss="26.53" rerouteNo="0" devices="tripinfo_flow_route_86_duration_20250327_2210.2" vType="car" speedFactor="1.05" vaporized=""/>
    <tripinfo id="flow_route_88_duration_20250327_2210.1" depart="4.00" departLane="430416184_0" departPos="130.75" departSpeed="0.00" departDelay="0.47" arrival="57.00" arrivalLane="186407684#0_1" arrivalPos="41.08" arrivalSpeed="11.89" duration="53.00" routeLength="227.97" waitingTime="9.00" waitingCount="2" stopTime="0.00" timeLoss="38.45" rerouteNo="0" devices="tripinfo_flow_route_88_duration_20250327_2210.1" vType="car" speedFactor="1.05" vaporized=""/>
    <tripinfo id="flow_route_87_duration_20250327_2210.0" depart="0.00" departLane="430416184_0" departPos="1.75" departSpeed="0.00" departDelay="0.00" arrival="58.00" arrivalLane="1091883842_0" arrivalPos="109.56" arrivalSpeed="13.88" duration="58.00" routeLength="408.27" waitingTime="0.00" waitingCount="0" stopTime="0.00" timeLoss="32.37" rerouteNo="0" devices="tripinfo_flow_route_87_duration_20250327_2210.0" vType="car" speedFactor="1.03" vaporized=""/>
    <tripinfo id="flow_route_88_duration_20250327_2210.4" depart="15.00" departLane="430416184_0" departPos="114.69" departSpeed="0.00" departDelay="0.88" arrival="64.00" arrivalLane="186407684#0_1" arrivalPos="72.65" arrivalSpeed="13.87" duration="49.00" routeLength="275.59" waitingTime="3.00" waitingCount="2" stopTime="0.00" timeLoss="31.70" rerouteNo="0" devices="tripinfo_flow_route_88_duration_20250327_2210.4" vType="car" speedFactor="1.12" vaporized=""/>
    <tripinfo id="flow_route_88_duration_20250327_2210.5" depart="18.00" departLane="430416184_0" departPos="87.27" departSpeed="0.00" departDelay="0.36" arrival="64.00" arrivalLane="186407684#0_1" arrivalPos="20.86" arrivalSpeed="11.14" duration="46.00" routeLength="251.23" waitingTime="0.00" waitingCount="0" stopTime="0.00" timeLoss="29.26" rerouteNo="0" devices="tripinfo_flow_route_88_duration_20250327_2210.5" vType="car" speedFactor="0.93" vaporized=""/>
    <tripinfo id="flow_route_86_duration_20250327_2210.1" depart="8.00" departLane="430416184_0" departPos="17.43" departSpeed="0.00" departDelay="0.50" arrival="68.00" arrivalLane="186407685_1" arrivalPos="100.27" arrivalSpeed="15.50" duration="60.00" routeLength="406.72" waitingTime="0.00" waitingCount="0" stopTime="0.00" timeLoss="35.34" rerouteNo="0" devices="tripinfo_flow_route_86_duration_20250327_2210.1" vType="car" speedFactor="0.89" vaporized=""/>
    <tripinfo id="flow_route_86_duration_20250327_2210.4" depart="32.00" departLane="430416184_0" departPos="172.42" departSpeed="0.00" departDelay="2.00" arrival="74.00" arrivalLane="186407685_1" arrivalPos="143.73" arrivalSpeed="16.35" duration="42.00" routeLength="295.18" waitingTime="0.00" waitingCount="0" stopTime="0.00" timeLoss="23.64" rerouteNo="0" devices="tripinfo_flow_route_86_duration_20250327_2210.4" vType="car" speedFactor="0.97" vaporized=""/>
    <tripinfo id="flow_route_62_duration_20250327_2210.5" depart="43.00" departLane="409155823_0" departPos="27.63" departSpeed="0.00" departDelay="0.15" arrival="79.00" arrivalLane="1091883842_2" arrivalPos="33.24" arrivalSpeed="9.49" duration="36.00" routeLength="111.02" waitingTime="9.00" waitingCount="1" stopTime="0.00" timeLoss="28.47" rerouteNo="0" devices="tripinfo_flow_route_62_duration_20250327_2210.5" vType="car" speedFactor="0.93" vaporized=""/>
    <tripinfo id="flow_route_62_duration_20250327_2210.6" depart="52.00" departLane="409155823_0" departPos="59.74" departSpeed="0.00" departDelay="0.57" arrival="82.00" arrivalLane="1091883842_1" arrivalPos="39.44" arrivalSpeed="10.06" duration="30.00" routeLength="85.10" waitingTime="9.00" waitingCount="1" stopTime="0.00" timeLoss="24.40" rerouteNo="0" devices="tripinfo_flow_route_62_duration_20250327_2210.6" vType="car" speedFactor="1.02" vaporized=""/>
    <tripinfo id="flow_route_87_duration_20250327_2210.4" depart="48.00" departLane="430416184_0" departPos="208.76" departSpeed="0.00" departDelay="0.00" arrival="84.00" arrivalLane="1091883842_0" arrivalPos="14.86" arrivalSpeed="5.96" duration="36.00" routeLength="106.55" waitingTime="8.00" waitingCount="1" stopTime="0.00" timeLoss="28.90" rerouteNo="0" devices="tripinfo_flow_route_87_duration_20250327_2210.4" vType="car" speedFactor="1.17" vaporized=""/>
    <tripinfo id="flow_route_62_duration_20250327_2210.2" depart="18.00" departLane="409155823_0" departPos="2.85" departSpeed="0.00" departDelay="0.86" arrival="85.00" arrivalLane="1091883842_0" arrivalPos="101.08" arrivalSpeed="13.68" duration="67.00" routeLength="203.64" waitingTime="33.00" waitingCount="1" stopTime="0.00" timeLoss="53.87" rerouteNo="0" devices="tripinfo_flow_route_62_duration_20250327_2210.2" vType="car" speedFactor="0.99" vaporized=""/>
    <tripinfo id="flow_route_62_duration_20250327_2210.3" depart="27.00" departLane="409155823_0" departPos="14.78" departSpeed="0.00" departDelay="1.29" arrival="90.00" arrivalLane="1091883842_1" arrivalPos="179.13" arrivalSpeed="16.33" duration="63.00" routeLength="269.75" waitingTime="25.00" waitingCount="1" stopTime="0.00" timeLoss="46.41" rerouteNo="0" devices="tripinfo_flow_route_62_duration_20250327_2210.3" vType="car" speedFactor="1.02" vaporized=""/>
    <tripinfo id="flow_route_62_duration_20250327_2210.4" depart="35.00" departLane="409155823_0" departPos="27.09" departSpeed="0.00" departDelay="0.72" arrival="92.00" arrivalLane="1091883842_0" arrivalPos="178.27" arrivalSpeed="13.66" duration="57.00" routeLength="256.59" waitingTime="19.00" waitingCount="1" stopTime="0.00" timeLoss="37.78" rerouteNo="0" devices="tripinfo_flow_route_62_duration_20250327_2210.4" vType="car" speedFactor="0.83" vaporized=""/>
    <tripinfo id="flow_route_87_duration_20250327_2210.2" depart="25.00" departLane="430416184_0" departPos="36.26" departSpeed="0.00" departDelay="1.00" arrival="96.00" arrivalLane="1091883842_0" arrivalPos="127.22" arrivalSpeed="14.96" duration="71.00" routeLength="391.42" waitingTime="7.00" waitingCount="1" stopTime="0.00" timeLoss="46.12" rerouteNo="0" devices="tripinfo_flow_route_87_duration_20250327_2210.2" vType="car" speedFactor="0.94" vaporized=""/>
    <tripinfo id="flow_route_87_duration_20250327_2210.3" depart="36.00" departLane="430416184_0" departPos="48.70" departSpeed="0.00" departDelay="0.00" arrival="96.00" arrivalLane="1091883842_0" arrivalPos="91.48" arrivalSpeed="13.36" duration="60.00" routeLength="343.23" waitingTime="5.00" waitingCount="1" stopTime="0.00" timeLoss="37.26" rerouteNo="0" devices="tripinfo_flow_route_87_duration_20250327_2210.3" vType="car" speedFactor="0.87" vaporized=""/>
    <tripinfo id="flow_route_88_duration_20250327_2210.15" depart="54.00" departLane="430416184_0" departPos="238.74" departSpeed="0.00" departDelay="1.07" arrival="113.00" arrivalLane="186407684#0_1" arrivalPos="54.21" arrivalSpeed="11.70" duration="59.00" routeLength="133.10" waitingTime="32.00" waitingCount="1" stopTime="0.00" timeLoss="49.86" rerouteNo="0" devices="tripinfo_flow_route_88_duration_20250327_2210.15" vType="car" speedFactor="1.18" vaporized=""/>
    <tripinfo id="flow_route_88_duration_20250327_2210.7" depart="26.00" departLane="430416184_0" departPos="76.37" departSpeed="0.00" departDelay="1.30" arrival="115.00" arrivalLane="186407684#0_1" arrivalPos="11.40" arrivalSpeed="9.39" duration="89.00" routeLength="252.66" waitingTime="29.00" waitingCount="1" stopTime="0.00" timeLoss="73.12" rerouteNo="0" devices="tripinfo_flow_route_88_duration_20250327_2210.7" vType="car" speedFactor="1.16" vaporized=""/>
    <tripinfo id="flow_route_88_duration_20250327_2210.6" depart="22.00" departLane="430416184_0" departPos="46.01" departSpeed="0.00" departDelay="0.83" arrival="116.00" arrivalLane="186407684#0_1" arrivalPos="67.38" arrivalSpeed="12.77" duration="94.00" routeLength="338.99" waitingTime="33.00" waitingCount="2" stopTime="0.00" timeLoss="70.94" rerouteNo="0" devices="tripinfo_flow_route_88_duration_20250327_2210.6" vType="car" speedFactor="0.88" vaporized=""/>
    <tripinfo id="flow_route_88_duration_20250327_2210.8" depart="29.00" departLane="430416184_0" departPos="69.81" departSpeed="0.00" departDelay="0.77" arrival="121.00" arrivalLane="186407684#0_1" arrivalPos="50.38" arrivalSpeed="12.23" duration="92.00" routeLength="298.20" waitingTime="28.00" waitingCount="1" stopTime="0.00" timeLoss="72.50" rerouteNo="0" devices="tripinfo_flow_route_88_duration_20250327_2210.8" vType="car" speedFactor="1.01" vaporized=""/>
    <tripinfo id="flow_route_86_duration_20250327_2210.5" depart="39.00" departLane="430416184_0" departPos="158.12" departSpeed="0.00" departDelay="1.50" arrival="121.00" arrivalLane="186407685_1" arrivalPos="113.62" arrivalSpeed="16.16" duration="82.00" routeLength="279.37" waitingTime="30.00" waitingCount="1" stopTime="0.00" timeLoss="64.36" rerouteNo="0" devices="tripinfo_flow_route_86_duration_20250327_2210.5" vType="car" speedFactor="0.95" vaporized=""/>
    <tripinfo id="flow_route_88_duration_20250327_2210.10" depart="39.00" departLane="430416184_0" departPos="80.64" departSpeed="0.00" departDelay="3.71" arrival="124.00" arrivalLane="186407684#0_1" arrivalPos="51.12" arrivalSpeed="12.15" duration="85.00" routeLength="288.11" waitingTime="27.00" waitingCount="1" stopTime="0.00" timeLoss="66.10" rerouteNo="0" devices="tripinfo_flow_route_88_duration_20250327_2210.10" vType="car" speedFactor="0.92" vaporized=""/>
    <tripinfo id="flow_route_88_duration_20250327_2210.11" depart="40.00" departLane="430416184_0" departPos="19.37" departSpeed="0.00" departDelay="1.18" arrival="126.00" arrivalLane="186407684#0_1" arrivalPos="2.45" arrivalSpeed="11.68" duration="86.00" routeLength="300.72" waitingTime="25.00" waitingCount="1" stopTime="0.00" timeLoss="66.91" rerouteNo="0" devices="tripinfo_flow_route_88_duration_20250327_2210.11" vType="car" speedFactor="1.13" vaporized=""/>
    <tripinfo id="flow_route_88_duration_20250327_2210.12" depart="43.00" departLane="430416184_0" departPos="98.04" departSpeed="0.00" departDelay="0.65" arrival="129.00" arrivalLane="186407684#0_1" arrivalPos="87.45" arrivalSpeed="15.22" duration="86.00" routeLength="307.04" waitingTime="26.00" waitingCount="1" stopTime="0.00" timeLoss="66.38" rerouteNo="0" devices="tripinfo_flow_route_88_duration_20250327_2210.12" vType="car" speedFactor="1.18" vaporized=""/>
    <tripinfo id="flow_route_86_duration_20250327_2210.3" depart="23.00" departLane="430416184_0" departPos="8.62" departSpeed="0.00" departDelay="0.50" arrival="130.00" arrivalLane="186407685_1" arrivalPos="169.38" arrivalSpeed="16.48" duration="107.00" routeLength="484.64" waitingTime="27.00" waitingCount="1" stopTime="0.00" timeLoss="77.73" rerouteNo="0" devices="tripinfo_flow_route_86_duration_20250327_2210.3" vType="car" speedFactor="0.94" vaporized=""/>
    <tripinfo id="flow_route_88_duration_20250327_2210.14" depart="50.00" departLane="430416184_0" departPos="83.88" departSpeed="0.00" departDelay="0.59" arrival="130.00" arrivalLane="186407684#0_1" arrivalPos="31.01" arrivalSpeed="12.01" duration="80.00" routeLength="264.76" waitingTime="24.00" waitingCount="1" stopTime="0.00" timeLoss="63.00" rerouteNo="0" devices="tripinfo_flow_route_88_duration_20250327_2210.14" vType="car" speedFactor="0.99" vaporized=""/>
    <tripinfo id="flow_route_86_duration_20250327_2210.7" depart="54.00" departLane="430416184_0" departPos="148.30" departSpeed="0.00" departDelay="1.50" arrival="130.00" arrivalLane="186407685_1" arrivalPos="74.94" arrivalSpeed="15.28" duration="76.00" routeLength="250.52" waitingTime="26.00" waitingCount="1" stopTime="0.00" timeLoss="60.32" rerouteNo="0" devices="tripinfo_flow_route_86_duration_20250327_2210.7" vType="car" speedFactor="0.97" vaporized=""/>
    <tripinfo id="flow_route_86_duration_20250327_2210.6" depart="46.00" departLane="430416184_0" departPos="52.25" departSpeed="0.00" departDelay="1.00" arrival="133.00" arrivalLane="186407685_1" arrivalPos="15.23" arrivalSpeed="14.10" duration="87.00" routeLength="286.87" waitingTime="24.00" waitingCount="2" stopTime="0.00" timeLoss="69.50" rerouteNo="0" devices="tripinfo_flow_route_86_duration_20250327_2210.6" vType="car" speedFactor="1.15" vaporized=""/>
    <tripinfo id="flow_route_88_duration_20250327_2210.16" depart="57.00" departLane="430416184_0" departPos="120.64" departSpeed="0.00" departDelay="0.54" arrival="134.00" arrivalLane="186407684#0_1" arrivalPos="51.56" arrivalSpeed="14.70" duration="77.00" routeLength="248.54" waitingTime="25.00" waitingCount="2" stopTime="0.00" timeLoss="60.44" rerouteNo="0" devices="tripinfo_flow_route_88_duration_20250327_2210.16" vType="car" speedFactor="1.10" vaporized=""/>
    <tripinfo id="flow_route_88_duration_20250327_2210.13" depart="46.00" departLane="430416184_0" departPos="13.55" departSpeed="0.00" departDelay="0.12" arrival="135.00" arrivalLane="186407684#0_1" arrivalPos="18.26" arrivalSpeed="10.93" duration="89.00" routeLength="322.34" waitingTime="24.00" waitingCount="2" stopTime="0.00" timeLoss="68.52" rerouteNo="0" devices="tripinfo_flow_route_88_duration_20250327_2210.13" vType="car" speedFactor="1.01" vaporized=""/>
</tripinfos>
