<?xml version="1.0" encoding="UTF-8"?>

<!-- generated on 2025-05-06 21:08:16 by Eclipse SUMO sumo Version 1.20.0
<configuration xmlns:xsi="http://www.w3.org/2001/XMLSchema-instance" xsi:noNamespaceSchemaLocation="http://sumo.dlr.de/xsd/sumoConfiguration.xsd">

    <input>
        <net-file value="osm.net.xml"/>
        <route-files value="xml/route_static_J7_3.rou.xml"/>
    </input>

    <output>
        <tripinfo-output value="xml/tripinfo_static_J7_3.xml"/>
    </output>

    <traci_server>
        <remote-port value="35333"/>
    </traci_server>

</configuration>
-->

<tripinfos xmlns:xsi="http://www.w3.org/2001/XMLSchema-instance" xsi:noNamespaceSchemaLocation="http://sumo.dlr.de/xsd/tripinfo_file.xsd">
    <tripinfo id="flow_route_131_duration_20250327_2050.0" depart="0.00" departLane="714011134#0_0" departPos="6.35" departSpeed="0.00" departDelay="0.00" arrival="26.00" arrivalLane="134194079#0_1" arrivalPos="73.02" arrivalSpeed="14.32" duration="26.00" routeLength="232.63" waitingTime="0.00" waitingCount="0" stopTime="0.00" timeLoss="10.16" rerouteNo="0" devices="tripinfo_flow_route_131_duration_20250327_2050.0" vType="car" speedFactor="0.89" vaporized=""/>
    <tripinfo id="flow_route_127_duration_20250327_2050.1" depart="12.00" departLane="-138000461_0" departPos="144.78" departSpeed="0.00" departDelay="0.00" arrival="30.00" arrivalLane="189240000#0-AddedOnRampEdge_0" arrivalPos="2.82" arrivalSpeed="8.22" duration="18.00" routeLength="117.15" waitingTime="0.00" waitingCount="0" stopTime="0.00" timeLoss="9.90" rerouteNo="0" devices="tripinfo_flow_route_127_duration_20250327_2050.1" vType="car" speedFactor="0.88" vaporized=""/>
    <tripinfo id="flow_route_132_duration_20250327_2050.0" depart="0.00" departLane="714011134#0_0" departPos="92.28" departSpeed="0.00" departDelay="0.00" arrival="34.00" arrivalLane="189240000#0-AddedOnRampEdge_1" arrivalPos="51.48" arrivalSpeed="15.25" duration="34.00" routeLength="375.34" waitingTime="0.00" waitingCount="0" stopTime="0.00" timeLoss="9.88" rerouteNo="0" devices="tripinfo_flow_route_132_duration_20250327_2050.0" vType="car" speedFactor="0.94" vaporized=""/>
    <tripinfo id="flow_route_116_duration_20250327_2050.0" depart="0.00" departLane="177211987#1_0" departPos="0.88" departSpeed="0.00" departDelay="0.00" arrival="38.00" arrivalLane="688883939#0_0" arrivalPos="93.94" arrivalSpeed="16.57" duration="38.00" routeLength="448.08" waitingTime="0.00" waitingCount="0" stopTime="0.00" timeLoss="10.46" rerouteNo="0" devices="tripinfo_flow_route_116_duration_20250327_2050.0" vType="car" speedFactor="1.06" vaporized=""/>
    <tripinfo id="flow_route_127_duration_20250327_2050.0" depart="0.00" departLane="-138000461_0" departPos="55.90" departSpeed="0.00" departDelay="0.00" arrival="38.00" arrivalLane="189240000#0-AddedOnRampEdge_0" arrivalPos="70.17" arrivalSpeed="14.31" duration="38.00" routeLength="273.38" waitingTime="0.00" waitingCount="0" stopTime="0.00" timeLoss="20.53" rerouteNo="0" devices="tripinfo_flow_route_127_duration_20250327_2050.0" vType="car" speedFactor="1.05" vaporized=""/>
    <tripinfo id="flow_route_121_duration_20250327_2050.1" depart="7.00" departLane="799091563#0_0" departPos="337.05" departSpeed="0.00" departDelay="0.33" arrival="40.00" arrivalLane="134194079#0_0" arrivalPos="243.19" arrivalSpeed="16.21" duration="33.00" routeLength="295.30" waitingTime="0.00" waitingCount="0" stopTime="0.00" timeLoss="13.16" rerouteNo="0" devices="tripinfo_flow_route_121_duration_20250327_2050.1" vType="car" speedFactor="1.05" vaporized=""/>
    <tripinfo id="flow_route_132_duration_20250327_2050.2" depart="6.00" departLane="714011134#0_0" departPos="98.97" departSpeed="0.00" departDelay="0.55" arrival="41.00" arrivalLane="189240000#0-AddedOnRampEdge_1" arrivalPos="59.81" arrivalSpeed="16.15" duration="35.00" routeLength="376.98" waitingTime="0.00" waitingCount="0" stopTime="0.00" timeLoss="11.36" rerouteNo="0" devices="tripinfo_flow_route_132_duration_20250327_2050.2" vType="car" speedFactor="1.03" vaporized=""/>
    <tripinfo id="flow_route_132_duration_20250327_2050.1" depart="3.00" departLane="714011134#0_0" departPos="32.36" departSpeed="0.00" departDelay="0.27" arrival="46.00" arrivalLane="189240000#0-AddedOnRampEdge_2" arrivalPos="48.43" arrivalSpeed="16.11" duration="43.00" routeLength="432.21" waitingTime="0.00" waitingCount="0" stopTime="0.00" timeLoss="16.15" rerouteNo="0" devices="tripinfo_flow_route_132_duration_20250327_2050.1" vType="car" speedFactor="1.09" vaporized=""/>
    <tripinfo id="flow_route_132_duration_20250327_2050.4" depart="11.00" departLane="714011134#0_0" departPos="100.82" departSpeed="0.00" departDelay="0.09" arrival="46.00" arrivalLane="189240000#0-AddedOnRampEdge_1" arrivalPos="72.18" arrivalSpeed="15.39" duration="35.00" routeLength="387.50" waitingTime="0.00" waitingCount="0" stopTime="0.00" timeLoss="9.90" rerouteNo="0" devices="tripinfo_flow_route_132_duration_20250327_2050.4" vType="car" speedFactor="0.93" vaporized=""/>
    <tripinfo id="flow_route_131_duration_20250327_2050.1" depart="20.00" departLane="714011134#0_0" departPos="101.17" departSpeed="0.00" departDelay="0.00" arrival="50.00" arrivalLane="134194079#0_0" arrivalPos="211.10" arrivalSpeed="13.75" duration="30.00" routeLength="275.90" waitingTime="0.00" waitingCount="0" stopTime="0.00" timeLoss="9.12" rerouteNo="0" devices="tripinfo_flow_route_131_duration_20250327_2050.1" vType="car" speedFactor="0.83" vaporized=""/>
    <tripinfo id="flow_route_126_duration_20250327_2050.0" depart="0.00" departLane="-138000461_0" departPos="119.67" departSpeed="0.00" departDelay="0.00" arrival="51.00" arrivalLane="138000492#0_1" arrivalPos="18.35" arrivalSpeed="13.71" duration="51.00" routeLength="582.25" waitingTime="0.00" waitingCount="0" stopTime="0.00" timeLoss="8.97" rerouteNo="0" devices="tripinfo_flow_route_126_duration_20250327_2050.0" vType="car" speedFactor="0.83" vaporized=""/>
    <tripinfo id="flow_route_127_duration_20250327_2050.3" depart="36.00" departLane="-138000461_0" departPos="195.46" departSpeed="0.00" departDelay="0.00" arrival="52.00" arrivalLane="189240000#0-AddedOnRampEdge_0" arrivalPos="28.58" arrivalSpeed="10.46" duration="16.00" routeLength="92.23" waitingTime="0.00" waitingCount="0" stopTime="0.00" timeLoss="9.22" rerouteNo="0" devices="tripinfo_flow_route_127_duration_20250327_2050.3" vType="car" speedFactor="0.90" vaporized=""/>
    <tripinfo id="flow_route_121_duration_20250327_2050.0" depart="1.00" departLane="799091563#0_0" departPos="259.58" departSpeed="0.00" departDelay="1.00" arrival="53.00" arrivalLane="134194079#0_0" arrivalPos="144.99" arrivalSpeed="15.17" duration="52.00" routeLength="274.57" waitingTime="11.00" waitingCount="1" stopTime="0.00" timeLoss="34.11" rerouteNo="0" devices="tripinfo_flow_route_121_duration_20250327_2050.0" vType="car" speedFactor="1.08" vaporized=""/>
    <tripinfo id="flow_route_132_duration_20250327_2050.5" depart="14.00" departLane="714011134#0_0" departPos="43.35" departSpeed="0.00" departDelay="0.37" arrival="54.00" arrivalLane="189240000#0-AddedOnRampEdge_1" arrivalPos="12.21" arrivalSpeed="15.44" duration="40.00" routeLength="385.00" waitingTime="0.00" waitingCount="0" stopTime="0.00" timeLoss="14.35" rerouteNo="0" devices="tripinfo_flow_route_132_duration_20250327_2050.5" vType="car" speedFactor="0.94" vaporized=""/>
    <tripinfo id="flow_route_132_duration_20250327_2050.3" depart="9.00" departLane="714011134#0_0" departPos="3.42" departSpeed="0.00" departDelay="0.82" arrival="57.00" arrivalLane="189240000#0-AddedOnRampEdge_2" arrivalPos="51.39" arrivalSpeed="16.10" duration="48.00" routeLength="464.11" waitingTime="0.00" waitingCount="0" stopTime="0.00" timeLoss="19.35" rerouteNo="0" devices="tripinfo_flow_route_132_duration_20250327_2050.3" vType="car" speedFactor="0.99" vaporized=""/>
    <tripinfo id="flow_route_132_duration_20250327_2050.6" depart="17.00" departLane="714011134#0_0" departPos="17.70" departSpeed="0.00" departDelay="0.64" arrival="58.00" arrivalLane="189240000#0-AddedOnRampEdge_2" arrivalPos="21.07" arrivalSpeed="16.32" duration="41.00" routeLength="419.51" waitingTime="0.00" waitingCount="0" stopTime="0.00" timeLoss="15.58" rerouteNo="0" devices="tripinfo_flow_route_132_duration_20250327_2050.6" vType="car" speedFactor="1.02" vaporized=""/>
    <tripinfo id="flow_route_133_duration_20250327_2050.0" depart="0.00" departLane="714011134#0_0" departPos="33.93" departSpeed="0.00" departDelay="0.00" arrival="59.00" arrivalLane="138000492#0_0" arrivalPos="313.58" arrivalSpeed="14.16" duration="59.00" routeLength="604.48" waitingTime="0.00" waitingCount="0" stopTime="0.00" timeLoss="15.89" rerouteNo="0" devices="tripinfo_flow_route_133_duration_20250327_2050.0" vType="car" speedFactor="0.86" vaporized=""/>
    <tripinfo id="flow_route_121_duration_20250327_2050.3" depart="20.00" departLane="799091563#0_0" departPos="355.06" departSpeed="0.00" departDelay="0.00" arrival="59.00" arrivalLane="134194079#0_0" arrivalPos="197.11" arrivalSpeed="14.42" duration="39.00" routeLength="231.21" waitingTime="8.00" waitingCount="1" stopTime="0.00" timeLoss="21.55" rerouteNo="0" devices="tripinfo_flow_route_121_duration_20250327_2050.3" vType="car" speedFactor="0.89" vaporized=""/>
    <tripinfo id="flow_route_127_duration_20250327_2050.2" depart="24.00" departLane="-138000461_0" departPos="38.75" departSpeed="0.00" departDelay="0.00" arrival="59.00" arrivalLane="189240000#0-AddedOnRampEdge_0" arrivalPos="90.15" arrivalSpeed="15.33" duration="35.00" routeLength="310.51" waitingTime="0.00" waitingCount="0" stopTime="0.00" timeLoss="14.20" rerouteNo="0" devices="tripinfo_flow_route_127_duration_20250327_2050.2" vType="car" speedFactor="0.95" vaporized=""/>
    <tripinfo id="flow_route_121_duration_20250327_2050.2" depart="14.00" departLane="799091563#0_0" departPos="47.61" departSpeed="0.00" departDelay="0.67" arrival="60.00" arrivalLane="134194079#0_0" arrivalPos="97.74" arrivalSpeed="12.83" duration="46.00" routeLength="439.29" waitingTime="0.00" waitingCount="0" stopTime="0.00" timeLoss="16.29" rerouteNo="0" devices="tripinfo_flow_route_121_duration_20250327_2050.2" vType="car" speedFactor="0.94" vaporized=""/>
    <tripinfo id="flow_route_132_duration_20250327_2050.7" depart="20.00" departLane="714011134#0_0" departPos="32.44" departSpeed="0.00" departDelay="0.91" arrival="61.00" arrivalLane="189240000#0-AddedOnRampEdge_1" arrivalPos="56.29" arrivalSpeed="14.49" duration="41.00" routeLength="439.99" waitingTime="0.00" waitingCount="0" stopTime="0.00" timeLoss="10.03" rerouteNo="0" devices="tripinfo_flow_route_132_duration_20250327_2050.7" vType="car" speedFactor="0.87" vaporized=""/>
    <tripinfo id="flow_route_132_duration_20250327_2050.8" depart="23.00" departLane="714011134#0_0" departPos="17.75" departSpeed="0.00" departDelay="1.18" arrival="62.00" arrivalLane="189240000#0-AddedOnRampEdge_1" arrivalPos="46.50" arrivalSpeed="15.17" duration="39.00" routeLength="444.90" waitingTime="0.00" waitingCount="0" stopTime="0.00" timeLoss="9.89" rerouteNo="0" devices="tripinfo_flow_route_132_duration_20250327_2050.8" vType="car" speedFactor="0.92" vaporized=""/>
    <tripinfo id="flow_route_117_duration_20250327_2050.0" depart="0.00" departLane="177211987#1_0" departPos="98.51" departSpeed="0.00" departDelay="0.00" arrival="63.00" arrivalLane="138000492#0_0" arrivalPos="299.85" arrivalSpeed="15.18" duration="63.00" routeLength="701.60" waitingTime="0.00" waitingCount="0" stopTime="0.00" timeLoss="17.01" rerouteNo="0" devices="tripinfo_flow_route_117_duration_20250327_2050.0" vType="car" speedFactor="0.94" vaporized=""/>
    <tripinfo id="flow_route_122_duration_20250327_2050.0" depart="1.00" departLane="799091563#0_0" departPos="17.54" departSpeed="0.00" departDelay="1.00" arrival="68.00" arrivalLane="688883939#0_2" arrivalPos="62.20" arrivalSpeed="13.91" duration="67.00" routeLength="483.30" waitingTime="14.00" waitingCount="1" stopTime="0.00" timeLoss="37.28" rerouteNo="0" devices="tripinfo_flow_route_122_duration_20250327_2050.0" vType="car" speedFactor="1.03" vaporized=""/>
    <tripinfo id="flow_route_122_duration_20250327_2050.2" depart="30.00" departLane="799091563#0_0" departPos="274.11" departSpeed="0.00" departDelay="0.00" arrival="69.00" arrivalLane="688883939#0_2" arrivalPos="59.79" arrivalSpeed="13.69" duration="39.00" routeLength="224.32" waitingTime="4.00" waitingCount="1" stopTime="0.00" timeLoss="25.25" rerouteNo="0" devices="tripinfo_flow_route_122_duration_20250327_2050.2" vType="car" speedFactor="1.17" vaporized=""/>
    <tripinfo id="flow_route_127_duration_20250327_2050.4" depart="48.00" departLane="-138000461_0" departPos="125.25" departSpeed="0.00" departDelay="0.00" arrival="72.00" arrivalLane="189240000#0-AddedOnRampEdge_0" arrivalPos="55.62" arrivalSpeed="14.52" duration="24.00" routeLength="189.47" waitingTime="0.00" waitingCount="0" stopTime="0.00" timeLoss="11.52" rerouteNo="0" devices="tripinfo_flow_route_127_duration_20250327_2050.4" vType="car" speedFactor="1.17" vaporized=""/>
    <tripinfo id="flow_route_122_duration_20250327_2050.1" depart="15.00" departLane="799091563#0_0" departPos="100.27" departSpeed="0.00" departDelay="0.00" arrival="74.00" arrivalLane="688883939#0_2" arrivalPos="101.69" arrivalSpeed="16.13" duration="59.00" routeLength="440.06" waitingTime="0.00" waitingCount="0" stopTime="0.00" timeLoss="32.27" rerouteNo="0" devices="tripinfo_flow_route_122_duration_20250327_2050.1" vType="car" speedFactor="1.16" vaporized=""/>
    <tripinfo id="flow_route_133_duration_20250327_2050.1" depart="34.00" departLane="714011134#0_0" departPos="54.05" departSpeed="0.00" departDelay="4.00" arrival="74.00" arrivalLane="138000492#0_1" arrivalPos="76.03" arrivalSpeed="13.03" duration="40.00" routeLength="346.82" waitingTime="0.00" waitingCount="0" stopTime="0.00" timeLoss="17.87" rerouteNo="0" devices="tripinfo_flow_route_133_duration_20250327_2050.1" vType="car" speedFactor="1.02" vaporized=""/>
    <tripinfo id="flow_route_132_duration_20250327_2050.12" depart="38.00" departLane="714011134#0_0" departPos="74.91" departSpeed="0.00" departDelay="5.28" arrival="74.00" arrivalLane="189240000#0-AddedOnRampEdge_1" arrivalPos="64.07" arrivalSpeed="16.21" duration="36.00" routeLength="405.31" waitingTime="0.00" waitingCount="0" stopTime="0.00" timeLoss="10.62" rerouteNo="0" devices="tripinfo_flow_route_132_duration_20250327_2050.12" vType="car" speedFactor="0.97" vaporized=""/>
    <tripinfo id="flow_route_120_duration_20250327_2050.0" depart="0.00" departLane="799091563#0_0" departPos="177.01" departSpeed="0.00" departDelay="0.00" arrival="79.00" arrivalLane="138000492#0_1" arrivalPos="19.14" arrivalSpeed="11.21" duration="79.00" routeLength="440.29" waitingTime="24.00" waitingCount="1" stopTime="0.00" timeLoss="51.91" rerouteNo="0" devices="tripinfo_flow_route_120_duration_20250327_2050.0" vType="car" speedFactor="1.01" vaporized=""/>
    <tripinfo id="flow_route_120_duration_20250327_2050.1" depart="30.00" departLane="799091563#0_0" departPos="30.38" departSpeed="0.00" departDelay="0.00" arrival="82.00" arrivalLane="138000492#0_2" arrivalPos="36.20" arrivalSpeed="11.27" duration="52.00" routeLength="603.98" waitingTime="0.00" waitingCount="0" stopTime="0.00" timeLoss="15.47" rerouteNo="0" devices="tripinfo_flow_route_120_duration_20250327_2050.1" vType="car" speedFactor="1.01" vaporized=""/>
    <tripinfo id="flow_route_122_duration_20250327_2050.3" depart="48.00" departLane="799091563#0_0" departPos="144.09" departSpeed="0.00" departDelay="3.00" arrival="84.00" arrivalLane="688883939#0_2" arrivalPos="39.18" arrivalSpeed="14.31" duration="36.00" routeLength="333.73" waitingTime="0.00" waitingCount="0" stopTime="0.00" timeLoss="12.44" rerouteNo="0" devices="tripinfo_flow_route_122_duration_20250327_2050.3" vType="car" speedFactor="0.88" vaporized=""/>
    <tripinfo id="flow_route_121_duration_20250327_2050.5" depart="37.00" departLane="799091563#0_0" departPos="161.42" departSpeed="0.00" departDelay="3.67" arrival="85.00" arrivalLane="134194079#0_0" arrivalPos="114.98" arrivalSpeed="14.23" duration="48.00" routeLength="342.72" waitingTime="0.00" waitingCount="0" stopTime="0.00" timeLoss="25.67" rerouteNo="0" devices="tripinfo_flow_route_121_duration_20250327_2050.5" vType="car" speedFactor="1.18" vaporized=""/>
    <tripinfo id="flow_route_121_duration_20250327_2050.6" depart="40.00" departLane="799091563#0_0" departPos="38.55" departSpeed="0.00" departDelay="0.00" arrival="87.00" arrivalLane="134194079#0_0" arrivalPos="87.42" arrivalSpeed="13.30" duration="47.00" routeLength="438.03" waitingTime="0.00" waitingCount="0" stopTime="0.00" timeLoss="19.42" rerouteNo="0" devices="tripinfo_flow_route_121_duration_20250327_2050.6" vType="car" speedFactor="1.04" vaporized=""/>
    <tripinfo id="flow_route_121_duration_20250327_2050.8" depart="54.00" departLane="799091563#0_0" departPos="343.03" departSpeed="0.00" departDelay="0.67" arrival="87.00" arrivalLane="134194079#0_0" arrivalPos="261.74" arrivalSpeed="16.22" duration="33.00" routeLength="307.88" waitingTime="0.00" waitingCount="0" stopTime="0.00" timeLoss="13.11" rerouteNo="0" devices="tripinfo_flow_route_121_duration_20250327_2050.8" vType="car" speedFactor="1.00" vaporized=""/>
    <tripinfo id="flow_route_121_duration_20250327_2050.7" depart="48.00" departLane="799091563#0_0" departPos="258.53" departSpeed="0.00" departDelay="1.34" arrival="93.00" arrivalLane="134194079#0_0" arrivalPos="266.82" arrivalSpeed="13.69" duration="45.00" routeLength="397.45" waitingTime="0.00" waitingCount="0" stopTime="0.00" timeLoss="15.46" rerouteNo="0" devices="tripinfo_flow_route_121_duration_20250327_2050.7" vType="car" speedFactor="0.85" vaporized=""/>
    <tripinfo id="flow_route_121_duration_20250327_2050.4" depart="27.00" departLane="799091563#0_0" departPos="67.96" departSpeed="0.00" departDelay="0.34" arrival="96.00" arrivalLane="134194079#0_0" arrivalPos="273.81" arrivalSpeed="16.18" duration="69.00" routeLength="595.01" waitingTime="0.00" waitingCount="0" stopTime="0.00" timeLoss="31.69" rerouteNo="0" devices="tripinfo_flow_route_121_duration_20250327_2050.4" vType="car" speedFactor="1.18" vaporized=""/>
    <tripinfo id="flow_route_116_duration_20250327_2050.1" depart="20.00" departLane="177211987#1_0" departPos="101.23" departSpeed="0.00" departDelay="0.00" arrival="138.00" arrivalLane="688883939#0_0" arrivalPos="9.39" arrivalSpeed="9.67" duration="118.00" routeLength="263.17" waitingTime="81.00" waitingCount="1" stopTime="0.00" timeLoss="101.76" rerouteNo="0" devices="tripinfo_flow_route_116_duration_20250327_2050.1" vType="car" speedFactor="0.97" vaporized=""/>
    <tripinfo id="flow_route_116_duration_20250327_2050.2" depart="40.00" departLane="177211987#1_0" departPos="102.38" departSpeed="0.00" departDelay="0.00" arrival="146.00" arrivalLane="688883939#0_2" arrivalPos="102.42" arrivalSpeed="15.32" duration="106.00" routeLength="355.06" waitingTime="60.00" waitingCount="1" stopTime="0.00" timeLoss="84.05" rerouteNo="0" devices="tripinfo_flow_route_116_duration_20250327_2050.2" vType="car" speedFactor="1.09" vaporized=""/>
    <tripinfo id="flow_route_131_duration_20250327_2050.2" depart="45.00" departLane="714011134#0_0" departPos="4.49" departSpeed="0.00" departDelay="5.00" arrival="146.00" arrivalLane="134194079#0_1" arrivalPos="121.28" arrivalSpeed="16.24" duration="101.00" routeLength="282.75" waitingTime="62.00" waitingCount="1" stopTime="0.00" timeLoss="83.88" rerouteNo="0" devices="tripinfo_flow_route_131_duration_20250327_2050.2" vType="car" speedFactor="1.04" vaporized=""/>
    <tripinfo id="flow_route_117_duration_20250327_2050.3" depart="26.00" departLane="177211987#1_0" departPos="80.03" departSpeed="0.00" departDelay="0.29" arrival="157.00" arrivalLane="138000492#0_1" arrivalPos="11.72" arrivalSpeed="9.69" duration="131.00" routeLength="431.94" waitingTime="76.00" waitingCount="1" stopTime="0.00" timeLoss="102.43" rerouteNo="0" devices="tripinfo_flow_route_117_duration_20250327_2050.3" vType="car" speedFactor="0.93" vaporized=""/>
    <tripinfo id="flow_route_132_duration_20250327_2050.11" depart="33.00" departLane="714011134#0_0" departPos="44.60" departSpeed="0.00" departDelay="3.00" arrival="157.00" arrivalLane="189240000#0-AddedOnRampEdge_1" arrivalPos="19.56" arrivalSpeed="16.50" duration="124.00" routeLength="391.10" waitingTime="74.00" waitingCount="1" stopTime="0.00" timeLoss="100.18" rerouteNo="0" devices="tripinfo_flow_route_132_duration_20250327_2050.11" vType="car" speedFactor="0.99" vaporized=""/>
    <tripinfo id="flow_route_132_duration_20250327_2050.9" depart="27.00" departLane="714011134#0_0" departPos="7.06" departSpeed="0.00" departDelay="2.46" arrival="163.00" arrivalLane="189240000#0-AddedOnRampEdge_1" arrivalPos="60.58" arrivalSpeed="16.12" duration="136.00" routeLength="469.66" waitingTime="72.00" waitingCount="1" stopTime="0.00" timeLoss="107.51" rerouteNo="0" devices="tripinfo_flow_route_132_duration_20250327_2050.9" vType="car" speedFactor="1.13" vaporized=""/>
    <tripinfo id="flow_route_132_duration_20250327_2050.10" depart="32.00" departLane="714011134#0_0" departPos="30.57" departSpeed="0.00" departDelay="4.73" arrival="163.00" arrivalLane="189240000#0-AddedOnRampEdge_1" arrivalPos="93.68" arrivalSpeed="16.16" duration="131.00" routeLength="479.25" waitingTime="73.00" waitingCount="1" stopTime="0.00" timeLoss="102.00" rerouteNo="0" devices="tripinfo_flow_route_132_duration_20250327_2050.10" vType="car" speedFactor="1.15" vaporized=""/>
    <tripinfo id="flow_route_117_duration_20250327_2050.1" depart="11.00" departLane="177211987#1_0" departPos="23.29" departSpeed="0.00" departDelay="2.43" arrival="165.00" arrivalLane="138000492#0_2" arrivalPos="166.90" arrivalSpeed="16.34" duration="154.00" routeLength="643.87" waitingTime="81.00" waitingCount="1" stopTime="0.00" timeLoss="114.96" rerouteNo="0" devices="tripinfo_flow_route_117_duration_20250327_2050.1" vType="car" speedFactor="1.12" vaporized=""/>
    <tripinfo id="flow_route_132_duration_20250327_2050.13" depart="44.00" departLane="714011134#0_0" departPos="14.88" departSpeed="0.00" departDelay="8.55" arrival="166.00" arrivalLane="189240000#0-AddedOnRampEdge_1" arrivalPos="9.89" arrivalSpeed="16.15" duration="122.00" routeLength="411.15" waitingTime="70.00" waitingCount="1" stopTime="0.00" timeLoss="96.32" rerouteNo="0" devices="tripinfo_flow_route_132_duration_20250327_2050.13" vType="car" speedFactor="1.03" vaporized=""/>
    <tripinfo id="flow_route_132_duration_20250327_2050.15" depart="45.00" departLane="714011134#0_0" departPos="41.17" departSpeed="0.00" departDelay="4.10" arrival="166.00" arrivalLane="189240000#0-AddedOnRampEdge_1" arrivalPos="44.03" arrivalSpeed="16.52" duration="121.00" routeLength="418.99" waitingTime="70.00" waitingCount="1" stopTime="0.00" timeLoss="95.30" rerouteNo="0" devices="tripinfo_flow_route_132_duration_20250327_2050.15" vType="car" speedFactor="1.09" vaporized=""/>
    <tripinfo id="flow_route_117_duration_20250327_2050.2" depart="19.00" departLane="177211987#1_0" departPos="118.81" departSpeed="0.00" departDelay="1.86" arrival="167.00" arrivalLane="138000492#0_1" arrivalPos="240.56" arrivalSpeed="16.37" duration="148.00" routeLength="622.01" waitingTime="83.00" waitingCount="1" stopTime="0.00" timeLoss="110.01" rerouteNo="0" devices="tripinfo_flow_route_117_duration_20250327_2050.2" vType="car" speedFactor="1.01" vaporized=""/>
    <tripinfo id="flow_route_132_duration_20250327_2050.14" depart="45.00" departLane="714011134#0_0" departPos="50.59" departSpeed="0.00" departDelay="6.82" arrival="167.00" arrivalLane="189240000#0-AddedOnRampEdge_1" arrivalPos="82.50" arrivalSpeed="15.55" duration="122.00" routeLength="448.05" waitingTime="70.00" waitingCount="1" stopTime="0.00" timeLoss="93.23" rerouteNo="0" devices="tripinfo_flow_route_132_duration_20250327_2050.14" vType="car" speedFactor="0.96" vaporized=""/>
    <tripinfo id="flow_route_117_duration_20250327_2050.5" depart="43.00" departLane="177211987#1_0" departPos="18.19" departSpeed="0.00" departDelay="0.15" arrival="168.00" arrivalLane="138000492#0_1" arrivalPos="118.34" arrivalSpeed="15.92" duration="125.00" routeLength="600.41" waitingTime="58.00" waitingCount="1" stopTime="0.00" timeLoss="88.18" rerouteNo="0" devices="tripinfo_flow_route_117_duration_20250327_2050.5" vType="car" speedFactor="1.00" vaporized=""/>
    <tripinfo id="flow_route_117_duration_20250327_2050.4" depart="35.00" departLane="177211987#1_0" departPos="3.49" departSpeed="0.00" departDelay="0.72" arrival="170.00" arrivalLane="138000492#0_2" arrivalPos="175.56" arrivalSpeed="16.12" duration="135.00" routeLength="672.33" waitingTime="63.00" waitingCount="1" stopTime="0.00" timeLoss="94.14" rerouteNo="0" devices="tripinfo_flow_route_117_duration_20250327_2050.4" vType="car" speedFactor="1.10" vaporized=""/>
    <tripinfo id="flow_route_132_duration_20250327_2050.17" depart="56.00" departLane="714011134#0_0" departPos="49.56" departSpeed="0.00" departDelay="9.64" arrival="171.00" arrivalLane="189240000#0-AddedOnRampEdge_1" arrivalPos="32.53" arrivalSpeed="13.95" duration="115.00" routeLength="399.11" waitingTime="69.00" waitingCount="1" stopTime="0.00" timeLoss="86.27" rerouteNo="0" devices="tripinfo_flow_route_132_duration_20250327_2050.17" vType="car" speedFactor="0.85" vaporized=""/>
    <tripinfo id="flow_route_132_duration_20250327_2050.18" depart="57.00" departLane="714011134#0_0" departPos="0.09" departSpeed="0.00" departDelay="7.91" arrival="173.00" arrivalLane="189240000#0-AddedOnRampEdge_1" arrivalPos="9.71" arrivalSpeed="16.09" duration="116.00" routeLength="425.76" waitingTime="65.00" waitingCount="1" stopTime="0.00" timeLoss="89.54" rerouteNo="0" devices="tripinfo_flow_route_132_duration_20250327_2050.18" vType="car" speedFactor="1.02" vaporized=""/>
    <tripinfo id="flow_route_132_duration_20250327_2050.16" depart="55.00" departLane="714011134#0_0" departPos="36.45" departSpeed="0.00" departDelay="11.37" arrival="174.00" arrivalLane="189240000#0-AddedOnRampEdge_2" arrivalPos="67.34" arrivalSpeed="14.58" duration="119.00" routeLength="447.03" waitingTime="69.00" waitingCount="1" stopTime="0.00" timeLoss="88.91" rerouteNo="0" devices="tripinfo_flow_route_132_duration_20250327_2050.16" vType="car" speedFactor="0.90" vaporized=""/>
    <tripinfo id="flow_route_132_duration_20250327_2050.19" depart="65.00" departLane="714011134#0_0" departPos="41.47" departSpeed="0.00" departDelay="13.19" arrival="176.00" arrivalLane="189240000#0-AddedOnRampEdge_1" arrivalPos="89.20" arrivalSpeed="16.27" duration="111.00" routeLength="463.87" waitingTime="65.00" waitingCount="1" stopTime="0.00" timeLoss="82.55" rerouteNo="0" devices="tripinfo_flow_route_132_duration_20250327_2050.19" vType="car" speedFactor="1.00" vaporized=""/>
    <tripinfo id="flow_route_132_duration_20250327_2050.20" depart="72.00" departLane="714011134#0_0" departPos="21.87" departSpeed="0.00" departDelay="17.46" arrival="176.00" arrivalLane="189240000#0-AddedOnRampEdge_1" arrivalPos="15.81" arrivalSpeed="14.82" duration="104.00" routeLength="410.09" waitingTime="59.00" waitingCount="1" stopTime="0.00" timeLoss="75.89" rerouteNo="0" devices="tripinfo_flow_route_132_duration_20250327_2050.20" vType="car" speedFactor="0.90" vaporized=""/>
    <tripinfo id="flow_route_132_duration_20250327_2050.21" depart="79.00" departLane="714011134#0_0" departPos="16.61" departSpeed="0.00" departDelay="21.73" arrival="181.00" arrivalLane="189240000#0-AddedOnRampEdge_2" arrivalPos="86.73" arrivalSpeed="16.11" duration="102.00" routeLength="486.26" waitingTime="54.00" waitingCount="1" stopTime="0.00" timeLoss="72.04" rerouteNo="0" devices="tripinfo_flow_route_132_duration_20250327_2050.21" vType="car" speedFactor="1.14" vaporized=""/>
    <tripinfo id="flow_route_117_duration_20250327_2050.6" depart="52.00" departLane="177211987#1_0" departPos="2.14" departSpeed="0.00" departDelay="0.57" arrival="184.00" arrivalLane="138000492#0_2" arrivalPos="345.55" arrivalSpeed="16.49" duration="132.00" routeLength="843.67" waitingTime="51.00" waitingCount="1" stopTime="0.00" timeLoss="80.64" rerouteNo="0" devices="tripinfo_flow_route_117_duration_20250327_2050.6" vType="car" speedFactor="1.10" vaporized=""/>
</tripinfos>
