<?xml version="1.0" encoding="UTF-8"?>

<!-- generated on 2025-05-06 21:01:12 by Eclipse SUMO sumo Version 1.20.0
<configuration xmlns:xsi="http://www.w3.org/2001/XMLSchema-instance" xsi:noNamespaceSchemaLocation="http://sumo.dlr.de/xsd/sumoConfiguration.xsd">

    <input>
        <net-file value="osm.net.xml"/>
        <route-files value="xml/routes_sac2_GS_cluster_4854142864_4854142865.rou.xml"/>
    </input>

    <output>
        <tripinfo-output value="xml/tripinfo_9775.xml"/>
    </output>

    <traci_server>
        <remote-port value="37155"/>
    </traci_server>

</configuration>
-->

<tripinfos xmlns:xsi="http://www.w3.org/2001/XMLSchema-instance" xsi:noNamespaceSchemaLocation="http://sumo.dlr.de/xsd/tripinfo_file.xsd">
    <tripinfo id="flow_route_39_duration_20250327_1930.0" depart="0.00" departLane="133126030#0_0" departPos="101.03" departSpeed="0.00" departDelay="0.00" arrival="28.00" arrivalLane="1328664748#0_0" arrivalPos="158.52" arrivalSpeed="15.14" duration="28.00" routeLength="263.70" waitingTime="0.00" waitingCount="0" stopTime="0.00" timeLoss="10.93" rerouteNo="0" devices="tripinfo_flow_route_39_duration_20250327_1930.0" vType="car" speedFactor="0.94" vaporized=""/>
    <tripinfo id="flow_route_38_duration_20250327_1930.0" depart="0.00" departLane="133126030#0_0" departPos="45.86" departSpeed="0.00" departDelay="0.00" arrival="35.00" arrivalLane="134193294#0_0" arrivalPos="152.84" arrivalSpeed="15.84" duration="35.00" routeLength="301.86" waitingTime="0.00" waitingCount="0" stopTime="0.00" timeLoss="15.50" rerouteNo="0" devices="tripinfo_flow_route_38_duration_20250327_1930.0" vType="car" speedFactor="1.06" vaporized=""/>
    <tripinfo id="flow_route_38_duration_20250327_1930.8" depart="32.00" departLane="133126030#0_0" departPos="173.46" departSpeed="0.00" departDelay="2.00" arrival="40.00" arrivalLane="134193294#0_0" arrivalPos="0.15" arrivalSpeed="5.24" duration="8.00" routeLength="21.56" waitingTime="0.00" waitingCount="0" stopTime="0.00" timeLoss="5.88" rerouteNo="0" devices="tripinfo_flow_route_38_duration_20250327_1930.8" vType="car" speedFactor="1.02" vaporized=""/>
    <tripinfo id="flow_route_39_duration_20250327_1930.1" depart="21.00" departLane="133126030#0_0" departPos="131.97" departSpeed="0.00" departDelay="6.00" arrival="46.00" arrivalLane="1328664748#0_0" arrivalPos="160.61" arrivalSpeed="15.81" duration="25.00" routeLength="234.85" waitingTime="0.00" waitingCount="0" stopTime="0.00" timeLoss="10.49" rerouteNo="0" devices="tripinfo_flow_route_39_duration_20250327_1930.1" vType="car" speedFactor="0.97" vaporized=""/>
    <tripinfo id="flow_route_38_duration_20250327_1930.3" depart="16.00" departLane="133126030#0_0" departPos="72.22" departSpeed="0.00" departDelay="4.75" arrival="49.00" arrivalLane="134193294#0_0" arrivalPos="26.05" arrivalSpeed="9.27" duration="33.00" routeLength="148.71" waitingTime="0.00" waitingCount="0" stopTime="0.00" timeLoss="21.72" rerouteNo="0" devices="tripinfo_flow_route_38_duration_20250327_1930.3" vType="car" speedFactor="0.93" vaporized=""/>
    <tripinfo id="flow_route_38_duration_20250327_1930.2" depart="8.00" departLane="133126030#0_0" departPos="31.12" departSpeed="0.00" departDelay="0.50" arrival="50.00" arrivalLane="134193294#0_0" arrivalPos="22.19" arrivalSpeed="8.63" duration="42.00" routeLength="185.95" waitingTime="0.00" waitingCount="0" stopTime="0.00" timeLoss="30.21" rerouteNo="0" devices="tripinfo_flow_route_38_duration_20250327_1930.2" vType="car" speedFactor="1.16" vaporized=""/>
    <tripinfo id="flow_route_38_duration_20250327_1930.6" depart="23.00" departLane="133126030#0_0" departPos="125.13" departSpeed="0.00" departDelay="0.50" arrival="51.00" arrivalLane="134193294#0_0" arrivalPos="82.34" arrivalSpeed="12.99" duration="28.00" routeLength="152.09" waitingTime="0.00" waitingCount="0" stopTime="0.00" timeLoss="17.98" rerouteNo="0" devices="tripinfo_flow_route_38_duration_20250327_1930.6" vType="car" speedFactor="1.10" vaporized=""/>
    <tripinfo id="flow_route_38_duration_20250327_1930.1" depart="5.00" departLane="133126030#0_0" departPos="6.01" departSpeed="0.00" departDelay="1.25" arrival="61.00" arrivalLane="134193294#0_0" arrivalPos="117.27" arrivalSpeed="14.15" duration="56.00" routeLength="306.14" waitingTime="0.00" waitingCount="0" stopTime="0.00" timeLoss="33.24" rerouteNo="0" devices="tripinfo_flow_route_38_duration_20250327_1930.1" vType="car" speedFactor="0.86" vaporized=""/>
    <tripinfo id="flow_route_38_duration_20250327_1930.5" depart="21.00" departLane="133126030#0_0" departPos="23.03" departSpeed="0.00" departDelay="2.25" arrival="62.00" arrivalLane="134193294#0_0" arrivalPos="72.92" arrivalSpeed="12.88" duration="41.00" routeLength="244.77" waitingTime="0.00" waitingCount="0" stopTime="0.00" timeLoss="25.12" rerouteNo="0" devices="tripinfo_flow_route_38_duration_20250327_1930.5" vType="car" speedFactor="1.04" vaporized=""/>
    <tripinfo id="flow_route_38_duration_20250327_1930.7" depart="29.00" departLane="133126030#0_0" departPos="87.14" departSpeed="0.00" departDelay="2.75" arrival="62.00" arrivalLane="134193294#0_0" arrivalPos="98.35" arrivalSpeed="13.59" duration="33.00" routeLength="206.09" waitingTime="0.00" waitingCount="0" stopTime="0.00" timeLoss="19.73" rerouteNo="0" devices="tripinfo_flow_route_38_duration_20250327_1930.7" vType="car" speedFactor="1.12" vaporized=""/>
    <tripinfo id="flow_route_43_duration_20250327_1930.6" depart="28.00" departLane="1328664744#0_0" departPos="200.41" departSpeed="0.00" departDelay="0.31" arrival="69.00" arrivalLane="134193294#0_3" arrivalPos="2.51" arrivalSpeed="7.39" duration="41.00" routeLength="42.17" waitingTime="27.00" waitingCount="1" stopTime="0.00" timeLoss="36.76" rerouteNo="0" devices="tripinfo_flow_route_43_duration_20250327_1930.6" vType="car" speedFactor="0.88" vaporized=""/>
    <tripinfo id="flow_route_43_duration_20250327_1930.2" depart="10.00" departLane="1328664744#0_0" departPos="207.44" departSpeed="0.00" departDelay="0.77" arrival="75.00" arrivalLane="134193294#0_3" arrivalPos="122.75" arrivalSpeed="14.49" duration="65.00" routeLength="155.38" waitingTime="39.00" waitingCount="1" stopTime="0.00" timeLoss="53.24" rerouteNo="0" devices="tripinfo_flow_route_43_duration_20250327_1930.2" vType="car" speedFactor="0.89" vaporized=""/>
    <tripinfo id="flow_route_43_duration_20250327_1930.1" depart="5.00" departLane="1328664744#0_0" departPos="66.95" departSpeed="0.00" departDelay="0.39" arrival="84.00" arrivalLane="134193294#0_3" arrivalPos="68.03" arrivalSpeed="11.47" duration="79.00" routeLength="241.15" waitingTime="33.00" waitingCount="2" stopTime="0.00" timeLoss="63.23" rerouteNo="0" devices="tripinfo_flow_route_43_duration_20250327_1930.1" vType="car" speedFactor="1.12" vaporized=""/>
    <tripinfo id="flow_route_46_duration_20250327_1930.1" depart="4.00" departLane="791826085_0" departPos="289.48" departSpeed="0.00" departDelay="0.67" arrival="91.00" arrivalLane="1328664748#0_1" arrivalPos="68.32" arrivalSpeed="11.41" duration="87.00" routeLength="127.63" waitingTime="62.00" waitingCount="1" stopTime="0.00" timeLoss="78.54" rerouteNo="0" devices="tripinfo_flow_route_46_duration_20250327_1930.1" vType="car" speedFactor="1.05" vaporized=""/>
    <tripinfo id="flow_route_44_duration_20250327_1930.2" depart="4.00" departLane="791826085_0" departPos="268.83" departSpeed="0.00" departDelay="0.92" arrival="93.00" arrivalLane="134193294#0_1" arrivalPos="87.99" arrivalSpeed="13.60" duration="89.00" routeLength="173.53" waitingTime="57.00" waitingCount="1" stopTime="0.00" timeLoss="78.25" rerouteNo="0" devices="tripinfo_flow_route_44_duration_20250327_1930.2" vType="car" speedFactor="1.03" vaporized=""/>
    <tripinfo id="flow_route_45_duration_20250327_1930.0" depart="0.00" departLane="791826085_0" departPos="152.03" departSpeed="0.00" departDelay="0.00" arrival="94.00" arrivalLane="485211947#0_0" arrivalPos="8.08" arrivalSpeed="6.58" duration="94.00" routeLength="191.81" waitingTime="49.00" waitingCount="1" stopTime="0.00" timeLoss="79.25" rerouteNo="0" devices="tripinfo_flow_route_45_duration_20250327_1930.0" vType="car" speedFactor="0.83" vaporized=""/>
    <tripinfo id="flow_route_44_duration_20250327_1930.1" depart="2.00" departLane="791826085_0" departPos="19.65" departSpeed="0.00" departDelay="0.46" arrival="94.00" arrivalLane="134193294#0_1" arrivalPos="45.37" arrivalSpeed="11.62" duration="92.00" routeLength="380.09" waitingTime="40.00" waitingCount="1" stopTime="0.00" timeLoss="65.97" rerouteNo="0" devices="tripinfo_flow_route_44_duration_20250327_1930.1" vType="car" speedFactor="0.89" vaporized=""/>
    <tripinfo id="flow_route_44_duration_20250327_1930.3" depart="5.00" departLane="791826085_0" departPos="249.33" departSpeed="0.00" departDelay="0.39" arrival="96.00" arrivalLane="134193294#0_0" arrivalPos="93.37" arrivalSpeed="14.21" duration="91.00" routeLength="198.41" waitingTime="58.00" waitingCount="1" stopTime="0.00" timeLoss="78.22" rerouteNo="0" devices="tripinfo_flow_route_44_duration_20250327_1930.3" vType="car" speedFactor="0.99" vaporized=""/>
    <tripinfo id="flow_route_44_duration_20250327_1930.0" depart="0.00" departLane="791826085_0" departPos="219.49" departSpeed="0.00" departDelay="0.00" arrival="97.00" arrivalLane="134193294#0_1" arrivalPos="101.20" arrivalSpeed="14.60" duration="97.00" routeLength="236.08" waitingTime="57.00" waitingCount="1" stopTime="0.00" timeLoss="81.98" rerouteNo="0" devices="tripinfo_flow_route_44_duration_20250327_1930.0" vType="car" speedFactor="1.03" vaporized=""/>
    <tripinfo id="flow_route_45_duration_20250327_1930.6" depart="20.00" departLane="791826085_0" departPos="228.12" departSpeed="0.00" departDelay="7.59" arrival="97.00" arrivalLane="485211947#0_0" arrivalPos="12.41" arrivalSpeed="8.40" duration="77.00" routeLength="120.05" waitingTime="48.00" waitingCount="1" stopTime="0.00" timeLoss="68.52" rerouteNo="0" devices="tripinfo_flow_route_45_duration_20250327_1930.6" vType="car" speedFactor="1.15" vaporized=""/>
    <tripinfo id="flow_route_44_duration_20250327_1930.9" depart="27.00" departLane="791826085_0" departPos="267.79" departSpeed="0.00" departDelay="13.16" arrival="97.00" arrivalLane="134193294#0_1" arrivalPos="58.15" arrivalSpeed="13.32" duration="70.00" routeLength="144.74" waitingTime="39.00" waitingCount="1" stopTime="0.00" timeLoss="60.80" rerouteNo="0" devices="tripinfo_flow_route_44_duration_20250327_1930.9" vType="car" speedFactor="1.17" vaporized=""/>
    <tripinfo id="flow_route_44_duration_20250327_1930.4" depart="8.00" departLane="791826085_0" departPos="314.57" departSpeed="0.00" departDelay="1.85" arrival="99.00" arrivalLane="134193294#0_0" arrivalPos="164.09" arrivalSpeed="14.37" duration="91.00" routeLength="203.90" waitingTime="63.00" waitingCount="1" stopTime="0.00" timeLoss="76.53" rerouteNo="0" devices="tripinfo_flow_route_44_duration_20250327_1930.4" vType="car" speedFactor="0.88" vaporized=""/>
    <tripinfo id="flow_route_46_duration_20250327_1930.4" depart="31.00" departLane="791826085_0" departPos="37.29" departSpeed="0.00" departDelay="17.67" arrival="99.00" arrivalLane="1328664748#0_1" arrivalPos="19.14" arrivalSpeed="11.40" duration="68.00" routeLength="330.64" waitingTime="23.00" waitingCount="1" stopTime="0.00" timeLoss="47.03" rerouteNo="0" devices="tripinfo_flow_route_46_duration_20250327_1930.4" vType="car" speedFactor="0.99" vaporized=""/>
    <tripinfo id="flow_route_44_duration_20250327_1930.5" depart="9.00" departLane="791826085_0" departPos="29.03" departSpeed="0.00" departDelay="1.31" arrival="100.00" arrivalLane="134193294#0_2" arrivalPos="70.56" arrivalSpeed="13.06" duration="91.00" routeLength="395.90" waitingTime="39.00" waitingCount="1" stopTime="0.00" timeLoss="67.00" rerouteNo="0" devices="tripinfo_flow_route_44_duration_20250327_1930.5" vType="car" speedFactor="1.01" vaporized=""/>
    <tripinfo id="flow_route_46_duration_20250327_1930.3" depart="11.00" departLane="791826085_0" departPos="311.42" departSpeed="0.00" departDelay="1.00" arrival="100.00" arrivalLane="1328664748#0_1" arrivalPos="153.88" arrivalSpeed="14.44" duration="89.00" routeLength="191.24" waitingTime="60.00" waitingCount="1" stopTime="0.00" timeLoss="74.12" rerouteNo="0" devices="tripinfo_flow_route_46_duration_20250327_1930.3" vType="car" speedFactor="0.87" vaporized=""/>
    <tripinfo id="flow_route_46_duration_20250327_1930.0" depart="1.00" departLane="791826085_0" departPos="184.68" departSpeed="0.00" departDelay="1.00" arrival="102.00" arrivalLane="1328664748#0_1" arrivalPos="165.37" arrivalSpeed="16.51" duration="101.00" routeLength="329.48" waitingTime="56.00" waitingCount="1" stopTime="0.00" timeLoss="80.13" rerouteNo="0" devices="tripinfo_flow_route_46_duration_20250327_1930.0" vType="car" speedFactor="1.05" vaporized=""/>
    <tripinfo id="flow_route_44_duration_20250327_1930.6" depart="11.00" departLane="791826085_0" departPos="54.92" departSpeed="0.00" departDelay="1.77" arrival="102.00" arrivalLane="134193294#0_1" arrivalPos="102.28" arrivalSpeed="13.69" duration="91.00" routeLength="401.73" waitingTime="36.00" waitingCount="1" stopTime="0.00" timeLoss="61.57" rerouteNo="0" devices="tripinfo_flow_route_44_duration_20250327_1930.6" vType="car" speedFactor="0.83" vaporized=""/>
    <tripinfo id="flow_route_44_duration_20250327_1930.8" depart="18.00" departLane="791826085_0" departPos="285.54" departSpeed="0.00" departDelay="5.70" arrival="102.00" arrivalLane="134193294#0_0" arrivalPos="159.21" arrivalSpeed="16.22" duration="84.00" routeLength="228.04" waitingTime="51.00" waitingCount="1" stopTime="0.00" timeLoss="69.50" rerouteNo="0" devices="tripinfo_flow_route_44_duration_20250327_1930.8" vType="car" speedFactor="1.18" vaporized=""/>
    <tripinfo id="flow_route_44_duration_20250327_1930.12" depart="39.00" departLane="791826085_0" departPos="244.46" departSpeed="0.00" departDelay="20.54" arrival="102.00" arrivalLane="134193294#0_2" arrivalPos="78.18" arrivalSpeed="14.21" duration="63.00" routeLength="188.10" waitingTime="31.00" waitingCount="1" stopTime="0.00" timeLoss="51.60" rerouteNo="0" devices="tripinfo_flow_route_44_duration_20250327_1930.12" vType="car" speedFactor="1.00" vaporized=""/>
    <tripinfo id="flow_route_44_duration_20250327_1930.14" depart="43.00" departLane="791826085_0" departPos="177.97" departSpeed="0.00" departDelay="21.47" arrival="102.00" arrivalLane="134193294#0_2" arrivalPos="24.21" arrivalSpeed="12.93" duration="59.00" routeLength="200.62" waitingTime="22.00" waitingCount="1" stopTime="0.00" timeLoss="46.25" rerouteNo="0" devices="tripinfo_flow_route_44_duration_20250327_1930.14" vType="car" speedFactor="1.02" vaporized=""/>
    <tripinfo id="flow_route_46_duration_20250327_1930.2" depart="8.00" departLane="791826085_0" departPos="72.77" departSpeed="0.00" departDelay="1.33" arrival="103.00" arrivalLane="1328664748#0_1" arrivalPos="152.42" arrivalSpeed="15.11" duration="95.00" routeLength="428.44" waitingTime="42.00" waitingCount="1" stopTime="0.00" timeLoss="66.45" rerouteNo="0" devices="tripinfo_flow_route_46_duration_20250327_1930.2" vType="car" speedFactor="0.94" vaporized=""/>
    <tripinfo id="flow_route_45_duration_20250327_1930.4" depart="9.00" departLane="791826085_0" departPos="217.90" departSpeed="0.00" departDelay="0.73" arrival="103.00" arrivalLane="485211947#0_0" arrivalPos="150.40" arrivalSpeed="15.80" duration="94.00" routeLength="268.26" waitingTime="51.00" waitingCount="1" stopTime="0.00" timeLoss="76.14" rerouteNo="0" devices="tripinfo_flow_route_45_duration_20250327_1930.4" vType="car" speedFactor="0.97" vaporized=""/>
    <tripinfo id="flow_route_44_duration_20250327_1930.7" depart="12.00" departLane="791826085_0" departPos="9.08" departSpeed="0.00" departDelay="1.23" arrival="103.00" arrivalLane="134193294#0_1" arrivalPos="84.50" arrivalSpeed="15.04" duration="91.00" routeLength="429.79" waitingTime="35.00" waitingCount="1" stopTime="0.00" timeLoss="63.11" rerouteNo="0" devices="tripinfo_flow_route_44_duration_20250327_1930.7" vType="car" speedFactor="0.95" vaporized=""/>
    <tripinfo id="flow_route_44_duration_20250327_1930.11" depart="33.00" departLane="791826085_0" departPos="145.63" departSpeed="0.00" departDelay="16.08" arrival="105.00" arrivalLane="134193294#0_1" arrivalPos="100.35" arrivalSpeed="15.87" duration="72.00" routeLength="309.10" waitingTime="29.00" waitingCount="1" stopTime="0.00" timeLoss="53.31" rerouteNo="0" devices="tripinfo_flow_route_44_duration_20250327_1930.11" vType="car" speedFactor="1.03" vaporized=""/>
    <tripinfo id="flow_route_44_duration_20250327_1930.16" depart="57.00" departLane="791826085_0" departPos="226.10" departSpeed="0.00" departDelay="32.39" arrival="106.00" arrivalLane="134193294#0_1" arrivalPos="73.91" arrivalSpeed="16.08" duration="49.00" routeLength="202.18" waitingTime="14.00" waitingCount="1" stopTime="0.00" timeLoss="35.69" rerouteNo="0" devices="tripinfo_flow_route_44_duration_20250327_1930.16" vType="car" speedFactor="0.97" vaporized=""/>
    <tripinfo id="flow_route_45_duration_20250327_1930.5" depart="14.00" departLane="791826085_0" departPos="184.96" departSpeed="0.00" departDelay="3.66" arrival="107.00" arrivalLane="485211947#0_0" arrivalPos="107.48" arrivalSpeed="14.81" duration="93.00" routeLength="258.28" waitingTime="47.00" waitingCount="1" stopTime="0.00" timeLoss="76.49" rerouteNo="0" devices="tripinfo_flow_route_45_duration_20250327_1930.5" vType="car" speedFactor="1.13" vaporized=""/>
    <tripinfo id="flow_route_38_duration_20250327_1930.4" depart="17.00" departLane="133126030#0_0" departPos="4.42" departSpeed="0.00" departDelay="2.00" arrival="108.00" arrivalLane="134193294#0_0" arrivalPos="13.72" arrivalSpeed="6.23" duration="91.00" routeLength="204.18" waitingTime="44.00" waitingCount="1" stopTime="0.00" timeLoss="77.81" rerouteNo="0" devices="tripinfo_flow_route_38_duration_20250327_1930.4" vType="car" speedFactor="1.02" vaporized=""/>
    <tripinfo id="flow_route_39_duration_20250327_1930.3" depart="50.00" departLane="133126030#0_0" departPos="28.46" departSpeed="0.00" departDelay="5.00" arrival="115.00" arrivalLane="1328664748#0_1" arrivalPos="67.27" arrivalSpeed="11.14" duration="65.00" routeLength="245.02" waitingTime="28.00" waitingCount="1" stopTime="0.00" timeLoss="48.50" rerouteNo="0" devices="tripinfo_flow_route_39_duration_20250327_1930.3" vType="car" speedFactor="0.89" vaporized=""/>
    <tripinfo id="flow_route_39_duration_20250327_1930.2" depart="34.00" departLane="133126030#0_0" departPos="21.25" departSpeed="0.00" departDelay="4.00" arrival="121.00" arrivalLane="1328664748#0_0" arrivalPos="146.54" arrivalSpeed="16.01" duration="87.00" routeLength="331.50" waitingTime="43.00" waitingCount="1" stopTime="0.00" timeLoss="66.73" rerouteNo="0" devices="tripinfo_flow_route_39_duration_20250327_1930.2" vType="car" speedFactor="1.02" vaporized=""/>
    <tripinfo id="flow_route_38_duration_20250327_1930.11" depart="42.00" departLane="133126030#0_0" departPos="97.89" departSpeed="0.00" departDelay="0.75" arrival="121.00" arrivalLane="134193294#0_0" arrivalPos="126.77" arrivalSpeed="15.57" duration="79.00" routeLength="223.76" waitingTime="43.00" waitingCount="1" stopTime="0.00" timeLoss="64.02" rerouteNo="0" devices="tripinfo_flow_route_38_duration_20250327_1930.11" vType="car" speedFactor="1.06" vaporized=""/>
    <tripinfo id="flow_route_38_duration_20250327_1930.10" depart="38.00" departLane="133126030#0_0" departPos="74.73" departSpeed="0.00" departDelay="0.50" arrival="125.00" arrivalLane="134193294#0_0" arrivalPos="157.48" arrivalSpeed="16.44" duration="87.00" routeLength="277.63" waitingTime="42.00" waitingCount="1" stopTime="0.00" timeLoss="68.93" rerouteNo="0" devices="tripinfo_flow_route_38_duration_20250327_1930.10" vType="car" speedFactor="1.01" vaporized=""/>
    <tripinfo id="flow_route_38_duration_20250327_1930.12" depart="45.00" departLane="133126030#0_0" departPos="57.42" departSpeed="0.00" departDelay="0.00" arrival="125.00" arrivalLane="134193294#0_0" arrivalPos="76.67" arrivalSpeed="12.28" duration="80.00" routeLength="214.13" waitingTime="41.00" waitingCount="1" stopTime="0.00" timeLoss="64.89" rerouteNo="0" devices="tripinfo_flow_route_38_duration_20250327_1930.12" vType="car" speedFactor="0.95" vaporized=""/>
    <tripinfo id="flow_route_38_duration_20250327_1930.15" depart="58.00" departLane="133126030#0_0" departPos="111.97" departSpeed="0.00" departDelay="1.75" arrival="126.00" arrivalLane="134193294#0_0" arrivalPos="69.78" arrivalSpeed="12.54" duration="68.00" routeLength="152.70" waitingTime="36.00" waitingCount="1" stopTime="0.00" timeLoss="57.38" rerouteNo="0" devices="tripinfo_flow_route_38_duration_20250327_1930.15" vType="car" speedFactor="1.03" vaporized=""/>
    <tripinfo id="flow_route_38_duration_20250327_1930.9" depart="34.00" departLane="133126030#0_0" departPos="41.87" departSpeed="0.00" departDelay="0.25" arrival="127.00" arrivalLane="134193294#0_0" arrivalPos="137.53" arrivalSpeed="15.55" duration="93.00" routeLength="290.54" waitingTime="42.00" waitingCount="1" stopTime="0.00" timeLoss="74.31" rerouteNo="0" devices="tripinfo_flow_route_38_duration_20250327_1930.9" vType="car" speedFactor="1.01" vaporized=""/>
    <tripinfo id="flow_route_38_duration_20250327_1930.13" depart="50.00" departLane="133126030#0_0" departPos="40.02" departSpeed="0.00" departDelay="1.25" arrival="129.00" arrivalLane="134193294#0_0" arrivalPos="81.70" arrivalSpeed="13.18" duration="79.00" routeLength="236.56" waitingTime="36.00" waitingCount="1" stopTime="0.00" timeLoss="63.82" rerouteNo="0" devices="tripinfo_flow_route_38_duration_20250327_1930.13" vType="car" speedFactor="1.01" vaporized=""/>
    <tripinfo id="flow_route_38_duration_20250327_1930.14" depart="53.00" departLane="133126030#0_0" departPos="4.93" departSpeed="0.00" departDelay="0.50" arrival="129.00" arrivalLane="134193294#0_0" arrivalPos="61.25" arrivalSpeed="11.82" duration="76.00" routeLength="251.19" waitingTime="33.00" waitingCount="1" stopTime="0.00" timeLoss="60.29" rerouteNo="0" devices="tripinfo_flow_route_38_duration_20250327_1930.14" vType="car" speedFactor="1.10" vaporized=""/>
    <tripinfo id="flow_route_43_duration_20250327_1930.0" depart="0.00" departLane="1328664744#0_0" departPos="1.34" departSpeed="0.00" departDelay="0.00" arrival="173.00" arrivalLane="134193294#0_3" arrivalPos="84.30" arrivalSpeed="12.80" duration="173.00" routeLength="323.03" waitingTime="116.00" waitingCount="3" stopTime="0.00" timeLoss="152.27" rerouteNo="0" devices="tripinfo_flow_route_43_duration_20250327_1930.0" vType="car" speedFactor="1.08" vaporized=""/>
    <tripinfo id="flow_route_43_duration_20250327_1930.3" depart="14.00" departLane="1328664744#0_0" departPos="10.39" departSpeed="0.00" departDelay="0.16" arrival="176.00" arrivalLane="134193294#0_3" arrivalPos="53.84" arrivalSpeed="11.56" duration="162.00" routeLength="283.52" waitingTime="105.00" waitingCount="3" stopTime="0.00" timeLoss="143.86" rerouteNo="0" devices="tripinfo_flow_route_43_duration_20250327_1930.3" vType="car" speedFactor="1.01" vaporized=""/>
    <tripinfo id="flow_route_43_duration_20250327_1930.4" depart="20.00" departLane="1328664744#0_0" departPos="146.82" departSpeed="0.00" departDelay="1.54" arrival="178.00" arrivalLane="134193294#0_3" arrivalPos="121.92" arrivalSpeed="14.63" duration="158.00" routeLength="215.17" waitingTime="109.00" waitingCount="2" stopTime="0.00" timeLoss="143.65" rerouteNo="0" devices="tripinfo_flow_route_43_duration_20250327_1930.4" vType="car" speedFactor="1.09" vaporized=""/>
    <tripinfo id="flow_route_43_duration_20250327_1930.8" depart="37.00" departLane="1328664744#0_0" departPos="48.95" departSpeed="0.00" departDelay="0.08" arrival="183.00" arrivalLane="134193294#0_3" arrivalPos="79.91" arrivalSpeed="13.60" duration="146.00" routeLength="271.03" waitingTime="87.00" waitingCount="2" stopTime="0.00" timeLoss="127.70" rerouteNo="0" devices="tripinfo_flow_route_43_duration_20250327_1930.8" vType="car" speedFactor="0.98" vaporized=""/>
    <tripinfo id="flow_route_43_duration_20250327_1930.5" depart="24.00" departLane="1328664744#0_0" departPos="76.44" departSpeed="0.00" departDelay="0.93" arrival="186.00" arrivalLane="134193294#0_3" arrivalPos="167.80" arrivalSpeed="16.23" duration="162.00" routeLength="331.43" waitingTime="101.00" waitingCount="2" stopTime="0.00" timeLoss="141.01" rerouteNo="0" devices="tripinfo_flow_route_43_duration_20250327_1930.5" vType="car" speedFactor="1.00" vaporized=""/>
    <tripinfo id="flow_route_45_duration_20250327_1930.3" depart="8.00" departLane="791826085_0" departPos="86.12" departSpeed="0.00" departDelay="1.80" arrival="187.00" arrivalLane="485211947#0_0" arrivalPos="5.53" arrivalSpeed="5.25" duration="179.00" routeLength="255.16" waitingTime="124.00" waitingCount="2" stopTime="0.00" timeLoss="161.94" rerouteNo="0" devices="tripinfo_flow_route_45_duration_20250327_1930.3" vType="car" speedFactor="0.94" vaporized=""/>
    <tripinfo id="flow_route_46_duration_20250327_1930.7" depart="53.00" departLane="791826085_0" departPos="241.41" departSpeed="0.00" departDelay="29.67" arrival="189.00" arrivalLane="1328664748#0_1" arrivalPos="34.17" arrivalSpeed="9.45" duration="136.00" routeLength="141.55" waitingTime="100.00" waitingCount="2" stopTime="0.00" timeLoss="126.62" rerouteNo="0" devices="tripinfo_flow_route_46_duration_20250327_1930.7" vType="car" speedFactor="1.14" vaporized=""/>
    <tripinfo id="flow_route_45_duration_20250327_1930.2" depart="5.00" departLane="791826085_0" departPos="51.89" departSpeed="0.00" departDelay="0.86" arrival="195.00" arrivalLane="485211947#0_0" arrivalPos="43.86" arrivalSpeed="9.36" duration="190.00" routeLength="327.73" waitingTime="123.00" waitingCount="2" stopTime="0.00" timeLoss="167.28" rerouteNo="0" devices="tripinfo_flow_route_45_duration_20250327_1930.2" vType="car" speedFactor="0.93" vaporized=""/>
    <tripinfo id="flow_route_44_duration_20250327_1930.13" depart="40.00" departLane="791826085_0" departPos="27.74" departSpeed="0.00" departDelay="20.01" arrival="195.00" arrivalLane="134193294#0_1" arrivalPos="70.52" arrivalSpeed="12.63" duration="155.00" routeLength="397.14" waitingTime="89.00" waitingCount="2" stopTime="0.00" timeLoss="127.40" rerouteNo="0" devices="tripinfo_flow_route_44_duration_20250327_1930.13" vType="car" speedFactor="0.88" vaporized=""/>
    <tripinfo id="flow_route_46_duration_20250327_1930.6" depart="42.00" departLane="791826085_0" departPos="128.64" departSpeed="0.00" departDelay="22.00" arrival="195.00" arrivalLane="1328664748#0_1" arrivalPos="76.29" arrivalSpeed="12.93" duration="153.00" routeLength="296.44" waitingTime="98.00" waitingCount="2" stopTime="0.00" timeLoss="130.57" rerouteNo="0" devices="tripinfo_flow_route_46_duration_20250327_1930.6" vType="car" speedFactor="0.85" vaporized=""/>
    <tripinfo id="flow_route_44_duration_20250327_1930.10" depart="33.00" departLane="791826085_0" departPos="50.01" departSpeed="0.00" departDelay="17.62" arrival="196.00" arrivalLane="134193294#0_1" arrivalPos="105.52" arrivalSpeed="14.04" duration="163.00" routeLength="409.88" waitingTime="89.00" waitingCount="2" stopTime="0.00" timeLoss="135.25" rerouteNo="0" devices="tripinfo_flow_route_44_duration_20250327_1930.10" vType="car" speedFactor="0.90" vaporized=""/>
    <tripinfo id="flow_route_44_duration_20250327_1930.17" depart="61.00" departLane="791826085_0" departPos="25.57" departSpeed="0.00" departDelay="34.85" arrival="197.00" arrivalLane="134193294#0_1" arrivalPos="17.65" arrivalSpeed="10.79" duration="136.00" routeLength="346.45" waitingTime="75.00" waitingCount="2" stopTime="0.00" timeLoss="114.54" rerouteNo="0" devices="tripinfo_flow_route_44_duration_20250327_1930.17" vType="car" speedFactor="1.02" vaporized=""/>
    <tripinfo id="flow_route_46_duration_20250327_1930.9" depart="78.00" departLane="791826085_0" departPos="48.74" departSpeed="0.00" departDelay="48.00" arrival="197.00" arrivalLane="1328664748#0_1" arrivalPos="2.60" arrivalSpeed="8.75" duration="119.00" routeLength="302.64" waitingTime="73.00" waitingCount="1" stopTime="0.00" timeLoss="98.75" rerouteNo="0" devices="tripinfo_flow_route_46_duration_20250327_1930.9" vType="car" speedFactor="0.94" vaporized=""/>
    <tripinfo id="flow_route_46_duration_20250327_1930.5" depart="39.00" departLane="791826085_0" departPos="11.29" departSpeed="0.00" departDelay="22.34" arrival="198.00" arrivalLane="1328664748#0_1" arrivalPos="81.25" arrivalSpeed="12.94" duration="159.00" routeLength="418.74" waitingTime="96.00" waitingCount="2" stopTime="0.00" timeLoss="132.64" rerouteNo="0" devices="tripinfo_flow_route_46_duration_20250327_1930.5" vType="car" speedFactor="1.09" vaporized=""/>
    <tripinfo id="flow_route_45_duration_20250327_1930.1" depart="3.00" departLane="791826085_0" departPos="105.00" departSpeed="0.00" departDelay="0.93" arrival="199.00" arrivalLane="485211947#0_0" arrivalPos="162.24" arrivalSpeed="15.34" duration="196.00" routeLength="392.99" waitingTime="125.00" waitingCount="2" stopTime="0.00" timeLoss="169.21" rerouteNo="0" devices="tripinfo_flow_route_45_duration_20250327_1930.1" vType="car" speedFactor="0.94" vaporized=""/>
    <tripinfo id="flow_route_45_duration_20250327_1930.7" depart="33.00" departLane="791826085_0" departPos="67.67" departSpeed="0.00" departDelay="18.52" arrival="202.00" arrivalLane="485211947#0_0" arrivalPos="53.74" arrivalSpeed="10.82" duration="169.00" routeLength="321.83" waitingTime="101.00" waitingCount="2" stopTime="0.00" timeLoss="148.20" rerouteNo="0" devices="tripinfo_flow_route_45_duration_20250327_1930.7" vType="car" speedFactor="1.10" vaporized=""/>