<?xml version="1.0" encoding="UTF-8"?>

<!-- generated on 2025-05-06 21:08:22 by Eclipse SUMO sumo Version 1.20.0
<configuration xmlns:xsi="http://www.w3.org/2001/XMLSchema-instance" xsi:noNamespaceSchemaLocation="http://sumo.dlr.de/xsd/sumoConfiguration.xsd">

    <input>
        <net-file value="osm.net.xml"/>
        <route-files value="xml/route_rl_cluster_11648561419_11648561420_2271142975_4854142869_4.rou.xml"/>
    </input>

    <output>
        <tripinfo-output value="xml/tripinfo_rl_cluster_11648561419_11648561420_2271142975_4854142869_4.xml"/>
    </output>

    <traci_server>
        <remote-port value="58793"/>
    </traci_server>

</configuration>
-->

<tripinfos xmlns:xsi="http://www.w3.org/2001/XMLSchema-instance" xsi:noNamespaceSchemaLocation="http://sumo.dlr.de/xsd/tripinfo_file.xsd">
    <tripinfo id="flow_route_119_duration_20250327_2250.0" depart="0.00" departLane="134194079#0_0" departPos="151.34" departSpeed="0.00" departDelay="0.00" arrival="22.00" arrivalLane="1253188486#8_0" arrivalPos="1.48" arrivalSpeed="8.74" duration="22.00" routeLength="161.10" waitingTime="0.00" waitingCount="0" stopTime="0.00" timeLoss="11.28" rerouteNo="0" devices="tripinfo_flow_route_119_duration_20250327_2250.0" vType="car" speedFactor="1.09" vaporized=""/>
    <tripinfo id="flow_route_97_duration_20250327_2250.0" depart="0.00" departLane="1328664748#0_0" departPos="149.74" departSpeed="0.00" departDelay="0.00" arrival="27.00" arrivalLane="135474719#0_0" arrivalPos="137.46" arrivalSpeed="15.89" duration="27.00" routeLength="222.45" waitingTime="0.00" waitingCount="0" stopTime="0.00" timeLoss="12.53" rerouteNo="0" devices="tripinfo_flow_route_97_duration_20250327_2250.0" vType="car" speedFactor="1.06" vaporized=""/>
    <tripinfo id="flow_route_98_duration_20250327_2250.0" depart="0.00" departLane="1328664748#0_0" departPos="103.72" departSpeed="0.00" departDelay="0.00" arrival="27.00" arrivalLane="177211987#1_0" arrivalPos="104.29" arrivalSpeed="15.20" duration="27.00" routeLength="249.04" waitingTime="0.00" waitingCount="0" stopTime="0.00" timeLoss="10.90" rerouteNo="0" devices="tripinfo_flow_route_98_duration_20250327_2250.0" vType="car" speedFactor="0.94" vaporized=""/>
    <tripinfo id="flow_route_99_duration_20250327_2250.0" depart="1.00" departLane="1328664748#0_0" departPos="68.32" departSpeed="0.00" departDelay="1.00" arrival="27.00" arrivalLane="1253188486#8_2" arrivalPos="11.16" arrivalSpeed="9.50" duration="26.00" routeLength="200.71" waitingTime="0.00" waitingCount="0" stopTime="0.00" timeLoss="13.34" rerouteNo="0" devices="tripinfo_flow_route_99_duration_20250327_2250.0" vType="car" speedFactor="1.01" vaporized=""/>
    <tripinfo id="flow_route_118_duration_20250327_2250.1" depart="4.00" departLane="134194079#0_0" departPos="277.04" departSpeed="0.00" departDelay="0.67" arrival="27.00" arrivalLane="1328664744#0_0" arrivalPos="140.54" arrivalSpeed="16.43" duration="23.00" routeLength="184.65" waitingTime="0.00" waitingCount="0" stopTime="0.00" timeLoss="11.02" rerouteNo="0" devices="tripinfo_flow_route_118_duration_20250327_2250.1" vType="car" speedFactor="1.03" vaporized=""/>
    <tripinfo id="flow_route_118_duration_20250327_2250.3" depart="10.00" departLane="134194079#0_0" departPos="282.21" departSpeed="0.00" departDelay="0.00" arrival="27.00" arrivalLane="1328664744#0_0" arrivalPos="66.95" arrivalSpeed="12.34" duration="17.00" routeLength="105.88" waitingTime="0.00" waitingCount="0" stopTime="0.00" timeLoss="9.49" rerouteNo="0" devices="tripinfo_flow_route_118_duration_20250327_2250.3" vType="car" speedFactor="0.88" vaporized=""/>
    <tripinfo id="flow_route_118_duration_20250327_2250.2" depart="7.00" departLane="134194079#0_0" departPos="261.87" departSpeed="0.00" departDelay="0.33" arrival="35.00" arrivalLane="1328664744#0_1" arrivalPos="182.87" arrivalSpeed="16.52" duration="28.00" routeLength="242.16" waitingTime="0.00" waitingCount="0" stopTime="0.00" timeLoss="12.70" rerouteNo="0" devices="tripinfo_flow_route_118_duration_20250327_2250.2" vType="car" speedFactor="1.05" vaporized=""/>
    <tripinfo id="flow_route_119_duration_20250327_2250.1" depart="9.00" departLane="134194079#0_0" departPos="160.58" departSpeed="0.00" departDelay="0.43" arrival="38.00" arrivalLane="1253188486#8_0" arrivalPos="97.30" arrivalSpeed="15.26" duration="29.00" routeLength="247.66" waitingTime="0.00" waitingCount="0" stopTime="0.00" timeLoss="12.80" rerouteNo="0" devices="tripinfo_flow_route_119_duration_20250327_2250.1" vType="car" speedFactor="1.12" vaporized=""/>
    <tripinfo id="flow_route_118_duration_20250327_2250.0" depart="0.00" departLane="134194079#0_0" departPos="13.63" departSpeed="0.00" departDelay="0.00" arrival="43.00" arrivalLane="1328664744#0_1" arrivalPos="165.30" arrivalSpeed="14.20" duration="43.00" routeLength="472.83" waitingTime="0.00" waitingCount="0" stopTime="0.00" timeLoss="9.49" rerouteNo="0" devices="tripinfo_flow_route_118_duration_20250327_2250.0" vType="car" speedFactor="0.86" vaporized=""/>
    <tripinfo id="flow_route_118_duration_20250327_2250.9" depart="30.00" departLane="134194079#0_0" departPos="292.74" departSpeed="0.00" departDelay="0.00" arrival="45.00" arrivalLane="1328664744#0_0" arrivalPos="61.86" arrivalSpeed="11.88" duration="15.00" routeLength="90.27" waitingTime="0.00" waitingCount="0" stopTime="0.00" timeLoss="9.45" rerouteNo="0" devices="tripinfo_flow_route_118_duration_20250327_2250.9" vType="car" speedFactor="1.01" vaporized=""/>
    <tripinfo id="flow_route_99_duration_20250327_2250.1" depart="30.00" departLane="1328664748#0_0" departPos="121.65" departSpeed="0.00" departDelay="0.00" arrival="55.00" arrivalLane="1253188486#8_2" arrivalPos="44.98" arrivalSpeed="12.98" duration="25.00" routeLength="181.20" waitingTime="0.00" waitingCount="0" stopTime="0.00" timeLoss="13.22" rerouteNo="0" devices="tripinfo_flow_route_99_duration_20250327_2250.1" vType="car" speedFactor="1.13" vaporized=""/>
    <tripinfo id="flow_route_110_duration_20250327_2250.0" depart="0.00" departLane="1254519225#0.109_0" departPos="3.76" departSpeed="0.00" departDelay="0.00" arrival="81.00" arrivalLane="177211987#1_2" arrivalPos="6.38" arrivalSpeed="7.49" duration="81.00" routeLength="190.24" waitingTime="50.00" waitingCount="1" stopTime="0.00" timeLoss="66.30" rerouteNo="0" devices="tripinfo_flow_route_110_duration_20250327_2250.0" vType="car" speedFactor="0.83" vaporized=""/>
    <tripinfo id="flow_route_109_duration_20250327_2250.1" depart="12.00" departLane="1254519225#0.109_0" departPos="42.74" departSpeed="0.00" departDelay="0.00" arrival="85.00" arrivalLane="1328664744#0_0" arrivalPos="6.62" arrivalSpeed="8.83" duration="73.00" routeLength="138.10" waitingTime="43.00" waitingCount="1" stopTime="0.00" timeLoss="62.58" rerouteNo="0" devices="tripinfo_flow_route_109_duration_20250327_2250.1" vType="car" speedFactor="0.94" vaporized=""/>
    <tripinfo id="flow_route_108_duration_20250327_2250.0" depart="0.00" departLane="1254519225#0.109_0" departPos="35.33" departSpeed="0.00" departDelay="0.00" arrival="89.00" arrivalLane="135474719#0_0" arrivalPos="75.82" arrivalSpeed="13.54" duration="89.00" routeLength="240.24" waitingTime="52.00" waitingCount="1" stopTime="0.00" timeLoss="73.98" rerouteNo="0" devices="tripinfo_flow_route_108_duration_20250327_2250.0" vType="car" speedFactor="1.08" vaporized=""/>
    <tripinfo id="flow_route_109_duration_20250327_2250.0" depart="0.00" departLane="1254519225#0.109_0" departPos="16.50" departSpeed="0.00" departDelay="0.00" arrival="93.00" arrivalLane="1328664744#0_0" arrivalPos="130.88" arrivalSpeed="15.70" duration="93.00" routeLength="288.61" waitingTime="49.00" waitingCount="1" stopTime="0.00" timeLoss="74.48" rerouteNo="0" devices="tripinfo_flow_route_109_duration_20250327_2250.0" vType="car" speedFactor="1.03" vaporized=""/>
    <tripinfo id="flow_route_108_duration_20250327_2250.1" depart="30.00" departLane="1254519225#0.109_0" departPos="57.90" departSpeed="0.00" departDelay="0.00" arrival="93.00" arrivalLane="135474719#0_2" arrivalPos="98.99" arrivalSpeed="15.07" duration="63.00" routeLength="240.84" waitingTime="22.00" waitingCount="2" stopTime="0.00" timeLoss="46.67" rerouteNo="0" devices="tripinfo_flow_route_108_duration_20250327_2250.1" vType="car" speedFactor="0.93" vaporized=""/>
    <tripinfo id="flow_route_109_duration_20250327_2250.3" depart="36.00" departLane="1254519225#0.109_0" departPos="2.92" departSpeed="0.00" departDelay="0.00" arrival="93.00" arrivalLane="1328664744#0_0" arrivalPos="45.96" arrivalSpeed="11.44" duration="57.00" routeLength="217.27" waitingTime="21.00" waitingCount="1" stopTime="0.00" timeLoss="42.63" rerouteNo="0" devices="tripinfo_flow_route_109_duration_20250327_2250.3" vType="car" speedFactor="1.02" vaporized=""/>
    <tripinfo id="flow_route_109_duration_20250327_2250.2" depart="24.00" departLane="1254519225#0.109_0" departPos="37.20" departSpeed="0.00" departDelay="0.00" arrival="99.00" arrivalLane="1328664744#0_0" arrivalPos="148.22" arrivalSpeed="13.27" duration="75.00" routeLength="285.26" waitingTime="33.00" waitingCount="1" stopTime="0.00" timeLoss="52.80" rerouteNo="0" devices="tripinfo_flow_route_109_duration_20250327_2250.2" vType="car" speedFactor="0.83" vaporized=""/>
    <tripinfo id="flow_route_109_duration_20250327_2250.4" depart="48.00" departLane="1254519225#0.109_0" departPos="30.74" departSpeed="0.00" departDelay="0.00" arrival="101.00" arrivalLane="1328664744#0_0" arrivalPos="138.71" arrivalSpeed="16.12" duration="53.00" routeLength="282.20" waitingTime="11.00" waitingCount="1" stopTime="0.00" timeLoss="35.06" rerouteNo="0" devices="tripinfo_flow_route_109_duration_20250327_2250.4" vType="car" speedFactor="1.04" vaporized=""/>
    <tripinfo id="flow_route_114_duration_20250327_2250.0" depart="0.00" departLane="1253188486#4_0" departPos="49.31" departSpeed="0.00" departDelay="0.00" arrival="122.00" arrivalLane="177211987#1_0" arrivalPos="36.23" arrivalSpeed="9.01" duration="122.00" routeLength="153.37" waitingTime="91.00" waitingCount="1" stopTime="0.00" timeLoss="111.50" rerouteNo="0" devices="tripinfo_flow_route_114_duration_20250327_2250.0" vType="car" speedFactor="0.89" vaporized=""/>
    <tripinfo id="flow_route_115_duration_20250327_2250.1" depart="10.00" departLane="1253188486#4_0" departPos="24.37" departSpeed="0.00" departDelay="0.00" arrival="123.00" arrivalLane="1328664744#0_2" arrivalPos="7.19" arrivalSpeed="9.18" duration="113.00" routeLength="168.22" waitingTime="81.00" waitingCount="1" stopTime="0.00" timeLoss="101.39" rerouteNo="0" devices="tripinfo_flow_route_115_duration_20250327_2250.1" vType="car" speedFactor="0.93" vaporized=""/>
    <tripinfo id="flow_route_115_duration_20250327_2250.2" depart="20.00" departLane="1253188486#4_0" departPos="124.32" departSpeed="0.00" departDelay="0.00" arrival="123.00" arrivalLane="1328664744#0_2" arrivalPos="37.26" arrivalSpeed="10.80" duration="103.00" routeLength="98.34" waitingTime="81.00" waitingCount="1" stopTime="0.00" timeLoss="96.11" rerouteNo="0" devices="tripinfo_flow_route_115_duration_20250327_2250.2" vType="car" speedFactor="0.97" vaporized=""/>
    <tripinfo id="flow_route_113_duration_20250327_2250.1" depart="10.00" departLane="1253188486#4_0" departPos="117.09" departSpeed="0.00" departDelay="0.00" arrival="124.00" arrivalLane="1253188486#8_1" arrivalPos="58.08" arrivalSpeed="13.02" duration="114.00" routeLength="139.62" waitingTime="87.00" waitingCount="1" stopTime="0.00" timeLoss="104.93" rerouteNo="0" devices="tripinfo_flow_route_113_duration_20250327_2250.1" vType="car" speedFactor="0.99" vaporized=""/>
    <tripinfo id="flow_route_115_duration_20250327_2250.3" depart="30.00" departLane="1253188486#4_0" departPos="27.41" departSpeed="0.00" departDelay="0.00" arrival="125.00" arrivalLane="1328664744#0_2" arrivalPos="6.18" arrivalSpeed="9.74" duration="95.00" routeLength="164.16" waitingTime="63.00" waitingCount="1" stopTime="0.00" timeLoss="84.22" rerouteNo="0" devices="tripinfo_flow_route_115_duration_20250327_2250.3" vType="car" speedFactor="1.15" vaporized=""/>
    <tripinfo id="flow_route_113_duration_20250327_2250.2" depart="20.00" departLane="1253188486#4_0" departPos="36.97" departSpeed="0.00" departDelay="0.00" arrival="126.00" arrivalLane="1253188486#8_1" arrivalPos="54.74" arrivalSpeed="13.67" duration="106.00" routeLength="216.40" waitingTime="70.00" waitingCount="1" stopTime="0.00" timeLoss="92.60" rerouteNo="0" devices="tripinfo_flow_route_113_duration_20250327_2250.2" vType="car" speedFactor="1.01" vaporized=""/>
    <tripinfo id="flow_route_115_duration_20250327_2250.0" depart="0.00" departLane="1253188486#4_0" departPos="104.70" departSpeed="0.00" departDelay="0.00" arrival="127.00" arrivalLane="1328664744#0_2" arrivalPos="120.97" arrivalSpeed="15.09" duration="127.00" routeLength="201.67" waitingTime="96.00" waitingCount="1" stopTime="0.00" timeLoss="113.44" rerouteNo="0" devices="tripinfo_flow_route_115_duration_20250327_2250.0" vType="car" speedFactor="0.94" vaporized=""/>
    <tripinfo id="flow_route_113_duration_20250327_2250.3" depart="30.00" departLane="1253188486#4_0" departPos="10.26" departSpeed="0.00" departDelay="0.00" arrival="127.00" arrivalLane="1253188486#8_1" arrivalPos="37.25" arrivalSpeed="12.46" duration="97.00" routeLength="225.62" waitingTime="60.00" waitingCount="1" stopTime="0.00" timeLoss="82.93" rerouteNo="0" devices="tripinfo_flow_route_113_duration_20250327_2250.3" vType="car" speedFactor="1.18" vaporized=""/>
    <tripinfo id="flow_route_113_duration_20250327_2250.4" depart="40.00" departLane="1253188486#4_0" departPos="103.95" departSpeed="0.00" departDelay="0.00" arrival="131.00" arrivalLane="1253188486#8_0" arrivalPos="86.32" arrivalSpeed="15.03" duration="91.00" routeLength="181.01" waitingTime="60.00" waitingCount="1" stopTime="0.00" timeLoss="79.59" rerouteNo="0" devices="tripinfo_flow_route_113_duration_20250327_2250.4" vType="car" speedFactor="1.18" vaporized=""/>
    <tripinfo id="flow_route_113_duration_20250327_2250.0" depart="0.00" departLane="1253188486#4_0" departPos="134.10" departSpeed="0.00" departDelay="0.00" arrival="133.00" arrivalLane="1253188486#8_0" arrivalPos="182.35" arrivalSpeed="16.25" duration="133.00" routeLength="246.88" waitingTime="100.00" waitingCount="1" stopTime="0.00" timeLoss="117.59" rerouteNo="0" devices="tripinfo_flow_route_113_duration_20250327_2250.0" vType="car" speedFactor="1.05" vaporized=""/>
    <tripinfo id="flow_route_115_duration_20250327_2250.4" depart="45.00" departLane="1253188486#4_0" departPos="46.37" departSpeed="0.00" departDelay="5.00" arrival="133.00" arrivalLane="1328664744#0_2" arrivalPos="64.34" arrivalSpeed="13.29" duration="88.00" routeLength="203.38" waitingTime="51.00" waitingCount="1" stopTime="0.00" timeLoss="74.71" rerouteNo="0" devices="tripinfo_flow_route_115_duration_20250327_2250.4" vType="car" speedFactor="1.10" vaporized=""/>
    <tripinfo id="flow_route_115_duration_20250327_2250.5" depart="51.00" departLane="1253188486#4_0" departPos="52.51" departSpeed="0.00" departDelay="1.00" arrival="137.00" arrivalLane="1328664744#0_2" arrivalPos="101.11" arrivalSpeed="15.56" duration="86.00" routeLength="234.00" waitingTime="48.00" waitingCount="1" stopTime="0.00" timeLoss="70.88" rerouteNo="0" devices="tripinfo_flow_route_115_duration_20250327_2250.5" vType="car" speedFactor="1.09" vaporized=""/>
    <tripinfo id="flow_route_113_duration_20250327_2250.5" depart="51.00" departLane="1253188486#4_0" departPos="62.96" departSpeed="0.00" departDelay="1.00" arrival="138.00" arrivalLane="1253188486#8_0" arrivalPos="174.37" arrivalSpeed="16.39" duration="87.00" routeLength="310.04" waitingTime="44.00" waitingCount="1" stopTime="0.00" timeLoss="68.17" rerouteNo="0" devices="tripinfo_flow_route_113_duration_20250327_2250.5" vType="car" speedFactor="1.04" vaporized=""/>
    <tripinfo id="flow_route_118_duration_20250327_2250.5" depart="17.00" departLane="134194079#0_0" departPos="121.36" departSpeed="0.00" departDelay="0.34" arrival="158.00" arrivalLane="1328664744#0_1" arrivalPos="27.82" arrivalSpeed="8.80" duration="141.00" routeLength="227.61" waitingTime="105.00" waitingCount="1" stopTime="0.00" timeLoss="127.04" rerouteNo="0" devices="tripinfo_flow_route_118_duration_20250327_2250.5" vType="car" speedFactor="1.16" vaporized=""/>
    <tripinfo id="flow_route_118_duration_20250327_2250.8" depart="29.00" departLane="134194079#0_0" departPos="281.72" departSpeed="0.00" departDelay="2.34" arrival="162.00" arrivalLane="1328664744#0_0" arrivalPos="68.28" arrivalSpeed="12.37" duration="133.00" routeLength="107.72" waitingTime="109.00" waitingCount="1" stopTime="0.00" timeLoss="125.43" rerouteNo="0" devices="tripinfo_flow_route_118_duration_20250327_2250.8" vType="car" speedFactor="0.95" vaporized=""/>
    <tripinfo id="flow_route_118_duration_20250327_2250.11" depart="37.00" departLane="134194079#0_0" departPos="212.97" departSpeed="0.00" departDelay="0.34" arrival="162.00" arrivalLane="1328664744#0_0" arrivalPos="17.75" arrivalSpeed="9.69" duration="125.00" routeLength="125.93" waitingTime="96.00" waitingCount="1" stopTime="0.00" timeLoss="116.65" rerouteNo="0" devices="tripinfo_flow_route_118_duration_20250327_2250.11" vType="car" speedFactor="0.97" vaporized=""/>
    <tripinfo id="flow_route_118_duration_20250327_2250.12" depart="40.00" departLane="134194079#0_0" departPos="181.47" departSpeed="0.00" departDelay="0.00" arrival="162.00" arrivalLane="1328664744#0_2" arrivalPos="47.11" arrivalSpeed="10.72" duration="122.00" routeLength="186.79" waitingTime="88.00" waitingCount="1" stopTime="0.00" timeLoss="109.42" rerouteNo="0" devices="tripinfo_flow_route_118_duration_20250327_2250.12" vType="car" speedFactor="0.90" vaporized=""/>
    <tripinfo id="flow_route_118_duration_20250327_2250.4" depart="14.00" departLane="134194079#0_0" departPos="38.17" departSpeed="0.00" departDelay="0.67" arrival="163.00" arrivalLane="1328664744#0_2" arrivalPos="73.50" arrivalSpeed="12.40" duration="149.00" routeLength="356.48" waitingTime="104.00" waitingCount="1" stopTime="0.00" timeLoss="125.65" rerouteNo="0" devices="tripinfo_flow_route_118_duration_20250327_2250.4" vType="car" speedFactor="0.94" vaporized=""/>
    <tripinfo id="flow_route_118_duration_20250327_2250.14" depart="50.00" departLane="134194079#0_0" departPos="169.24" departSpeed="0.00" departDelay="3.34" arrival="165.00" arrivalLane="1328664744#0_1" arrivalPos="23.23" arrivalSpeed="10.00" duration="115.00" routeLength="175.14" waitingTime="80.00" waitingCount="1" stopTime="0.00" timeLoss="103.96" rerouteNo="0" devices="tripinfo_flow_route_118_duration_20250327_2250.14" vType="car" speedFactor="1.09" vaporized=""/>
    <tripinfo id="flow_route_118_duration_20250327_2250.10" depart="34.00" departLane="134194079#0_0" departPos="100.02" departSpeed="0.00" departDelay="0.67" arrival="167.00" arrivalLane="1328664744#0_1" arrivalPos="69.63" arrivalSpeed="12.53" duration="133.00" routeLength="290.76" waitingTime="89.00" waitingCount="1" stopTime="0.00" timeLoss="115.12" rerouteNo="0" devices="tripinfo_flow_route_118_duration_20250327_2250.10" vType="car" speedFactor="1.17" vaporized=""/>
    <tripinfo id="flow_route_118_duration_20250327_2250.17" depart="57.00" departLane="134194079#0_0" departPos="210.12" departSpeed="0.00" departDelay="0.34" arrival="168.00" arrivalLane="1328664744#0_2" arrivalPos="62.39" arrivalSpeed="13.08" duration="111.00" routeLength="173.42" waitingTime="79.00" waitingCount="1" stopTime="0.00" timeLoss="98.23" rerouteNo="0" devices="tripinfo_flow_route_118_duration_20250327_2250.17" vType="car" speedFactor="0.85" vaporized=""/>
    <tripinfo id="flow_route_118_duration_20250327_2250.6" depart="20.00" departLane="134194079#0_0" departPos="26.26" departSpeed="0.00" departDelay="0.00" arrival="169.00" arrivalLane="1328664744#0_1" arrivalPos="126.81" arrivalSpeed="14.50" duration="149.00" routeLength="421.70" waitingTime="98.00" waitingCount="1" stopTime="0.00" timeLoss="120.37" rerouteNo="0" devices="tripinfo_flow_route_118_duration_20250327_2250.6" vType="car" speedFactor="0.89" vaporized=""/>
    <tripinfo id="flow_route_119_duration_20250327_2250.4" depart="36.00" departLane="134194079#0_0" departPos="53.30" departSpeed="0.00" departDelay="1.72" arrival="169.00" arrivalLane="1253188486#8_0" arrivalPos="21.10" arrivalSpeed="9.14" duration="133.00" routeLength="278.75" waitingTime="79.00" waitingCount="1" stopTime="0.00" timeLoss="115.07" rerouteNo="0" devices="tripinfo_flow_route_119_duration_20250327_2250.4" vType="car" speedFactor="0.99" vaporized=""/>
    <tripinfo id="flow_route_118_duration_20250327_2250.7" depart="24.00" departLane="134194079#0_0" departPos="204.04" departSpeed="0.00" departDelay="0.67" arrival="171.00" arrivalLane="1328664744#0_0" arrivalPos="158.75" arrivalSpeed="14.15" duration="147.00" routeLength="275.86" waitingTime="107.00" waitingCount="1" stopTime="0.00" timeLoss="127.34" rerouteNo="0" devices="tripinfo_flow_route_118_duration_20250327_2250.7" vType="car" speedFactor="0.87" vaporized=""/>
    <tripinfo id="flow_route_118_duration_20250327_2250.13" depart="44.00" departLane="134194079#0_0" departPos="7.03" departSpeed="0.00" departDelay="0.67" arrival="171.00" arrivalLane="1328664744#0_1" arrivalPos="81.01" arrivalSpeed="14.10" duration="127.00" routeLength="395.13" waitingTime="76.00" waitingCount="1" stopTime="0.00" timeLoss="101.87" rerouteNo="0" devices="tripinfo_flow_route_118_duration_20250327_2250.13" vType="car" speedFactor="0.96" vaporized=""/>
    <tripinfo id="flow_route_118_duration_20250327_2250.16" depart="54.00" departLane="134194079#0_0" departPos="230.41" departSpeed="0.00" departDelay="0.67" arrival="172.00" arrivalLane="1328664744#0_2" arrivalPos="146.82" arrivalSpeed="14.60" duration="118.00" routeLength="237.56" waitingTime="82.00" waitingCount="1" stopTime="0.00" timeLoss="101.46" rerouteNo="0" devices="tripinfo_flow_route_118_duration_20250327_2250.16" vType="car" speedFactor="0.88" vaporized=""/>
    <tripinfo id="flow_route_119_duration_20250327_2250.3" depart="27.00" departLane="134194079#0_0" departPos="145.32" departSpeed="0.00" departDelay="1.29" arrival="178.00" arrivalLane="1253188486#8_0" arrivalPos="229.41" arrivalSpeed="16.56" duration="151.00" routeLength="395.04" waitingTime="95.00" waitingCount="1" stopTime="0.00" timeLoss="124.90" rerouteNo="0" devices="tripinfo_flow_route_119_duration_20250327_2250.3" vType="car" speedFactor="0.92" vaporized=""/>
    <tripinfo id="flow_route_118_duration_20250327_2250.15" depart="50.00" departLane="134194079#0_0" departPos="87.42" departSpeed="0.00" departDelay="0.01" arrival="179.00" arrivalLane="1328664744#0_2" arrivalPos="193.86" arrivalSpeed="16.26" duration="129.00" routeLength="427.59" waitingTime="75.00" waitingCount="1" stopTime="0.00" timeLoss="102.64" rerouteNo="0" devices="tripinfo_flow_route_118_duration_20250327_2250.15" vType="car" speedFactor="1.00" vaporized=""/>
    <tripinfo id="flow_route_119_duration_20250327_2250.2" depart="18.00" departLane="134194079#0_0" departPos="77.91" departSpeed="0.00" departDelay="0.86" arrival="180.00" arrivalLane="1253188486#8_0" arrivalPos="236.64" arrivalSpeed="16.37" duration="162.00" routeLength="469.68" waitingTime="95.00" waitingCount="1" stopTime="0.00" timeLoss="132.04" rerouteNo="0" devices="tripinfo_flow_route_119_duration_20250327_2250.2" vType="car" speedFactor="1.02" vaporized=""/>
    <tripinfo id="flow_route_119_duration_20250327_2250.5" depart="43.00" departLane="134194079#0_0" departPos="123.08" departSpeed="0.00" departDelay="0.15" arrival="180.00" arrivalLane="1253188486#8_0" arrivalPos="202.54" arrivalSpeed="16.27" duration="137.00" routeLength="390.41" waitingTime="79.00" waitingCount="1" stopTime="0.00" timeLoss="112.25" rerouteNo="0" devices="tripinfo_flow_route_119_duration_20250327_2250.5" vType="car" speedFactor="1.03" vaporized=""/>
    <tripinfo id="flow_route_119_duration_20250327_2250.6" depart="53.00" departLane="134194079#0_0" departPos="137.58" departSpeed="0.00" departDelay="1.57" arrival="183.00" arrivalLane="1253188486#8_0" arrivalPos="171.61" arrivalSpeed="16.34" duration="130.00" routeLength="344.99" waitingTime="79.00" waitingCount="1" stopTime="0.00" timeLoss="106.73" rerouteNo="0" devices="tripinfo_flow_route_119_duration_20250327_2250.6" vType="car" speedFactor="0.90" vaporized=""/>
</tripinfos>
