<?xml version="1.0" encoding="UTF-8"?>

<!-- generated on 2025-05-06 21:08:05 by Eclipse SUMO sumo Version 1.20.0
<configuration xmlns:xsi="http://www.w3.org/2001/XMLSchema-instance" xsi:noNamespaceSchemaLocation="http://sumo.dlr.de/xsd/sumoConfiguration.xsd">

    <input>
        <net-file value="osm.net.xml"/>
        <route-files value="xml/route_static_cluster_11657899598_353811979_6712514804_2.rou.xml"/>
    </input>

    <output>
        <tripinfo-output value="xml/tripinfo_static_cluster_11657899598_353811979_6712514804_2.xml"/>
    </output>

    <traci_server>
        <remote-port value="58897"/>
    </traci_server>

</configuration>
-->

<tripinfos xmlns:xsi="http://www.w3.org/2001/XMLSchema-instance" xsi:noNamespaceSchemaLocation="http://sumo.dlr.de/xsd/tripinfo_file.xsd">
    <tripinfo id="flow_route_136_duration_20250327_2210.0" depart="0.00" departLane="688883939#0_0" departPos="70.95" departSpeed="0.00" departDelay="0.00" arrival="22.00" arrivalLane="186410975#0_1" arrivalPos="11.74" arrivalSpeed="11.21" duration="22.00" routeLength="133.80" waitingTime="1.00" waitingCount="1" stopTime="0.00" timeLoss="11.77" rerouteNo="0" devices="tripinfo_flow_route_136_duration_20250327_2210.0" vType="car" speedFactor="1.01" vaporized=""/>
    <tripinfo id="flow_route_137_duration_20250327_2210.0" depart="0.00" departLane="1310781056_0" departPos="52.86" departSpeed="0.00" departDelay="0.00" arrival="22.00" arrivalLane="714011134#0_0" arrivalPos="51.79" arrivalSpeed="16.36" duration="22.00" routeLength="192.73" waitingTime="0.00" waitingCount="0" stopTime="0.00" timeLoss="9.79" rerouteNo="0" devices="tripinfo_flow_route_137_duration_20250327_2210.0" vType="car" speedFactor="1.08" vaporized=""/>
    <tripinfo id="flow_route_134_duration_20250327_2210.0" depart="0.00" departLane="688883939#0_0" departPos="78.56" departSpeed="0.00" departDelay="0.00" arrival="28.00" arrivalLane="809719540#0_0" arrivalPos="239.32" arrivalSpeed="16.14" duration="28.00" routeLength="300.42" waitingTime="0.00" waitingCount="0" stopTime="0.00" timeLoss="9.69" rerouteNo="0" devices="tripinfo_flow_route_134_duration_20250327_2210.0" vType="car" speedFactor="1.06" vaporized=""/>
    <tripinfo id="flow_route_139_duration_20250327_2210.0" depart="1.00" departLane="1310781056_0" departPos="36.51" departSpeed="0.00" departDelay="1.00" arrival="28.00" arrivalLane="1254157399#1_1" arrivalPos="26.95" arrivalSpeed="10.22" duration="27.00" routeLength="180.27" waitingTime="0.00" waitingCount="0" stopTime="0.00" timeLoss="13.60" rerouteNo="0" devices="tripinfo_flow_route_139_duration_20250327_2210.0" vType="car" speedFactor="0.83" vaporized=""/>
    <tripinfo id="flow_route_138_duration_20250327_2210.0" depart="1.00" departLane="1310781056_0" departPos="99.29" departSpeed="0.00" departDelay="1.00" arrival="35.00" arrivalLane="186410975#0_0" arrivalPos="152.27" arrivalSpeed="11.22" duration="34.00" routeLength="305.80" waitingTime="0.00" waitingCount="0" stopTime="0.00" timeLoss="10.69" rerouteNo="0" devices="tripinfo_flow_route_138_duration_20250327_2210.0" vType="car" speedFactor="1.03" vaporized=""/>
    <tripinfo id="flow_route_135_duration_20250327_2210.0" depart="0.00" departLane="688883939#0_0" departPos="0.64" departSpeed="0.00" departDelay="0.00" arrival="45.00" arrivalLane="1254157399#1_0" arrivalPos="440.36" arrivalSpeed="16.28" duration="45.00" routeLength="573.44" waitingTime="0.00" waitingCount="0" stopTime="0.00" timeLoss="9.40" rerouteNo="0" devices="tripinfo_flow_route_135_duration_20250327_2210.0" vType="car" speedFactor="0.94" vaporized=""/>
    <tripinfo id="flow_route_152_duration_20250327_2210.0" depart="0.00" departLane="31861355#0_0" departPos="164.48" departSpeed="0.00" departDelay="0.00" arrival="49.00" arrivalLane="714011134#0_1" arrivalPos="26.08" arrivalSpeed="9.73" duration="49.00" routeLength="522.49" waitingTime="0.00" waitingCount="0" stopTime="0.00" timeLoss="13.47" rerouteNo="0" devices="tripinfo_flow_route_152_duration_20250327_2210.0" vType="car" speedFactor="0.89" vaporized=""/>
    <tripinfo id="flow_route_152_duration_20250327_2210.1" depart="10.00" departLane="31861355#0_0" departPos="512.56" departSpeed="0.00" departDelay="2.50" arrival="50.00" arrivalLane="714011134#0_1" arrivalPos="54.06" arrivalSpeed="11.61" duration="40.00" routeLength="202.38" waitingTime="5.00" waitingCount="1" stopTime="0.00" timeLoss="27.51" rerouteNo="0" devices="tripinfo_flow_route_152_duration_20250327_2210.1" vType="car" speedFactor="1.09" vaporized=""/>
    <tripinfo id="flow_route_152_duration_20250327_2210.5" depart="40.00" departLane="31861355#0_0" departPos="596.90" departSpeed="0.00" departDelay="2.50" arrival="59.00" arrivalLane="714011134#0_1" arrivalPos="75.41" arrivalSpeed="14.54" duration="19.00" routeLength="139.39" waitingTime="0.00" waitingCount="0" stopTime="0.00" timeLoss="9.99" rerouteNo="0" devices="tripinfo_flow_route_152_duration_20250327_2210.5" vType="car" speedFactor="0.97" vaporized=""/>
    <tripinfo id="flow_route_152_duration_20250327_2210.6" depart="45.00" departLane="31861355#0_0" departPos="593.77" departSpeed="0.00" departDelay="0.00" arrival="63.00" arrivalLane="714011134#0_1" arrivalPos="61.13" arrivalSpeed="13.85" duration="18.00" routeLength="128.24" waitingTime="0.00" waitingCount="0" stopTime="0.00" timeLoss="8.49" rerouteNo="0" devices="tripinfo_flow_route_152_duration_20250327_2210.6" vType="car" speedFactor="0.87" vaporized=""/>
    <tripinfo id="flow_route_152_duration_20250327_2210.4" depart="31.00" departLane="31861355#0_0" departPos="504.72" departSpeed="0.00" departDelay="1.00" arrival="64.00" arrivalLane="714011134#0_1" arrivalPos="27.83" arrivalSpeed="11.45" duration="33.00" routeLength="183.99" waitingTime="1.00" waitingCount="1" stopTime="0.00" timeLoss="21.90" rerouteNo="0" devices="tripinfo_flow_route_152_duration_20250327_2210.4" vType="car" speedFactor="1.02" vaporized=""/>
    <tripinfo id="flow_route_151_duration_20250327_2210.7" depart="35.00" departLane="31861355#0_0" departPos="415.45" departSpeed="0.00" departDelay="0.00" arrival="68.00" arrivalLane="186410975#0_0" arrivalPos="22.98" arrivalSpeed="10.94" duration="33.00" routeLength="334.74" waitingTime="0.00" waitingCount="0" stopTime="0.00" timeLoss="11.42" rerouteNo="0" devices="tripinfo_flow_route_151_duration_20250327_2210.7" vType="car" speedFactor="1.01" vaporized=""/>
    <tripinfo id="flow_route_152_duration_20250327_2210.2" depart="16.00" departLane="31861355#0_0" departPos="187.64" departSpeed="0.00" departDelay="1.00" arrival="69.00" arrivalLane="714011134#0_1" arrivalPos="57.37" arrivalSpeed="13.74" duration="53.00" routeLength="530.61" waitingTime="0.00" waitingCount="0" stopTime="0.00" timeLoss="20.37" rerouteNo="0" devices="tripinfo_flow_route_152_duration_20250327_2210.2" vType="car" speedFactor="1.12" vaporized=""/>
    <tripinfo id="flow_route_151_duration_20250327_2210.0" depart="0.00" departLane="31861355#0_0" departPos="352.12" departSpeed="0.00" departDelay="0.00" arrival="70.00" arrivalLane="186410975#0_1" arrivalPos="191.84" arrivalSpeed="11.20" duration="70.00" routeLength="566.94" waitingTime="6.00" waitingCount="1" stopTime="0.00" timeLoss="30.11" rerouteNo="0" devices="tripinfo_flow_route_151_duration_20250327_2210.0" vType="car" speedFactor="1.05" vaporized=""/>
    <tripinfo id="flow_route_151_duration_20250327_2210.2" depart="10.00" departLane="31861355#0_0" departPos="551.93" departSpeed="0.00" departDelay="0.00" arrival="73.00" arrivalLane="186410975#0_0" arrivalPos="242.38" arrivalSpeed="11.10" duration="63.00" routeLength="417.65" waitingTime="10.00" waitingCount="1" stopTime="0.00" timeLoss="30.24" rerouteNo="0" devices="tripinfo_flow_route_151_duration_20250327_2210.2" vType="car" speedFactor="1.03" vaporized=""/>
    <tripinfo id="flow_route_153_duration_20250327_2210.0" depart="0.00" departLane="31861355#0_0" departPos="37.47" departSpeed="0.00" departDelay="0.00" arrival="78.00" arrivalLane="809719540#0_0" arrivalPos="146.46" arrivalSpeed="15.29" duration="78.00" routeLength="740.10" waitingTime="0.00" waitingCount="0" stopTime="0.00" timeLoss="28.94" rerouteNo="0" devices="tripinfo_flow_route_153_duration_20250327_2210.0" vType="car" speedFactor="0.94" vaporized=""/>
    <tripinfo id="flow_route_136_duration_20250327_2210.1" depart="30.00" departLane="688883939#0_0" departPos="23.52" departSpeed="0.00" departDelay="0.00" arrival="82.00" arrivalLane="186410975#0_1" arrivalPos="32.36" arrivalSpeed="10.21" duration="52.00" routeLength="201.86" waitingTime="17.00" waitingCount="1" stopTime="0.00" timeLoss="36.01" rerouteNo="0" devices="tripinfo_flow_route_136_duration_20250327_2210.1" vType="car" speedFactor="0.94" vaporized=""/>
    <tripinfo id="flow_route_139_duration_20250327_2210.1" depart="30.00" departLane="1310781056_0" departPos="19.05" departSpeed="0.00" departDelay="0.00" arrival="92.00" arrivalLane="1254157399#1_0" arrivalPos="254.23" arrivalSpeed="16.14" duration="62.00" routeLength="425.02" waitingTime="11.00" waitingCount="1" stopTime="0.00" timeLoss="34.42" rerouteNo="0" devices="tripinfo_flow_route_139_duration_20250327_2210.1" vType="car" speedFactor="0.94" vaporized=""/>
    <tripinfo id="flow_route_152_duration_20250327_2210.7" depart="53.00" departLane="31861355#0_0" departPos="17.31" departSpeed="0.00" departDelay="0.50" arrival="121.00" arrivalLane="714011134#0_1" arrivalPos="16.00" arrivalSpeed="11.81" duration="68.00" routeLength="659.57" waitingTime="2.00" waitingCount="1" stopTime="0.00" timeLoss="26.10" rerouteNo="0" devices="tripinfo_flow_route_152_duration_20250327_2210.7" vType="car" speedFactor="0.95" vaporized=""/>
    <tripinfo id="flow_route_152_duration_20250327_2210.3" depart="23.00" departLane="31861355#0_0" departPos="18.54" departSpeed="0.00" departDelay="0.50" arrival="122.00" arrivalLane="714011134#0_1" arrivalPos="100.82" arrivalSpeed="15.41" duration="99.00" routeLength="743.15" waitingTime="26.00" waitingCount="1" stopTime="0.00" timeLoss="50.15" rerouteNo="0" devices="tripinfo_flow_route_152_duration_20250327_2210.3" vType="car" speedFactor="0.93" vaporized=""/>
    <tripinfo id="flow_route_151_duration_20250327_2210.10" depart="50.00" departLane="31861355#0_0" departPos="398.98" departSpeed="0.00" departDelay="0.00" arrival="124.00" arrivalLane="186410975#0_0" arrivalPos="47.33" arrivalSpeed="9.98" duration="74.00" routeLength="375.56" waitingTime="25.00" waitingCount="1" stopTime="0.00" timeLoss="48.21" rerouteNo="0" devices="tripinfo_flow_route_151_duration_20250327_2210.10" vType="car" speedFactor="0.92" vaporized=""/>
    <tripinfo id="flow_route_151_duration_20250327_2210.3" depart="16.00" departLane="31861355#0_0" departPos="20.16" departSpeed="0.00" departDelay="1.00" arrival="128.00" arrivalLane="186410975#0_1" arrivalPos="102.36" arrivalSpeed="9.03" duration="112.00" routeLength="809.41" waitingTime="27.00" waitingCount="1" stopTime="0.00" timeLoss="60.47" rerouteNo="0" devices="tripinfo_flow_route_151_duration_20250327_2210.3" vType="car" speedFactor="1.05" vaporized=""/>
    <tripinfo id="flow_route_151_duration_20250327_2210.11" depart="55.00" departLane="31861355#0_0" departPos="339.99" departSpeed="0.00" departDelay="0.00" arrival="128.00" arrivalLane="186410975#0_0" arrivalPos="71.97" arrivalSpeed="12.16" duration="73.00" routeLength="459.20" waitingTime="16.00" waitingCount="1" stopTime="0.00" timeLoss="43.44" rerouteNo="0" devices="tripinfo_flow_route_151_duration_20250327_2210.11" vType="car" speedFactor="1.13" vaporized=""/>
    <tripinfo id="flow_route_151_duration_20250327_2210.4" depart="20.00" departLane="31861355#0_0" departPos="98.93" departSpeed="0.00" departDelay="0.00" arrival="133.00" arrivalLane="186410975#0_0" arrivalPos="197.33" arrivalSpeed="10.69" duration="113.00" routeLength="825.60" waitingTime="33.00" waitingCount="1" stopTime="0.00" timeLoss="56.78" rerouteNo="0" devices="tripinfo_flow_route_151_duration_20250327_2210.4" vType="car" speedFactor="0.99" vaporized=""/>
    <tripinfo id="flow_route_151_duration_20250327_2210.1" depart="5.00" departLane="31861355#0_0" departPos="28.73" departSpeed="0.00" departDelay="0.00" arrival="134.00" arrivalLane="186410975#0_1" arrivalPos="176.45" arrivalSpeed="9.34" duration="129.00" routeLength="874.93" waitingTime="35.00" waitingCount="1" stopTime="0.00" timeLoss="62.21" rerouteNo="0" devices="tripinfo_flow_route_151_duration_20250327_2210.1" vType="car" speedFactor="0.86" vaporized=""/>
    <tripinfo id="flow_route_151_duration_20250327_2210.9" depart="45.00" departLane="31861355#0_0" departPos="104.71" departSpeed="0.00" departDelay="0.00" arrival="138.00" arrivalLane="186410975#0_0" arrivalPos="127.14" arrivalSpeed="8.71" duration="93.00" routeLength="749.64" waitingTime="9.00" waitingCount="1" stopTime="0.00" timeLoss="34.50" rerouteNo="0" devices="tripinfo_flow_route_151_duration_20250327_2210.9" vType="car" speedFactor="0.83" vaporized=""/>
    <tripinfo id="flow_route_151_duration_20250327_2210.6" depart="30.00" departLane="31861355#0_0" departPos="355.43" departSpeed="0.00" departDelay="0.00" arrival="139.00" arrivalLane="186410975#0_0" arrivalPos="248.96" arrivalSpeed="12.69" duration="109.00" routeLength="620.74" waitingTime="35.00" waitingCount="1" stopTime="0.00" timeLoss="66.75" rerouteNo="0" devices="tripinfo_flow_route_151_duration_20250327_2210.6" vType="car" speedFactor="1.16" vaporized=""/>
    <tripinfo id="flow_route_151_duration_20250327_2210.5" depart="26.00" departLane="31861355#0_0" departPos="80.45" departSpeed="0.00" departDelay="1.00" arrival="140.00" arrivalLane="186410975#0_0" arrivalPos="176.82" arrivalSpeed="9.57" duration="114.00" routeLength="823.59" waitingTime="21.00" waitingCount="1" stopTime="0.00" timeLoss="51.72" rerouteNo="0" devices="tripinfo_flow_route_151_duration_20250327_2210.5" vType="car" speedFactor="0.88" vaporized=""/>
    <tripinfo id="flow_route_151_duration_20250327_2210.8" depart="40.00" departLane="31861355#0_0" departPos="191.38" departSpeed="0.00" departDelay="0.00" arrival="149.00" arrivalLane="186410975#0_0" arrivalPos="241.35" arrivalSpeed="9.62" duration="109.00" routeLength="777.17" waitingTime="17.00" waitingCount="1" stopTime="0.00" timeLoss="48.21" rerouteNo="0" devices="tripinfo_flow_route_151_duration_20250327_2210.8" vType="car" speedFactor="0.89" vaporized=""/>
</tripinfos>
