<?xml version="1.0" encoding="UTF-8"?>

<!-- generated on 2025-05-06 21:08:36 by Eclipse SUMO sumo Version 1.20.0
<configuration xmlns:xsi="http://www.w3.org/2001/XMLSchema-instance" xsi:noNamespaceSchemaLocation="http://sumo.dlr.de/xsd/sumoConfiguration.xsd">

    <input>
        <net-file value="osm.net.xml"/>
        <route-files value="xml/route_static_cluster_11648561419_11648561420_2271142975_4854142869_5.rou.xml"/>
    </input>

    <output>
        <tripinfo-output value="xml/tripinfo_static_cluster_11648561419_11648561420_2271142975_4854142869_5.xml"/>
    </output>

    <traci_server>
        <remote-port value="36987"/>
    </traci_server>

</configuration>
-->

<tripinfos xmlns:xsi="http://www.w3.org/2001/XMLSchema-instance" xsi:noNamespaceSchemaLocation="http://sumo.dlr.de/xsd/tripinfo_file.xsd">
    <tripinfo id="flow_route_119_duration_20250327_2240.0" depart="0.00" departLane="134194079#0_0" departPos="151.34" departSpeed="0.00" departDelay="0.00" arrival="22.00" arrivalLane="1253188486#8_0" arrivalPos="1.48" arrivalSpeed="8.97" duration="22.00" routeLength="161.10" waitingTime="0.00" waitingCount="0" stopTime="0.00" timeLoss="11.20" rerouteNo="0" devices="tripinfo_flow_route_119_duration_20250327_2240.0" vType="car" speedFactor="1.09" vaporized=""/>
    <tripinfo id="flow_route_97_duration_20250327_2240.0" depart="0.00" departLane="1328664748#0_0" departPos="149.74" departSpeed="0.00" departDelay="0.00" arrival="27.00" arrivalLane="135474719#0_0" arrivalPos="137.46" arrivalSpeed="15.89" duration="27.00" routeLength="222.45" waitingTime="0.00" waitingCount="0" stopTime="0.00" timeLoss="12.53" rerouteNo="0" devices="tripinfo_flow_route_97_duration_20250327_2240.0" vType="car" speedFactor="1.06" vaporized=""/>
    <tripinfo id="flow_route_98_duration_20250327_2240.0" depart="0.00" departLane="1328664748#0_0" departPos="103.72" departSpeed="0.00" departDelay="0.00" arrival="27.00" arrivalLane="177211987#1_0" arrivalPos="104.29" arrivalSpeed="15.20" duration="27.00" routeLength="249.04" waitingTime="0.00" waitingCount="0" stopTime="0.00" timeLoss="10.90" rerouteNo="0" devices="tripinfo_flow_route_98_duration_20250327_2240.0" vType="car" speedFactor="0.94" vaporized=""/>
    <tripinfo id="flow_route_99_duration_20250327_2240.0" depart="1.00" departLane="1328664748#0_0" departPos="68.32" departSpeed="0.00" departDelay="1.00" arrival="27.00" arrivalLane="1253188486#8_2" arrivalPos="11.16" arrivalSpeed="9.72" duration="26.00" routeLength="200.71" waitingTime="0.00" waitingCount="0" stopTime="0.00" timeLoss="13.32" rerouteNo="0" devices="tripinfo_flow_route_99_duration_20250327_2240.0" vType="car" speedFactor="1.01" vaporized=""/>
    <tripinfo id="flow_route_119_duration_20250327_2240.1" depart="6.00" departLane="134194079#0_0" departPos="261.87" departSpeed="0.00" departDelay="0.55" arrival="35.00" arrivalLane="1253188486#8_0" arrivalPos="230.38" arrivalSpeed="16.38" duration="29.00" routeLength="279.47" waitingTime="0.00" waitingCount="0" stopTime="0.00" timeLoss="10.44" rerouteNo="0" devices="tripinfo_flow_route_119_duration_20250327_2240.1" vType="car" speedFactor="1.05" vaporized=""/>
    <tripinfo id="flow_route_118_duration_20250327_2240.1" depart="9.00" departLane="134194079#0_0" departPos="160.58" departSpeed="0.00" departDelay="0.43" arrival="35.00" arrivalLane="1328664744#0_0" arrivalPos="87.98" arrivalSpeed="16.47" duration="26.00" routeLength="248.55" waitingTime="0.00" waitingCount="0" stopTime="0.00" timeLoss="10.84" rerouteNo="0" devices="tripinfo_flow_route_118_duration_20250327_2240.1" vType="car" speedFactor="1.12" vaporized=""/>
    <tripinfo id="flow_route_97_duration_20250327_2240.1" depart="20.00" departLane="1328664748#0_0" departPos="180.60" departSpeed="0.00" departDelay="0.00" arrival="41.00" arrivalLane="135474719#0_0" arrivalPos="88.19" arrivalSpeed="13.49" duration="21.00" routeLength="142.31" waitingTime="0.00" waitingCount="0" stopTime="0.00" timeLoss="11.36" rerouteNo="0" devices="tripinfo_flow_route_97_duration_20250327_2240.1" vType="car" speedFactor="1.01" vaporized=""/>
    <tripinfo id="flow_route_118_duration_20250327_2240.0" depart="0.00" departLane="134194079#0_0" departPos="13.63" departSpeed="0.00" departDelay="0.00" arrival="44.00" arrivalLane="1328664744#0_0" arrivalPos="165.30" arrivalSpeed="13.89" duration="44.00" routeLength="472.83" waitingTime="0.00" waitingCount="0" stopTime="0.00" timeLoss="9.97" rerouteNo="0" devices="tripinfo_flow_route_118_duration_20250327_2240.0" vType="car" speedFactor="0.86" vaporized=""/>
    <tripinfo id="flow_route_99_duration_20250327_2240.1" depart="30.00" departLane="1328664748#0_0" departPos="206.49" departSpeed="0.00" departDelay="0.00" arrival="55.00" arrivalLane="1253188486#8_2" arrivalPos="157.42" arrivalSpeed="16.46" duration="25.00" routeLength="208.80" waitingTime="0.00" waitingCount="0" stopTime="0.00" timeLoss="10.98" rerouteNo="0" devices="tripinfo_flow_route_99_duration_20250327_2240.1" vType="car" speedFactor="0.95" vaporized=""/>
    <tripinfo id="flow_route_110_duration_20250327_2240.0" depart="0.00" departLane="1254519225#0.109_0" departPos="3.76" departSpeed="0.00" departDelay="0.00" arrival="63.00" arrivalLane="177211987#1_2" arrivalPos="6.38" arrivalSpeed="7.70" duration="63.00" routeLength="190.24" waitingTime="32.00" waitingCount="1" stopTime="0.00" timeLoss="48.39" rerouteNo="0" devices="tripinfo_flow_route_110_duration_20250327_2240.0" vType="car" speedFactor="0.83" vaporized=""/>
    <tripinfo id="flow_route_110_duration_20250327_2240.1" depart="20.00" departLane="1254519225#0.109_0" departPos="5.55" departSpeed="0.00" departDelay="0.00" arrival="69.00" arrivalLane="177211987#1_2" arrivalPos="35.33" arrivalSpeed="10.33" duration="49.00" routeLength="217.40" waitingTime="14.00" waitingCount="1" stopTime="0.00" timeLoss="34.51" rerouteNo="0" devices="tripinfo_flow_route_110_duration_20250327_2240.1" vType="car" speedFactor="0.97" vaporized=""/>
    <tripinfo id="flow_route_108_duration_20250327_2240.0" depart="0.00" departLane="1254519225#0.109_0" departPos="35.33" departSpeed="0.00" departDelay="0.00" arrival="70.00" arrivalLane="135474719#0_0" arrivalPos="75.82" arrivalSpeed="13.67" duration="70.00" routeLength="240.24" waitingTime="34.00" waitingCount="1" stopTime="0.00" timeLoss="55.36" rerouteNo="0" devices="tripinfo_flow_route_108_duration_20250327_2240.0" vType="car" speedFactor="1.08" vaporized=""/>
    <tripinfo id="flow_route_109_duration_20250327_2240.2" depart="30.00" departLane="1254519225#0.109_0" departPos="4.18" departSpeed="0.00" departDelay="0.00" arrival="71.00" arrivalLane="1328664744#0_0" arrivalPos="33.68" arrivalSpeed="10.70" duration="41.00" routeLength="203.74" waitingTime="6.00" waitingCount="1" stopTime="0.00" timeLoss="28.04" rerouteNo="0" devices="tripinfo_flow_route_109_duration_20250327_2240.2" vType="car" speedFactor="1.13" vaporized=""/>
    <tripinfo id="flow_route_110_duration_20250327_2240.2" depart="40.00" departLane="1254519225#0.109_0" departPos="51.50" departSpeed="0.00" departDelay="0.00" arrival="72.00" arrivalLane="177211987#1_2" arrivalPos="57.05" arrivalSpeed="12.15" duration="32.00" routeLength="193.16" waitingTime="0.00" waitingCount="0" stopTime="0.00" timeLoss="20.05" rerouteNo="0" devices="tripinfo_flow_route_110_duration_20250327_2240.2" vType="car" speedFactor="1.18" vaporized=""/>
    <tripinfo id="flow_route_109_duration_20250327_2240.3" depart="45.00" departLane="1254519225#0.109_0" departPos="30.74" departSpeed="0.00" departDelay="0.00" arrival="73.00" arrivalLane="1328664744#0_0" arrivalPos="23.23" arrivalSpeed="10.47" duration="28.00" routeLength="166.72" waitingTime="0.00" waitingCount="0" stopTime="0.00" timeLoss="16.00" rerouteNo="0" devices="tripinfo_flow_route_109_duration_20250327_2240.3" vType="car" speedFactor="0.96" vaporized=""/>
    <tripinfo id="flow_route_109_duration_20250327_2240.0" depart="0.00" departLane="1254519225#0.109_0" departPos="16.50" departSpeed="0.00" departDelay="0.00" arrival="74.00" arrivalLane="1328664744#0_0" arrivalPos="130.88" arrivalSpeed="15.61" duration="74.00" routeLength="288.61" waitingTime="33.00" waitingCount="1" stopTime="0.00" timeLoss="55.77" rerouteNo="0" devices="tripinfo_flow_route_109_duration_20250327_2240.0" vType="car" speedFactor="1.03" vaporized=""/>
    <tripinfo id="flow_route_109_duration_20250327_2240.1" depart="15.00" departLane="1254519225#0.109_0" departPos="42.74" departSpeed="0.00" departDelay="0.00" arrival="83.00" arrivalLane="1328664744#0_0" arrivalPos="212.22" arrivalSpeed="14.14" duration="68.00" routeLength="343.71" waitingTime="23.00" waitingCount="1" stopTime="0.00" timeLoss="42.61" rerouteNo="0" devices="tripinfo_flow_route_109_duration_20250327_2240.1" vType="car" speedFactor="0.88" vaporized=""/>
    <tripinfo id="flow_route_115_duration_20250327_2240.1" depart="15.00" departLane="1253188486#4_0" departPos="50.74" departSpeed="0.00" departDelay="0.00" arrival="92.00" arrivalLane="1328664744#0_2" arrivalPos="6.62" arrivalSpeed="8.45" duration="77.00" routeLength="141.27" waitingTime="48.00" waitingCount="1" stopTime="0.00" timeLoss="67.39" rerouteNo="0" devices="tripinfo_flow_route_115_duration_20250327_2240.1" vType="car" speedFactor="0.94" vaporized=""/>
    <tripinfo id="flow_route_114_duration_20250327_2240.0" depart="0.00" departLane="1253188486#4_0" departPos="49.31" departSpeed="0.00" departDelay="0.00" arrival="95.00" arrivalLane="177211987#1_0" arrivalPos="36.23" arrivalSpeed="9.35" duration="95.00" routeLength="153.37" waitingTime="62.00" waitingCount="1" stopTime="0.00" timeLoss="83.79" rerouteNo="0" devices="tripinfo_flow_route_114_duration_20250327_2240.0" vType="car" speedFactor="0.89" vaporized=""/>
    <tripinfo id="flow_route_113_duration_20250327_2240.5" depart="30.00" departLane="1253188486#4_0" departPos="27.41" departSpeed="0.00" departDelay="0.00" arrival="96.00" arrivalLane="1253188486#8_2" arrivalPos="6.83" arrivalSpeed="10.41" duration="66.00" routeLength="178.05" waitingTime="32.00" waitingCount="1" stopTime="0.00" timeLoss="54.74" rerouteNo="0" devices="tripinfo_flow_route_113_duration_20250327_2240.5" vType="car" speedFactor="0.93" vaporized=""/>
    <tripinfo id="flow_route_114_duration_20250327_2240.1" depart="31.00" departLane="1253188486#4_0" departPos="48.07" departSpeed="0.00" departDelay="1.00" arrival="99.00" arrivalLane="177211987#1_0" arrivalPos="40.81" arrivalSpeed="10.82" duration="68.00" routeLength="159.20" waitingTime="36.00" waitingCount="1" stopTime="0.00" timeLoss="57.49" rerouteNo="0" devices="tripinfo_flow_route_114_duration_20250327_2240.1" vType="car" speedFactor="1.18" vaporized=""/>
    <tripinfo id="flow_route_115_duration_20250327_2240.0" depart="0.00" departLane="1253188486#4_0" departPos="104.70" departSpeed="0.00" departDelay="0.00" arrival="100.00" arrivalLane="1328664744#0_2" arrivalPos="120.97" arrivalSpeed="13.94" duration="100.00" routeLength="201.67" waitingTime="68.00" waitingCount="1" stopTime="0.00" timeLoss="86.22" rerouteNo="0" devices="tripinfo_flow_route_115_duration_20250327_2240.0" vType="car" speedFactor="0.94" vaporized=""/>
    <tripinfo id="flow_route_113_duration_20250327_2240.2" depart="13.00" departLane="1253188486#4_0" departPos="24.37" departSpeed="0.00" departDelay="1.00" arrival="100.00" arrivalLane="1253188486#8_1" arrivalPos="74.03" arrivalSpeed="14.37" duration="87.00" routeLength="248.30" waitingTime="49.00" waitingCount="1" stopTime="0.00" timeLoss="71.52" rerouteNo="0" devices="tripinfo_flow_route_113_duration_20250327_2240.2" vType="car" speedFactor="0.93" vaporized=""/>
    <tripinfo id="flow_route_113_duration_20250327_2240.1" depart="6.00" departLane="1253188486#4_0" departPos="126.25" departSpeed="0.00" departDelay="0.00" arrival="103.00" arrivalLane="1253188486#8_1" arrivalPos="155.42" arrivalSpeed="16.38" duration="97.00" routeLength="227.80" waitingTime="65.00" waitingCount="1" stopTime="0.00" timeLoss="82.75" rerouteNo="0" devices="tripinfo_flow_route_113_duration_20250327_2240.1" vType="car" speedFactor="1.03" vaporized=""/>
    <tripinfo id="flow_route_113_duration_20250327_2240.3" depart="19.00" departLane="1253188486#4_0" departPos="25.72" departSpeed="0.00" departDelay="1.00" arrival="104.00" arrivalLane="1253188486#8_1" arrivalPos="100.92" arrivalSpeed="15.79" duration="85.00" routeLength="273.83" waitingTime="45.00" waitingCount="1" stopTime="0.00" timeLoss="68.00" rerouteNo="0" devices="tripinfo_flow_route_113_duration_20250327_2240.3" vType="car" speedFactor="1.16" vaporized=""/>
    <tripinfo id="flow_route_113_duration_20250327_2240.0" depart="0.00" departLane="1253188486#4_0" departPos="134.10" departSpeed="0.00" departDelay="0.00" arrival="105.00" arrivalLane="1253188486#8_0" arrivalPos="182.35" arrivalSpeed="16.25" duration="105.00" routeLength="246.88" waitingTime="72.00" waitingCount="1" stopTime="0.00" timeLoss="89.50" rerouteNo="0" devices="tripinfo_flow_route_113_duration_20250327_2240.0" vType="car" speedFactor="1.05" vaporized=""/>
    <tripinfo id="flow_route_115_duration_20250327_2240.2" depart="32.00" departLane="1253188486#4_0" departPos="13.17" departSpeed="0.00" departDelay="2.00" arrival="106.00" arrivalLane="1328664744#0_2" arrivalPos="121.30" arrivalSpeed="16.11" duration="74.00" routeLength="293.53" waitingTime="31.00" waitingCount="1" stopTime="0.00" timeLoss="55.34" rerouteNo="0" devices="tripinfo_flow_route_115_duration_20250327_2240.2" vType="car" speedFactor="1.15" vaporized=""/>
    <tripinfo id="flow_route_113_duration_20250327_2240.9" depart="54.00" departLane="1253188486#4_0" departPos="19.04" departSpeed="0.00" departDelay="0.00" arrival="107.00" arrivalLane="1253188486#8_0" arrivalPos="68.99" arrivalSpeed="14.07" duration="53.00" routeLength="248.58" waitingTime="13.00" waitingCount="1" stopTime="0.00" timeLoss="37.99" rerouteNo="0" devices="tripinfo_flow_route_113_duration_20250327_2240.9" vType="car" speedFactor="1.00" vaporized=""/>
    <tripinfo id="flow_route_113_duration_20250327_2240.4" depart="26.00" departLane="1253188486#4_0" departPos="75.44" departSpeed="0.00" departDelay="2.00" arrival="109.00" arrivalLane="1253188486#8_0" arrivalPos="169.68" arrivalSpeed="16.52" duration="83.00" routeLength="292.87" waitingTime="41.00" waitingCount="1" stopTime="0.00" timeLoss="64.45" rerouteNo="0" devices="tripinfo_flow_route_113_duration_20250327_2240.4" vType="car" speedFactor="0.83" vaporized=""/>
    <tripinfo id="flow_route_113_duration_20250327_2240.7" depart="42.00" departLane="1253188486#4_0" departPos="63.89" departSpeed="0.00" departDelay="0.00" arrival="110.00" arrivalLane="1253188486#8_0" arrivalPos="143.53" arrivalSpeed="16.49" duration="68.00" routeLength="278.26" waitingTime="28.00" waitingCount="1" stopTime="0.00" timeLoss="51.08" rerouteNo="0" devices="tripinfo_flow_route_113_duration_20250327_2240.7" vType="car" speedFactor="1.10" vaporized=""/>
    <tripinfo id="flow_route_113_duration_20250327_2240.6" depart="38.00" departLane="1253188486#4_0" departPos="32.53" departSpeed="0.00" departDelay="2.00" arrival="111.00" arrivalLane="1253188486#8_1" arrivalPos="177.11" arrivalSpeed="16.23" duration="73.00" routeLength="343.21" waitingTime="26.00" waitingCount="1" stopTime="0.00" timeLoss="52.08" rerouteNo="0" devices="tripinfo_flow_route_113_duration_20250327_2240.6" vType="car" speedFactor="0.99" vaporized=""/>
    <tripinfo id="flow_route_113_duration_20250327_2240.8" depart="49.00" departLane="1253188486#4_0" departPos="62.96" departSpeed="0.00" departDelay="1.00" arrival="111.00" arrivalLane="1253188486#8_1" arrivalPos="140.74" arrivalSpeed="16.57" duration="62.00" routeLength="276.41" waitingTime="21.00" waitingCount="1" stopTime="0.00" timeLoss="44.97" rerouteNo="0" devices="tripinfo_flow_route_113_duration_20250327_2240.8" vType="car" speedFactor="1.04" vaporized=""/>
    <tripinfo id="flow_route_115_duration_20250327_2240.3" depart="49.00" departLane="1253188486#4_0" departPos="45.38" departSpeed="0.00" departDelay="4.00" arrival="113.00" arrivalLane="1328664744#0_2" arrivalPos="194.24" arrivalSpeed="16.54" duration="64.00" routeLength="334.25" waitingTime="20.00" waitingCount="1" stopTime="0.00" timeLoss="42.39" rerouteNo="0" devices="tripinfo_flow_route_115_duration_20250327_2240.3" vType="car" speedFactor="1.09" vaporized=""/>
    <tripinfo id="flow_route_118_duration_20250327_2240.4" depart="35.00" departLane="134194079#0_0" departPos="23.60" departSpeed="0.00" departDelay="0.72" arrival="131.00" arrivalLane="1328664744#0_2" arrivalPos="10.39" arrivalSpeed="7.42" duration="96.00" routeLength="307.94" waitingTime="58.00" waitingCount="1" stopTime="0.00" timeLoss="77.13" rerouteNo="0" devices="tripinfo_flow_route_118_duration_20250327_2240.4" vType="car" speedFactor="1.17" vaporized=""/>
    <tripinfo id="flow_route_97_duration_20250327_2240.2" depart="40.00" departLane="1328664748#0_0" departPos="114.10" departSpeed="0.00" departDelay="0.00" arrival="138.00" arrivalLane="135474719#0_0" arrivalPos="94.90" arrivalSpeed="12.56" duration="98.00" routeLength="215.52" waitingTime="63.00" waitingCount="1" stopTime="0.00" timeLoss="83.62" rerouteNo="0" devices="tripinfo_flow_route_97_duration_20250327_2240.2" vType="car" speedFactor="0.97" vaporized=""/>
    <tripinfo id="flow_route_119_duration_20250327_2240.2" depart="11.00" departLane="134194079#0_0" departPos="9.56" departSpeed="0.00" departDelay="0.09" arrival="139.00" arrivalLane="1253188486#8_0" arrivalPos="58.08" arrivalSpeed="11.56" duration="128.00" routeLength="359.46" waitingTime="77.00" waitingCount="1" stopTime="0.00" timeLoss="104.97" rerouteNo="0" devices="tripinfo_flow_route_119_duration_20250327_2240.2" vType="car" speedFactor="0.99" vaporized=""/>
    <tripinfo id="flow_route_118_duration_20250327_2240.3" depart="26.00" departLane="134194079#0_0" departPos="171.13" departSpeed="0.00" departDelay="0.29" arrival="139.00" arrivalLane="1328664744#0_0" arrivalPos="68.28" arrivalSpeed="12.49" duration="113.00" routeLength="218.30" waitingTime="77.00" waitingCount="1" stopTime="0.00" timeLoss="97.93" rerouteNo="0" devices="tripinfo_flow_route_118_duration_20250327_2240.3" vType="car" speedFactor="0.87" vaporized=""/>
    <tripinfo id="flow_route_119_duration_20250327_2240.8" depart="46.00" departLane="134194079#0_0" departPos="209.69" departSpeed="0.00" departDelay="2.37" arrival="139.00" arrivalLane="1253188486#8_0" arrivalPos="5.85" arrivalSpeed="8.16" duration="93.00" routeLength="107.12" waitingTime="65.00" waitingCount="1" stopTime="0.00" timeLoss="85.52" rerouteNo="0" devices="tripinfo_flow_route_119_duration_20250327_2240.8" vType="car" speedFactor="1.03" vaporized=""/>
    <tripinfo id="flow_route_119_duration_20250327_2240.3" depart="17.00" departLane="134194079#0_0" departPos="36.99" departSpeed="0.00" departDelay="0.64" arrival="140.00" arrivalLane="1253188486#8_0" arrivalPos="31.74" arrivalSpeed="10.32" duration="123.00" routeLength="305.70" waitingTime="77.00" waitingCount="1" stopTime="0.00" timeLoss="102.37" rerouteNo="0" devices="tripinfo_flow_route_119_duration_20250327_2240.3" vType="car" speedFactor="0.94" vaporized=""/>
    <tripinfo id="flow_route_118_duration_20250327_2240.5" depart="45.00" departLane="134194079#0_0" departPos="184.46" departSpeed="0.00" departDelay="2.15" arrival="141.00" arrivalLane="1328664744#0_1" arrivalPos="81.01" arrivalSpeed="13.07" duration="96.00" routeLength="217.71" waitingTime="57.00" waitingCount="1" stopTime="0.00" timeLoss="80.88" rerouteNo="0" devices="tripinfo_flow_route_118_duration_20250327_2240.5" vType="car" speedFactor="0.90" vaporized=""/>
    <tripinfo id="flow_route_118_duration_20250327_2240.6" depart="57.00" departLane="134194079#0_0" departPos="109.63" departSpeed="0.00" departDelay="5.57" arrival="141.00" arrivalLane="1328664744#0_2" arrivalPos="103.45" arrivalSpeed="14.38" duration="84.00" routeLength="314.97" waitingTime="41.00" waitingCount="1" stopTime="0.00" timeLoss="64.87" rerouteNo="0" devices="tripinfo_flow_route_118_duration_20250327_2240.6" vType="car" speedFactor="1.09" vaporized=""/>
    <tripinfo id="flow_route_119_duration_20250327_2240.4" depart="23.00" departLane="134194079#0_0" departPos="175.90" departSpeed="0.00" departDelay="1.18" arrival="143.00" arrivalLane="1253188486#8_0" arrivalPos="163.92" arrivalSpeed="16.05" duration="120.00" routeLength="298.97" waitingTime="79.00" waitingCount="1" stopTime="0.00" timeLoss="99.72" rerouteNo="0" devices="tripinfo_flow_route_119_duration_20250327_2240.4" vType="car" speedFactor="0.89" vaporized=""/>
    <tripinfo id="flow_route_118_duration_20250327_2240.2" depart="18.00" departLane="134194079#0_0" departPos="65.83" departSpeed="0.00" departDelay="0.86" arrival="146.00" arrivalLane="1328664744#0_1" arrivalPos="213.98" arrivalSpeed="16.17" duration="128.00" routeLength="469.31" waitingTime="75.00" waitingCount="1" stopTime="0.00" timeLoss="99.56" rerouteNo="0" devices="tripinfo_flow_route_118_duration_20250327_2240.2" vType="car" speedFactor="1.02" vaporized=""/>
    <tripinfo id="flow_route_119_duration_20250327_2240.5" depart="29.00" departLane="134194079#0_0" departPos="54.09" departSpeed="0.00" departDelay="1.73" arrival="147.00" arrivalLane="1253188486#8_0" arrivalPos="41.32" arrivalSpeed="10.28" duration="118.00" routeLength="298.17" waitingTime="63.00" waitingCount="1" stopTime="0.00" timeLoss="97.20" rerouteNo="0" devices="tripinfo_flow_route_119_duration_20250327_2240.5" vType="car" speedFactor="0.92" vaporized=""/>
    <tripinfo id="flow_route_119_duration_20250327_2240.7" depart="39.00" departLane="134194079#0_0" departPos="124.86" departSpeed="0.00" departDelay="0.82" arrival="153.00" arrivalLane="1253188486#8_0" arrivalPos="166.51" arrivalSpeed="16.35" duration="114.00" routeLength="352.60" waitingTime="64.00" waitingCount="1" stopTime="0.00" timeLoss="91.26" rerouteNo="0" devices="tripinfo_flow_route_119_duration_20250327_2240.7" vType="car" speedFactor="1.02" vaporized=""/>
    <tripinfo id="flow_route_119_duration_20250327_2240.6" depart="34.00" departLane="134194079#0_0" departPos="53.30" departSpeed="0.00" departDelay="1.28" arrival="156.00" arrivalLane="1253188486#8_0" arrivalPos="139.14" arrivalSpeed="15.86" duration="122.00" routeLength="396.79" waitingTime="63.00" waitingCount="1" stopTime="0.00" timeLoss="97.20" rerouteNo="0" devices="tripinfo_flow_route_119_duration_20250327_2240.6" vType="car" speedFactor="1.01" vaporized=""/>
    <tripinfo id="flow_route_119_duration_20250327_2240.9" depart="51.00" departLane="134194079#0_0" departPos="29.95" departSpeed="0.00" departDelay="1.91" arrival="157.00" arrivalLane="1253188486#8_0" arrivalPos="84.12" arrivalSpeed="13.61" duration="106.00" routeLength="365.12" waitingTime="54.00" waitingCount="1" stopTime="0.00" timeLoss="82.51" rerouteNo="0" devices="tripinfo_flow_route_119_duration_20250327_2240.9" vType="car" speedFactor="1.04" vaporized=""/>
    <tripinfo id="flow_route_119_duration_20250327_2240.10" depart="57.00" departLane="134194079#0_0" departPos="141.62" departSpeed="0.00" departDelay="2.46" arrival="161.00" arrivalLane="1253188486#8_0" arrivalPos="175.00" arrivalSpeed="16.45" duration="104.00" routeLength="344.33" waitingTime="55.00" waitingCount="1" stopTime="0.00" timeLoss="80.78" rerouteNo="0" devices="tripinfo_flow_route_119_duration_20250327_2240.10" vType="car" speedFactor="0.90" vaporized=""/>
</tripinfos>
