<?xml version="1.0" encoding="UTF-8"?>

<!-- generated on 2025-05-06 21:08:32 by Eclipse SUMO sumo Version 1.20.0
<configuration xmlns:xsi="http://www.w3.org/2001/XMLSchema-instance" xsi:noNamespaceSchemaLocation="http://sumo.dlr.de/xsd/sumoConfiguration.xsd">

    <input>
        <net-file value="osm.net.xml"/>
        <route-files value="xml/route_rl_cluster_356722183_3828703848_5.rou.xml"/>
    </input>

    <output>
        <tripinfo-output value="xml/tripinfo_rl_cluster_356722183_3828703848_5.xml"/>
    </output>

    <traci_server>
        <remote-port value="37687"/>
    </traci_server>

</configuration>
-->

<tripinfos xmlns:xsi="http://www.w3.org/2001/XMLSchema-instance" xsi:noNamespaceSchemaLocation="http://sumo.dlr.de/xsd/tripinfo_file.xsd">
    <tripinfo id="flow_route_18_duration_20250327_2100.0" depart="0.00" departLane="133126040#0_0" departPos="80.59" departSpeed="0.00" departDelay="0.00" arrival="13.00" arrivalLane="1318893695#0_0" arrivalPos="9.11" arrivalSpeed="9.89" duration="13.00" routeLength="59.37" waitingTime="0.00" waitingCount="0" stopTime="0.00" timeLoss="8.99" rerouteNo="0" devices="tripinfo_flow_route_18_duration_20250327_2100.0" vType="car" speedFactor="1.01" vaporized=""/>
    <tripinfo id="flow_route_1_duration_20250327_2100.0" depart="3.00" departLane="1318793176#1_0" departPos="0.49" departSpeed="0.00" departDelay="3.00" arrival="28.00" arrivalLane="1318793173#0_1" arrivalPos="77.00" arrivalSpeed="15.45" duration="25.00" routeLength="200.41" waitingTime="1.00" waitingCount="1" stopTime="0.00" timeLoss="11.44" rerouteNo="0" devices="tripinfo_flow_route_1_duration_20250327_2100.0" vType="car" speedFactor="0.94" vaporized=""/>
    <tripinfo id="flow_route_0_duration_20250327_2100.0" depart="0.00" departLane="1318793176#1_0" departPos="2.64" departSpeed="0.00" departDelay="0.00" arrival="36.00" arrivalLane="133126031#0_0" arrivalPos="296.30" arrivalSpeed="16.39" duration="36.00" routeLength="414.08" waitingTime="0.00" waitingCount="0" stopTime="0.00" timeLoss="10.40" rerouteNo="0" devices="tripinfo_flow_route_0_duration_20250327_2100.0" vType="car" speedFactor="1.06" vaporized=""/>
    <tripinfo id="flow_route_19_duration_20250327_2100.1" depart="3.00" departLane="133126040#0_0" departPos="33.21" departSpeed="0.00" departDelay="0.39" arrival="41.00" arrivalLane="133126031#0_1" arrivalPos="107.07" arrivalSpeed="14.15" duration="38.00" routeLength="202.73" waitingTime="4.00" waitingCount="1" stopTime="0.00" timeLoss="22.99" rerouteNo="0" devices="tripinfo_flow_route_19_duration_20250327_2100.1" vType="car" speedFactor="0.89" vaporized=""/>
    <tripinfo id="flow_route_19_duration_20250327_2100.4" depart="11.00" departLane="133126040#0_0" departPos="64.49" departSpeed="0.00" departDelay="0.57" arrival="43.00" arrivalLane="133126031#0_1" arrivalPos="29.60" arrivalSpeed="9.32" duration="32.00" routeLength="93.99" waitingTime="1.00" waitingCount="1" stopTime="0.00" timeLoss="24.31" rerouteNo="0" devices="tripinfo_flow_route_19_duration_20250327_2100.4" vType="car" speedFactor="0.88" vaporized=""/>
    <tripinfo id="flow_route_0_duration_20250327_2100.1" depart="9.00" departLane="1318793176#1_0" departPos="2.38" departSpeed="0.00" departDelay="5.67" arrival="44.00" arrivalLane="133126031#0_0" arrivalPos="210.66" arrivalSpeed="16.58" duration="35.00" routeLength="328.70" waitingTime="0.00" waitingCount="0" stopTime="0.00" timeLoss="12.55" rerouteNo="0" devices="tripinfo_flow_route_0_duration_20250327_2100.1" vType="car" speedFactor="0.86" vaporized=""/>
    <tripinfo id="flow_route_0_duration_20250327_2100.4" depart="22.00" departLane="1318793176#1_0" departPos="3.23" departSpeed="0.00" departDelay="8.67" arrival="45.00" arrivalLane="133126031#0_0" arrivalPos="56.00" arrivalSpeed="14.70" duration="23.00" routeLength="173.19" waitingTime="0.00" waitingCount="0" stopTime="0.00" timeLoss="10.82" rerouteNo="0" devices="tripinfo_flow_route_0_duration_20250327_2100.4" vType="car" speedFactor="0.94" vaporized=""/>
    <tripinfo id="flow_route_19_duration_20250327_2100.0" depart="0.00" departLane="133126040#0_0" departPos="0.65" departSpeed="0.00" departDelay="0.00" arrival="46.00" arrivalLane="133126031#0_1" arrivalPos="163.43" arrivalSpeed="16.19" duration="46.00" routeLength="291.65" waitingTime="3.00" waitingCount="1" stopTime="0.00" timeLoss="27.08" rerouteNo="0" devices="tripinfo_flow_route_19_duration_20250327_2100.0" vType="car" speedFactor="1.08" vaporized=""/>
    <tripinfo id="flow_route_0_duration_20250327_2100.3" depart="17.00" departLane="1318793176#1_0" departPos="2.21" departSpeed="0.00" departDelay="7.00" arrival="48.00" arrivalLane="133126031#0_0" arrivalPos="190.09" arrivalSpeed="16.30" duration="31.00" routeLength="308.30" waitingTime="0.00" waitingCount="0" stopTime="0.00" timeLoss="11.27" rerouteNo="0" devices="tripinfo_flow_route_0_duration_20250327_2100.3" vType="car" speedFactor="0.93" vaporized=""/>
    <tripinfo id="flow_route_0_duration_20250327_2100.5" depart="28.00" departLane="1318793176#1_0" departPos="1.33" departSpeed="0.00" departDelay="11.34" arrival="49.00" arrivalLane="133126031#0_0" arrivalPos="28.61" arrivalSpeed="12.88" duration="21.00" routeLength="147.70" waitingTime="0.00" waitingCount="0" stopTime="0.00" timeLoss="10.06" rerouteNo="0" devices="tripinfo_flow_route_0_duration_20250327_2100.5" vType="car" speedFactor="0.89" vaporized=""/>
    <tripinfo id="flow_route_0_duration_20250327_2100.2" depart="16.00" departLane="1318793176#1_0" departPos="10.60" departSpeed="0.00" departDelay="9.33" arrival="53.00" arrivalLane="133126031#0_0" arrivalPos="318.11" arrivalSpeed="16.16" duration="37.00" routeLength="427.94" waitingTime="0.00" waitingCount="0" stopTime="0.00" timeLoss="10.67" rerouteNo="0" devices="tripinfo_flow_route_0_duration_20250327_2100.2" vType="car" speedFactor="1.05" vaporized=""/>
    <tripinfo id="flow_route_19_duration_20250327_2100.3" depart="8.00" departLane="133126040#0_0" departPos="44.49" departSpeed="0.00" departDelay="0.18" arrival="57.00" arrivalLane="133126031#0_1" arrivalPos="110.18" arrivalSpeed="14.89" duration="49.00" routeLength="194.56" waitingTime="3.00" waitingCount="1" stopTime="0.00" timeLoss="35.69" rerouteNo="0" devices="tripinfo_flow_route_19_duration_20250327_2100.3" vType="car" speedFactor="1.12" vaporized=""/>
    <tripinfo id="flow_route_19_duration_20250327_2100.9" depart="24.00" departLane="133126040#0_0" departPos="94.51" departSpeed="0.00" departDelay="0.53" arrival="57.00" arrivalLane="133126031#0_1" arrivalPos="163.84" arrivalSpeed="16.21" duration="33.00" routeLength="198.20" waitingTime="7.00" waitingCount="1" stopTime="0.00" timeLoss="19.41" rerouteNo="0" devices="tripinfo_flow_route_19_duration_20250327_2100.9" vType="car" speedFactor="1.18" vaporized=""/>
    <tripinfo id="flow_route_19_duration_20250327_2100.8" depart="21.00" departLane="133126040#0_0" departPos="105.65" departSpeed="0.00" departDelay="0.14" arrival="58.00" arrivalLane="133126031#0_1" arrivalPos="274.53" arrivalSpeed="16.59" duration="37.00" routeLength="297.75" waitingTime="5.00" waitingCount="2" stopTime="0.00" timeLoss="16.88" rerouteNo="0" devices="tripinfo_flow_route_19_duration_20250327_2100.8" vType="car" speedFactor="0.95" vaporized=""/>
    <tripinfo id="flow_route_19_duration_20250327_2100.6" depart="16.00" departLane="133126040#0_0" departPos="36.67" departSpeed="0.00" departDelay="0.35" arrival="62.00" arrivalLane="133126031#0_1" arrivalPos="22.27" arrivalSpeed="9.50" duration="46.00" routeLength="114.47" waitingTime="5.00" waitingCount="3" stopTime="0.00" timeLoss="37.59" rerouteNo="0" devices="tripinfo_flow_route_19_duration_20250327_2100.6" vType="car" speedFactor="0.97" vaporized=""/>
    <tripinfo id="flow_route_0_duration_20250327_2100.9" depart="44.00" departLane="1318793176#1_0" departPos="1.68" departSpeed="0.00" departDelay="14.00" arrival="63.00" arrivalLane="133126031#0_0" arrivalPos="14.16" arrivalSpeed="11.66" duration="19.00" routeLength="132.90" waitingTime="0.00" waitingCount="0" stopTime="0.00" timeLoss="10.18" rerouteNo="0" devices="tripinfo_flow_route_0_duration_20250327_2100.9" vType="car" speedFactor="0.97" vaporized=""/>
    <tripinfo id="flow_route_19_duration_20250327_2100.15" depart="40.00" departLane="133126040#0_0" departPos="101.26" departSpeed="0.00" departDelay="0.88" arrival="63.00" arrivalLane="133126031#0_1" arrivalPos="130.85" arrivalSpeed="15.24" duration="23.00" routeLength="158.46" waitingTime="1.00" waitingCount="1" stopTime="0.00" timeLoss="11.63" rerouteNo="0" devices="tripinfo_flow_route_19_duration_20250327_2100.15" vType="car" speedFactor="0.88" vaporized=""/>
    <tripinfo id="flow_route_0_duration_20250327_2100.6" depart="34.00" departLane="1318793176#1_0" departPos="8.77" departSpeed="0.00" departDelay="14.00" arrival="65.00" arrivalLane="133126031#0_0" arrivalPos="204.56" arrivalSpeed="16.14" duration="31.00" routeLength="316.21" waitingTime="0.00" waitingCount="0" stopTime="0.00" timeLoss="10.62" rerouteNo="0" devices="tripinfo_flow_route_0_duration_20250327_2100.6" vType="car" speedFactor="0.92" vaporized=""/>
    <tripinfo id="flow_route_19_duration_20250327_2100.2" depart="6.00" departLane="133126040#0_0" departPos="17.21" departSpeed="0.00" departDelay="0.78" arrival="69.00" arrivalLane="133126031#0_1" arrivalPos="181.01" arrivalSpeed="16.34" duration="63.00" routeLength="292.67" waitingTime="4.00" waitingCount="2" stopTime="0.00" timeLoss="43.83" rerouteNo="0" devices="tripinfo_flow_route_19_duration_20250327_2100.2" vType="car" speedFactor="1.09" vaporized=""/>
    <tripinfo id="flow_route_19_duration_20250327_2100.14" depart="37.00" departLane="133126040#0_0" departPos="71.24" departSpeed="0.00" departDelay="0.49" arrival="69.00" arrivalLane="133126031#0_1" arrivalPos="156.39" arrivalSpeed="16.18" duration="32.00" routeLength="214.03" waitingTime="0.00" waitingCount="0" stopTime="0.00" timeLoss="17.87" rerouteNo="0" devices="tripinfo_flow_route_19_duration_20250327_2100.14" vType="car" speedFactor="1.09" vaporized=""/>
    <tripinfo id="flow_route_0_duration_20250327_2100.10" depart="50.00" departLane="1318793176#1_0" departPos="0.37" departSpeed="0.00" departDelay="16.67" arrival="72.00" arrivalLane="133126031#0_0" arrivalPos="34.21" arrivalSpeed="13.38" duration="22.00" routeLength="154.26" waitingTime="1.00" waitingCount="1" stopTime="0.00" timeLoss="11.50" rerouteNo="0" devices="tripinfo_flow_route_0_duration_20250327_2100.10" vType="car" speedFactor="0.96" vaporized=""/>
    <tripinfo id="flow_route_0_duration_20250327_2100.7" depart="36.00" departLane="1318793176#1_0" departPos="1.79" departSpeed="0.00" departDelay="12.67" arrival="73.00" arrivalLane="133126031#0_0" arrivalPos="307.58" arrivalSpeed="16.47" duration="37.00" routeLength="426.21" waitingTime="0.00" waitingCount="0" stopTime="0.00" timeLoss="10.01" rerouteNo="0" devices="tripinfo_flow_route_0_duration_20250327_2100.7" vType="car" speedFactor="0.93" vaporized=""/>
    <tripinfo id="flow_route_0_duration_20250327_2100.8" depart="41.00" departLane="1318793176#1_0" departPos="4.94" departSpeed="0.00" departDelay="14.34" arrival="73.00" arrivalLane="133126031#0_0" arrivalPos="232.61" arrivalSpeed="16.54" duration="32.00" routeLength="348.09" waitingTime="0.00" waitingCount="0" stopTime="0.00" timeLoss="10.76" rerouteNo="0" devices="tripinfo_flow_route_0_duration_20250327_2100.8" vType="car" speedFactor="1.01" vaporized=""/>
    <tripinfo id="flow_route_19_duration_20250327_2100.7" depart="19.00" departLane="133126040#0_0" departPos="45.78" departSpeed="0.00" departDelay="0.74" arrival="76.00" arrivalLane="133126031#0_1" arrivalPos="96.45" arrivalSpeed="13.76" duration="57.00" routeLength="179.55" waitingTime="4.00" waitingCount="4" stopTime="0.00" timeLoss="43.90" rerouteNo="0" devices="tripinfo_flow_route_19_duration_20250327_2100.7" vType="car" speedFactor="0.87" vaporized=""/>
    <tripinfo id="flow_route_48_duration_20250327_2100.0" depart="2.00" departLane="380351865#0_0" departPos="1.03" departSpeed="0.00" departDelay="2.00" arrival="81.00" arrivalLane="133126031#0_0" arrivalPos="14.50" arrivalSpeed="7.86" duration="79.00" routeLength="180.64" waitingTime="45.00" waitingCount="1" stopTime="0.00" timeLoss="61.30" rerouteNo="0" devices="tripinfo_flow_route_48_duration_20250327_2100.0" vType="car" speedFactor="0.83" vaporized=""/>
    <tripinfo id="flow_route_0_duration_20250327_2100.11" depart="50.00" departLane="1318793176#1_0" departPos="8.01" departSpeed="0.00" departDelay="13.34" arrival="84.00" arrivalLane="133126031#0_0" arrivalPos="265.36" arrivalSpeed="16.24" duration="34.00" routeLength="377.77" waitingTime="0.00" waitingCount="0" stopTime="0.00" timeLoss="10.71" rerouteNo="0" devices="tripinfo_flow_route_0_duration_20250327_2100.11" vType="car" speedFactor="1.04" vaporized=""/>
    <tripinfo id="flow_route_19_duration_20250327_2100.20" depart="53.00" departLane="133126040#0_0" departPos="106.24" departSpeed="0.00" departDelay="0.84" arrival="84.00" arrivalLane="133126031#0_1" arrivalPos="245.77" arrivalSpeed="16.25" duration="31.00" routeLength="268.39" waitingTime="1.00" waitingCount="1" stopTime="0.00" timeLoss="13.41" rerouteNo="0" devices="tripinfo_flow_route_19_duration_20250327_2100.20" vType="car" speedFactor="1.12" vaporized=""/>
    <tripinfo id="flow_route_47_duration_20250327_2100.0" depart="0.00" departLane="380351865#0_0" departPos="11.49" departSpeed="0.00" departDelay="0.00" arrival="85.00" arrivalLane="1318793173#0_1" arrivalPos="63.76" arrivalSpeed="11.87" duration="85.00" routeLength="213.71" waitingTime="51.00" waitingCount="1" stopTime="0.00" timeLoss="68.35" rerouteNo="0" devices="tripinfo_flow_route_47_duration_20250327_2100.0" vType="car" speedFactor="1.03" vaporized=""/>
    <tripinfo id="flow_route_47_duration_20250327_2100.1" depart="31.00" departLane="380351865#0_0" departPos="15.44" departSpeed="0.00" departDelay="16.00" arrival="86.00" arrivalLane="1318793173#0_1" arrivalPos="3.01" arrivalSpeed="9.48" duration="55.00" routeLength="149.01" waitingTime="23.00" waitingCount="1" stopTime="0.00" timeLoss="42.00" rerouteNo="0" devices="tripinfo_flow_route_47_duration_20250327_2100.1" vType="car" speedFactor="1.02" vaporized=""/>
    <tripinfo id="flow_route_19_duration_20250327_2100.21" depart="55.00" departLane="133126040#0_0" departPos="97.87" departSpeed="0.00" departDelay="0.23" arrival="88.00" arrivalLane="133126031#0_1" arrivalPos="192.61" arrivalSpeed="16.33" duration="33.00" routeLength="223.61" waitingTime="4.00" waitingCount="2" stopTime="0.00" timeLoss="17.09" rerouteNo="0" devices="tripinfo_flow_route_19_duration_20250327_2100.21" vType="car" speedFactor="0.94" vaporized=""/>
    <tripinfo id="flow_route_49_duration_20250327_2100.0" depart="6.00" departLane="380351865#0_0" departPos="0.55" departSpeed="0.00" departDelay="6.00" arrival="92.00" arrivalLane="1318893695#0_0" arrivalPos="148.83" arrivalSpeed="15.13" duration="86.00" routeLength="292.16" waitingTime="44.00" waitingCount="1" stopTime="0.00" timeLoss="64.10" rerouteNo="0" devices="tripinfo_flow_route_49_duration_20250327_2100.0" vType="car" speedFactor="1.05" vaporized=""/>
    <tripinfo id="flow_route_48_duration_20250327_2100.6" depart="39.00" departLane="380351865#0_0" departPos="15.52" departSpeed="0.00" departDelay="21.00" arrival="94.00" arrivalLane="133126031#0_0" arrivalPos="15.58" arrivalSpeed="9.57" duration="55.00" routeLength="167.23" waitingTime="19.00" waitingCount="1" stopTime="0.00" timeLoss="38.27" rerouteNo="0" devices="tripinfo_flow_route_48_duration_20250327_2100.6" vType="car" speedFactor="0.83" vaporized=""/>
    <tripinfo id="flow_route_47_duration_20250327_2100.2" depart="51.00" departLane="380351865#0_0" departPos="0.13" departSpeed="0.00" departDelay="21.00" arrival="95.00" arrivalLane="1318793173#0_1" arrivalPos="42.22" arrivalSpeed="12.48" duration="44.00" routeLength="203.53" waitingTime="8.00" waitingCount="1" stopTime="0.00" timeLoss="29.57" rerouteNo="0" devices="tripinfo_flow_route_47_duration_20250327_2100.2" vType="car" speedFactor="1.18" vaporized=""/>
    <tripinfo id="flow_route_48_duration_20250327_2100.2" depart="18.00" departLane="380351865#0_0" departPos="1.37" departSpeed="0.00" departDelay="12.00" arrival="96.00" arrivalLane="133126031#0_0" arrivalPos="78.72" arrivalSpeed="12.94" duration="78.00" routeLength="244.52" waitingTime="33.00" waitingCount="1" stopTime="0.00" timeLoss="59.04" rerouteNo="0" devices="tripinfo_flow_route_48_duration_20250327_2100.2" vType="car" speedFactor="1.03" vaporized=""/>
    <tripinfo id="flow_route_48_duration_20250327_2100.5" depart="35.00" departLane="380351865#0_0" departPos="0.25" departSpeed="0.00" departDelay="20.00" arrival="96.00" arrivalLane="133126031#0_1" arrivalPos="92.73" arrivalSpeed="15.61" duration="61.00" routeLength="259.65" waitingTime="21.00" waitingCount="1" stopTime="0.00" timeLoss="41.08" rerouteNo="0" devices="tripinfo_flow_route_48_duration_20250327_2100.5" vType="car" speedFactor="1.01" vaporized=""/>
    <tripinfo id="flow_route_48_duration_20250327_2100.1" depart="13.00" departLane="380351865#0_0" departPos="5.25" departSpeed="0.00" departDelay="10.00" arrival="98.00" arrivalLane="133126031#0_1" arrivalPos="227.33" arrivalSpeed="16.45" duration="85.00" routeLength="389.25" waitingTime="38.00" waitingCount="1" stopTime="0.00" timeLoss="56.32" rerouteNo="0" devices="tripinfo_flow_route_48_duration_20250327_2100.1" vType="car" speedFactor="0.94" vaporized=""/>
    <tripinfo id="flow_route_48_duration_20250327_2100.7" depart="39.00" departLane="380351865#0_0" departPos="7.03" departSpeed="0.00" departDelay="18.00" arrival="104.00" arrivalLane="133126031#0_1" arrivalPos="194.55" arrivalSpeed="16.45" duration="65.00" routeLength="354.69" waitingTime="18.00" waitingCount="1" stopTime="0.00" timeLoss="40.51" rerouteNo="0" devices="tripinfo_flow_route_48_duration_20250327_2100.7" vType="car" speedFactor="1.13" vaporized=""/>
    <tripinfo id="flow_route_47_duration_20250327_2100.3" depart="71.00" departLane="380351865#0_0" departPos="16.98" departSpeed="0.00" departDelay="26.00" arrival="104.00" arrivalLane="1318793173#0_1" arrivalPos="85.32" arrivalSpeed="16.40" duration="33.00" routeLength="229.79" waitingTime="0.00" waitingCount="0" stopTime="0.00" timeLoss="15.91" rerouteNo="0" devices="tripinfo_flow_route_47_duration_20250327_2100.3" vType="car" speedFactor="1.10" vaporized=""/>
    <tripinfo id="flow_route_48_duration_20250327_2100.14" depart="69.00" departLane="380351865#0_0" departPos="2.62" departSpeed="0.00" departDelay="27.00" arrival="105.00" arrivalLane="133126031#0_1" arrivalPos="69.01" arrivalSpeed="14.85" duration="36.00" routeLength="233.55" waitingTime="1.00" waitingCount="1" stopTime="0.00" timeLoss="15.90" rerouteNo="0" devices="tripinfo_flow_route_48_duration_20250327_2100.14" vType="car" speedFactor="0.85" vaporized=""/>
    <tripinfo id="flow_route_48_duration_20250327_2100.15" depart="75.00" departLane="380351865#0_0" departPos="12.64" departSpeed="0.00" departDelay="30.00" arrival="105.00" arrivalLane="133126031#0_0" arrivalPos="38.13" arrivalSpeed="11.92" duration="30.00" routeLength="192.67" waitingTime="0.00" waitingCount="0" stopTime="0.00" timeLoss="14.69" rerouteNo="0" devices="tripinfo_flow_route_48_duration_20250327_2100.15" vType="car" speedFactor="1.00" vaporized=""/>
    <tripinfo id="flow_route_48_duration_20250327_2100.3" depart="25.00" departLane="380351865#0_0" departPos="9.79" departSpeed="0.00" departDelay="16.00" arrival="106.00" arrivalLane="133126031#0_0" arrivalPos="320.76" arrivalSpeed="16.32" duration="81.00" routeLength="478.14" waitingTime="26.00" waitingCount="1" stopTime="0.00" timeLoss="48.07" rerouteNo="0" devices="tripinfo_flow_route_48_duration_20250327_2100.3" vType="car" speedFactor="0.99" vaporized=""/>
    <tripinfo id="flow_route_48_duration_20250327_2100.8" depart="45.00" departLane="380351865#0_0" departPos="1.67" departSpeed="0.00" departDelay="21.00" arrival="106.00" arrivalLane="133126031#0_0" arrivalPos="141.37" arrivalSpeed="16.44" duration="61.00" routeLength="306.87" waitingTime="13.00" waitingCount="1" stopTime="0.00" timeLoss="39.34" rerouteNo="0" devices="tripinfo_flow_route_48_duration_20250327_2100.8" vType="car" speedFactor="1.15" vaporized=""/>
    <tripinfo id="flow_route_48_duration_20250327_2100.17" depart="81.00" departLane="380351865#0_0" departPos="5.17" departSpeed="0.00" departDelay="30.00" arrival="106.00" arrivalLane="133126031#0_1" arrivalPos="39.72" arrivalSpeed="15.82" duration="25.00" routeLength="201.71" waitingTime="0.00" waitingCount="0" stopTime="0.00" timeLoss="10.05" rerouteNo="0" devices="tripinfo_flow_route_48_duration_20250327_2100.17" vType="car" speedFactor="1.08" vaporized=""/>
    <tripinfo id="flow_route_48_duration_20250327_2100.4" depart="31.00" departLane="380351865#0_0" departPos="2.62" departSpeed="0.00" departDelay="19.00" arrival="107.00" arrivalLane="133126031#0_0" arrivalPos="229.99" arrivalSpeed="16.38" duration="76.00" routeLength="394.54" waitingTime="22.00" waitingCount="1" stopTime="0.00" timeLoss="47.16" rerouteNo="0" devices="tripinfo_flow_route_48_duration_20250327_2100.4" vType="car" speedFactor="0.94" vaporized=""/>
    <tripinfo id="flow_route_48_duration_20250327_2100.13" depart="65.00" departLane="380351865#0_0" departPos="9.96" departSpeed="0.00" departDelay="26.00" arrival="107.00" arrivalLane="133126031#0_1" arrivalPos="161.76" arrivalSpeed="16.25" duration="42.00" routeLength="318.96" waitingTime="0.00" waitingCount="0" stopTime="0.00" timeLoss="19.10" rerouteNo="0" devices="tripinfo_flow_route_48_duration_20250327_2100.13" vType="car" speedFactor="1.00" vaporized=""/>
    <tripinfo id="flow_route_0_duration_20250327_2100.12" depart="57.00" departLane="1318793176#1_0" departPos="2.82" departSpeed="0.00" departDelay="17.00" arrival="107.00" arrivalLane="133126031#0_0" arrivalPos="272.47" arrivalSpeed="16.49" duration="50.00" routeLength="390.07" waitingTime="3.00" waitingCount="1" stopTime="0.00" timeLoss="24.30" rerouteNo="0" devices="tripinfo_flow_route_0_duration_20250327_2100.12" vType="car" speedFactor="0.90" vaporized=""/>
    <tripinfo id="flow_route_48_duration_20250327_2100.9" depart="51.00" departLane="380351865#0_0" departPos="7.78" departSpeed="0.00" departDelay="24.00" arrival="108.00" arrivalLane="133126031#0_0" arrivalPos="155.08" arrivalSpeed="16.45" duration="57.00" routeLength="314.47" waitingTime="10.00" waitingCount="1" stopTime="0.00" timeLoss="33.84" rerouteNo="0" devices="tripinfo_flow_route_48_duration_20250327_2100.9" vType="car" speedFactor="0.99" vaporized=""/>
    <tripinfo id="flow_route_48_duration_20250327_2100.11" depart="60.00" departLane="380351865#0_0" departPos="0.23" departSpeed="0.00" departDelay="27.00" arrival="109.00" arrivalLane="133126031#0_1" arrivalPos="226.42" arrivalSpeed="16.33" duration="49.00" routeLength="393.36" waitingTime="0.00" waitingCount="0" stopTime="0.00" timeLoss="21.25" rerouteNo="0" devices="tripinfo_flow_route_48_duration_20250327_2100.11" vType="car" speedFactor="1.03" vaporized=""/>
    <tripinfo id="flow_route_48_duration_20250327_2100.12" depart="62.00" departLane="380351865#0_0" departPos="15.68" departSpeed="0.00" departDelay="26.00" arrival="112.00" arrivalLane="133126031#0_0" arrivalPos="160.52" arrivalSpeed="16.30" duration="50.00" routeLength="312.01" waitingTime="2.00" waitingCount="1" stopTime="0.00" timeLoss="27.48" rerouteNo="0" devices="tripinfo_flow_route_48_duration_20250327_2100.12" vType="car" speedFactor="1.04" vaporized=""/>
    <tripinfo id="flow_route_48_duration_20250327_2100.10" depart="55.00" departLane="380351865#0_0" departPos="3.93" departSpeed="0.00" departDelay="25.00" arrival="114.00" arrivalLane="133126031#0_0" arrivalPos="224.58" arrivalSpeed="16.39" duration="59.00" routeLength="387.82" waitingTime="7.00" waitingCount="1" stopTime="0.00" timeLoss="32.21" rerouteNo="0" devices="tripinfo_flow_route_48_duration_20250327_2100.10" vType="car" speedFactor="1.10" vaporized=""/>
    <tripinfo id="flow_route_19_duration_20250327_2100.19" depart="50.00" departLane="133126040#0_0" departPos="72.05" departSpeed="0.00" departDelay="0.45" arrival="119.00" arrivalLane="133126031#0_1" arrivalPos="28.13" arrivalSpeed="8.80" duration="69.00" routeLength="84.95" waitingTime="38.00" waitingCount="3" stopTime="0.00" timeLoss="62.47" rerouteNo="0" devices="tripinfo_flow_route_19_duration_20250327_2100.19" vType="car" speedFactor="0.97" vaporized=""/>
    <tripinfo id="flow_route_0_duration_20250327_2100.13" depart="61.00" departLane="1318793176#1_0" departPos="0.34" departSpeed="0.00" departDelay="17.67" arrival="121.00" arrivalLane="133126031#0_0" arrivalPos="121.88" arrivalSpeed="14.76" duration="60.00" routeLength="241.97" waitingTime="19.00" waitingCount="1" stopTime="0.00" timeLoss="44.94" rerouteNo="0" devices="tripinfo_flow_route_0_duration_20250327_2100.13" vType="car" speedFactor="1.17" vaporized=""/>
    <tripinfo id="flow_route_0_duration_20250327_2100.14" depart="67.00" departLane="1318793176#1_0" departPos="4.11" departSpeed="0.00" departDelay="20.34" arrival="121.00" arrivalLane="133126031#0_0" arrivalPos="83.30" arrivalSpeed="12.85" duration="54.00" routeLength="199.61" waitingTime="18.00" waitingCount="1" stopTime="0.00" timeLoss="41.01" rerouteNo="0" devices="tripinfo_flow_route_0_duration_20250327_2100.14" vType="car" speedFactor="1.00" vaporized=""/>
    <tripinfo id="flow_route_48_duration_20250327_2100.16" depart="77.00" departLane="380351865#0_0" departPos="6.77" departSpeed="0.00" departDelay="29.00" arrival="124.00" arrivalLane="133126031#0_0" arrivalPos="312.83" arrivalSpeed="16.16" duration="47.00" routeLength="473.23" waitingTime="0.00" waitingCount="0" stopTime="0.00" timeLoss="15.85" rerouteNo="0" devices="tripinfo_flow_route_48_duration_20250327_2100.16" vType="car" speedFactor="1.14" vaporized=""/>
    <tripinfo id="flow_route_0_duration_20250327_2100.15" depart="73.00" departLane="1318793176#1_0" departPos="0.12" departSpeed="0.00" departDelay="23.01" arrival="126.00" arrivalLane="133126031#0_0" arrivalPos="134.12" arrivalSpeed="15.95" duration="53.00" routeLength="254.43" waitingTime="14.00" waitingCount="1" stopTime="0.00" timeLoss="36.74" rerouteNo="0" devices="tripinfo_flow_route_0_duration_20250327_2100.15" vType="car" speedFactor="1.02" vaporized=""/>
    <tripinfo id="flow_route_0_duration_20250327_2100.17" depart="85.00" departLane="1318793176#1_0" departPos="0.18" departSpeed="0.00" departDelay="28.34" arrival="126.00" arrivalLane="133126031#0_0" arrivalPos="76.82" arrivalSpeed="13.91" duration="41.00" routeLength="197.06" waitingTime="7.00" waitingCount="1" stopTime="0.00" timeLoss="27.42" rerouteNo="0" devices="tripinfo_flow_route_0_duration_20250327_2100.17" vType="car" speedFactor="0.88" vaporized=""/>
    <tripinfo id="flow_route_0_duration_20250327_2100.16" depart="79.00" departLane="1318793176#1_0" departPos="2.57" departSpeed="0.00" departDelay="25.67" arrival="128.00" arrivalLane="133126031#0_0" arrivalPos="131.17" arrivalSpeed="16.22" duration="49.00" routeLength="249.02" waitingTime="10.00" waitingCount="1" stopTime="0.00" timeLoss="33.03" rerouteNo="0" devices="tripinfo_flow_route_0_duration_20250327_2100.16" vType="car" speedFactor="1.02" vaporized=""/>
    <tripinfo id="flow_route_19_duration_20250327_2100.11" depart="29.00" departLane="133126040#0_0" departPos="51.92" departSpeed="0.00" departDelay="0.31" arrival="129.00" arrivalLane="133126031#0_1" arrivalPos="46.94" arrivalSpeed="11.53" duration="100.00" routeLength="123.89" waitingTime="56.00" waitingCount="3" stopTime="0.00" timeLoss="91.20" rerouteNo="0" devices="tripinfo_flow_route_19_duration_20250327_2100.11" vType="car" speedFactor="1.02" vaporized=""/>
    <tripinfo id="flow_route_19_duration_20250327_2100.22" depart="58.00" departLane="133126040#0_0" departPos="33.52" departSpeed="0.00" departDelay="0.62" arrival="129.00" arrivalLane="133126031#0_1" arrivalPos="100.55" arrivalSpeed="13.98" duration="71.00" routeLength="195.90" waitingTime="39.00" waitingCount="1" stopTime="0.00" timeLoss="57.07" rerouteNo="0" devices="tripinfo_flow_route_19_duration_20250327_2100.22" vType="car" speedFactor="0.91" vaporized=""/>
    <tripinfo id="flow_route_19_duration_20250327_2100.10" depart="27.00" departLane="133126040#0_0" departPos="30.42" departSpeed="0.00" departDelay="0.92" arrival="133.00" arrivalLane="133126031#0_1" arrivalPos="33.76" arrivalSpeed="10.05" duration="106.00" routeLength="132.22" waitingTime="58.00" waitingCount="4" stopTime="0.00" timeLoss="96.79" rerouteNo="0" devices="tripinfo_flow_route_19_duration_20250327_2100.10" vType="car" speedFactor="1.17" vaporized=""/>
    <tripinfo id="flow_route_19_duration_20250327_2100.5" depart="14.00" departLane="133126040#0_0" departPos="16.42" departSpeed="0.00" departDelay="0.96" arrival="138.00" arrivalLane="133126031#0_1" arrivalPos="317.55" arrivalSpeed="16.41" duration="124.00" routeLength="430.00" waitingTime="40.00" waitingCount="5" stopTime="0.00" timeLoss="96.25" rerouteNo="0" devices="tripinfo_flow_route_19_duration_20250327_2100.5" vType="car" speedFactor="1.16" vaporized=""/>
    <tripinfo id="flow_route_19_duration_20250327_2100.12" depart="32.00" departLane="133126040#0_0" departPos="41.04" departSpeed="0.00" departDelay="0.70" arrival="140.00" arrivalLane="133126031#0_1" arrivalPos="143.28" arrivalSpeed="15.83" duration="108.00" routeLength="231.11" waitingTime="57.00" waitingCount="4" stopTime="0.00" timeLoss="92.09" rerouteNo="0" devices="tripinfo_flow_route_19_duration_20250327_2100.12" vType="car" speedFactor="0.90" vaporized=""/>