<?xml version="1.0" encoding="UTF-8"?>

<!-- generated on 2025-05-06 21:08:37 by Eclipse SUMO sumo Version 1.20.0
<configuration xmlns:xsi="http://www.w3.org/2001/XMLSchema-instance" xsi:noNamespaceSchemaLocation="http://sumo.dlr.de/xsd/sumoConfiguration.xsd">

    <input>
        <net-file value="osm.net.xml"/>
        <route-files value="xml/route_static_GS_cluster_1342409365_3839031467_5.rou.xml"/>
    </input>

    <output>
        <tripinfo-output value="xml/tripinfo_static_GS_cluster_1342409365_3839031467_5.xml"/>
    </output>

    <traci_server>
        <remote-port value="42457"/>
    </traci_server>

</configuration>
-->

<tripinfos xmlns:xsi="http://www.w3.org/2001/XMLSchema-instance" xsi:noNamespaceSchemaLocation="http://sumo.dlr.de/xsd/tripinfo_file.xsd">
    <tripinfo id="flow_route_128_duration_20250327_2140.0" depart="0.00" departLane="134133272_0" departPos="226.49" departSpeed="0.00" departDelay="0.00" arrival="31.00" arrivalLane="380585338#0_0" arrivalPos="7.57" arrivalSpeed="5.61" duration="31.00" routeLength="279.28" waitingTime="0.00" waitingCount="0" stopTime="0.00" timeLoss="10.59" rerouteNo="0" devices="tripinfo_flow_route_128_duration_20250327_2140.0" vType="car" speedFactor="0.83" vaporized=""/>
    <tripinfo id="flow_route_91_duration_20250327_2140.0" depart="0.00" departLane="133000063_0" departPos="128.34" departSpeed="0.00" departDelay="0.00" arrival="47.00" arrivalLane="683079387#1_0" arrivalPos="9.10" arrivalSpeed="16.29" duration="47.00" routeLength="599.49" waitingTime="0.00" waitingCount="0" stopTime="0.00" timeLoss="10.71" rerouteNo="0" devices="tripinfo_flow_route_91_duration_20250327_2140.0" vType="car" speedFactor="1.06" vaporized=""/>
    <tripinfo id="flow_route_128_duration_20250327_2140.1" depart="12.00" departLane="134133272_0" departPos="67.18" departSpeed="0.00" departDelay="0.00" arrival="57.00" arrivalLane="380585338#0_0" arrivalPos="45.86" arrivalSpeed="10.17" duration="45.00" routeLength="476.88" waitingTime="0.00" waitingCount="0" stopTime="0.00" timeLoss="15.42" rerouteNo="0" devices="tripinfo_flow_route_128_duration_20250327_2140.1" vType="car" speedFactor="1.16" vaporized=""/>
    <tripinfo id="flow_route_144_duration_20250327_2140.1" depart="10.00" departLane="683079388#0_0" departPos="8.55" departSpeed="0.00" departDelay="0.00" arrival="61.00" arrivalLane="380585338#0_1" arrivalPos="5.18" arrivalSpeed="13.15" duration="51.00" routeLength="576.36" waitingTime="0.00" waitingCount="0" stopTime="0.00" timeLoss="11.55" rerouteNo="0" devices="tripinfo_flow_route_144_duration_20250327_2140.1" vType="car" speedFactor="0.88" vaporized=""/>
    <tripinfo id="flow_route_93_duration_20250327_2140.0" depart="0.00" departLane="133000063_0" departPos="115.92" departSpeed="0.00" departDelay="0.00" arrival="64.00" arrivalLane="380585336_1" arrivalPos="19.16" arrivalSpeed="16.45" duration="64.00" routeLength="758.54" waitingTime="0.00" waitingCount="0" stopTime="0.00" timeLoss="18.12" rerouteNo="0" devices="tripinfo_flow_route_93_duration_20250327_2140.0" vType="car" speedFactor="1.01" vaporized=""/>
    <tripinfo id="flow_route_103_duration_20250327_2140.0" depart="1.00" departLane="1342963997_0" departPos="57.81" departSpeed="0.00" departDelay="1.00" arrival="67.00" arrivalLane="683079387#1_0" arrivalPos="6.02" arrivalSpeed="16.50" duration="66.00" routeLength="524.42" waitingTime="10.00" waitingCount="1" stopTime="0.00" timeLoss="33.48" rerouteNo="0" devices="tripinfo_flow_route_103_duration_20250327_2140.0" vType="car" speedFactor="1.03" vaporized=""/>
    <tripinfo id="flow_route_145_duration_20250327_2140.0" depart="0.00" departLane="683079388#0_0" departPos="22.61" departSpeed="0.00" departDelay="0.00" arrival="68.00" arrivalLane="380585336_0" arrivalPos="229.76" arrivalSpeed="15.56" duration="68.00" routeLength="831.39" waitingTime="0.00" waitingCount="0" stopTime="0.00" timeLoss="15.30" rerouteNo="0" devices="tripinfo_flow_route_145_duration_20250327_2140.0" vType="car" speedFactor="0.94" vaporized=""/>
    <tripinfo id="flow_route_102_duration_20250327_2140.0" depart="0.00" departLane="1342963997_0" departPos="83.70" departSpeed="0.00" departDelay="0.00" arrival="69.00" arrivalLane="380585336_1" arrivalPos="207.08" arrivalSpeed="16.40" duration="69.00" routeLength="834.32" waitingTime="0.00" waitingCount="0" stopTime="0.00" timeLoss="17.91" rerouteNo="0" devices="tripinfo_flow_route_102_duration_20250327_2140.0" vType="car" speedFactor="1.08" vaporized=""/>
    <tripinfo id="flow_route_129_duration_20250327_2140.0" depart="0.00" departLane="134133272_0" departPos="105.80" departSpeed="0.00" departDelay="0.00" arrival="70.00" arrivalLane="683079387#1_1" arrivalPos="7.59" arrivalSpeed="16.32" duration="70.00" routeLength="945.90" waitingTime="0.00" waitingCount="0" stopTime="0.00" timeLoss="12.64" rerouteNo="0" devices="tripinfo_flow_route_129_duration_20250327_2140.0" vType="car" speedFactor="1.05" vaporized=""/>
    <tripinfo id="flow_route_103_duration_20250327_2140.1" depart="30.00" departLane="1342963997_0" departPos="166.08" departSpeed="0.00" departDelay="0.00" arrival="70.00" arrivalLane="683079387#1_0" arrivalPos="0.24" arrivalSpeed="15.00" duration="40.00" routeLength="410.38" waitingTime="0.00" waitingCount="0" stopTime="0.00" timeLoss="11.41" rerouteNo="0" devices="tripinfo_flow_route_103_duration_20250327_2140.1" vType="car" speedFactor="0.90" vaporized=""/>
    <tripinfo id="flow_route_144_duration_20250327_2140.0" depart="0.00" departLane="683079388#0_0" departPos="1.56" departSpeed="0.00" departDelay="0.00" arrival="72.00" arrivalLane="380585338#0_0" arrivalPos="42.98" arrivalSpeed="9.76" duration="72.00" routeLength="621.16" waitingTime="8.00" waitingCount="1" stopTime="0.00" timeLoss="29.39" rerouteNo="0" devices="tripinfo_flow_route_144_duration_20250327_2140.0" vType="car" speedFactor="0.89" vaporized=""/>
    <tripinfo id="flow_route_144_duration_20250327_2140.2" depart="20.00" departLane="683079388#0_0" departPos="23.96" departSpeed="0.00" departDelay="0.00" arrival="74.00" arrivalLane="380585338#0_1" arrivalPos="111.42" arrivalSpeed="15.08" duration="54.00" routeLength="667.20" waitingTime="0.00" waitingCount="0" stopTime="0.00" timeLoss="10.08" rerouteNo="0" devices="tripinfo_flow_route_144_duration_20250327_2140.2" vType="car" speedFactor="0.92" vaporized=""/>
    <tripinfo id="flow_route_145_duration_20250327_2140.1" depart="20.00" departLane="683079388#0_0" departPos="1.73" departSpeed="0.00" departDelay="0.00" arrival="77.00" arrivalLane="380585336_0" arrivalPos="63.98" arrivalSpeed="14.50" duration="57.00" routeLength="686.49" waitingTime="0.00" waitingCount="0" stopTime="0.00" timeLoss="14.08" rerouteNo="0" devices="tripinfo_flow_route_145_duration_20250327_2140.1" vType="car" speedFactor="0.95" vaporized=""/>
    <tripinfo id="flow_route_144_duration_20250327_2140.3" depart="30.00" departLane="683079388#0_0" departPos="12.72" departSpeed="0.00" departDelay="0.00" arrival="80.00" arrivalLane="380585338#0_0" arrivalPos="52.57" arrivalSpeed="16.49" duration="50.00" routeLength="619.59" waitingTime="0.00" waitingCount="0" stopTime="0.00" timeLoss="11.71" rerouteNo="0" devices="tripinfo_flow_route_144_duration_20250327_2140.3" vType="car" speedFactor="1.03" vaporized=""/>
    <tripinfo id="flow_route_93_duration_20250327_2140.3" depart="8.00" departLane="133000063_0" departPos="131.68" departSpeed="0.00" departDelay="1.08" arrival="82.00" arrivalLane="380585336_1" arrivalPos="229.35" arrivalSpeed="16.46" duration="74.00" routeLength="952.96" waitingTime="0.00" waitingCount="0" stopTime="0.00" timeLoss="15.81" rerouteNo="0" devices="tripinfo_flow_route_93_duration_20250327_2140.3" vType="car" speedFactor="1.12" vaporized=""/>
    <tripinfo id="flow_route_92_duration_20250327_2140.2" depart="7.00" departLane="133000063_0" departPos="5.58" departSpeed="0.00" departDelay="0.69" arrival="86.00" arrivalLane="186409193_0" arrivalPos="23.17" arrivalSpeed="15.42" duration="79.00" routeLength="409.44" waitingTime="23.00" waitingCount="2" stopTime="0.00" timeLoss="53.17" rerouteNo="0" devices="tripinfo_flow_route_92_duration_20250327_2140.2" vType="car" speedFactor="1.05" vaporized=""/>
    <tripinfo id="flow_route_128_duration_20250327_2140.3" depart="36.00" departLane="134133272_0" departPos="264.71" departSpeed="0.00" departDelay="0.00" arrival="86.00" arrivalLane="380585338#0_0" arrivalPos="17.63" arrivalSpeed="6.06" duration="50.00" routeLength="251.12" waitingTime="16.00" waitingCount="1" stopTime="0.00" timeLoss="34.06" rerouteNo="0" devices="tripinfo_flow_route_128_duration_20250327_2140.3" vType="car" speedFactor="1.00" vaporized=""/>
    <tripinfo id="flow_route_128_duration_20250327_2140.2" depart="24.00" departLane="134133272_0" departPos="32.00" departSpeed="0.00" departDelay="0.00" arrival="91.00" arrivalLane="380585338#0_0" arrivalPos="31.37" arrivalSpeed="8.14" duration="67.00" routeLength="497.57" waitingTime="14.00" waitingCount="1" stopTime="0.00" timeLoss="35.82" rerouteNo="0" devices="tripinfo_flow_route_128_duration_20250327_2140.2" vType="car" speedFactor="1.01" vaporized=""/>
    <tripinfo id="flow_route_92_duration_20250327_2140.1" depart="4.00" departLane="133000063_0" departPos="109.11" departSpeed="0.00" departDelay="0.84" arrival="92.00" arrivalLane="186409193_0" arrivalPos="29.97" arrivalSpeed="16.04" duration="88.00" routeLength="312.72" waitingTime="36.00" waitingCount="1" stopTime="0.00" timeLoss="68.35" rerouteNo="0" devices="tripinfo_flow_route_92_duration_20250327_2140.1" vType="car" speedFactor="1.09" vaporized=""/>
    <tripinfo id="flow_route_92_duration_20250327_2140.0" depart="0.00" departLane="133000063_0" departPos="1.04" departSpeed="0.00" departDelay="0.00" arrival="98.00" arrivalLane="186409193_0" arrivalPos="41.62" arrivalSpeed="15.16" duration="98.00" routeLength="432.44" waitingTime="23.00" waitingCount="2" stopTime="0.00" timeLoss="69.26" rerouteNo="0" devices="tripinfo_flow_route_92_duration_20250327_2140.0" vType="car" speedFactor="0.94" vaporized=""/>
    <tripinfo id="flow_route_92_duration_20250327_2140.3" depart="11.00" departLane="133000063_0" departPos="22.28" departSpeed="0.00" departDelay="1.53" arrival="101.00" arrivalLane="186409193_0" arrivalPos="9.30" arrivalSpeed="12.18" duration="90.00" routeLength="378.87" waitingTime="22.00" waitingCount="2" stopTime="0.00" timeLoss="66.10" rerouteNo="0" devices="tripinfo_flow_route_92_duration_20250327_2140.3" vType="car" speedFactor="0.99" vaporized=""/>
    <tripinfo id="flow_route_92_duration_20250327_2140.5" depart="26.00" departLane="133000063_0" departPos="36.58" departSpeed="0.00" departDelay="10.22" arrival="107.00" arrivalLane="186409193_0" arrivalPos="54.63" arrivalSpeed="14.78" duration="81.00" routeLength="409.91" waitingTime="7.00" waitingCount="1" stopTime="0.00" timeLoss="54.82" rerouteNo="0" devices="tripinfo_flow_route_92_duration_20250327_2140.5" vType="car" speedFactor="0.97" vaporized=""/>
    <tripinfo id="flow_route_92_duration_20250327_2140.6" depart="29.00" departLane="133000063_0" departPos="100.76" departSpeed="0.00" departDelay="10.06" arrival="107.00" arrivalLane="186409193_0" arrivalPos="9.84" arrivalSpeed="13.57" duration="78.00" routeLength="300.93" waitingTime="6.00" waitingCount="1" stopTime="0.00" timeLoss="54.53" rerouteNo="0" devices="tripinfo_flow_route_92_duration_20250327_2140.6" vType="car" speedFactor="0.83" vaporized=""/>
    <tripinfo id="flow_route_128_duration_20250327_2140.4" depart="48.00" departLane="134133272_0" departPos="5.85" departSpeed="0.00" departDelay="0.00" arrival="107.00" arrivalLane="380585338#0_0" arrivalPos="164.06" arrivalSpeed="16.06" duration="59.00" routeLength="656.41" waitingTime="0.00" waitingCount="0" stopTime="0.00" timeLoss="16.73" rerouteNo="0" devices="tripinfo_flow_route_128_duration_20250327_2140.4" vType="car" speedFactor="0.97" vaporized=""/>
    <tripinfo id="flow_route_91_duration_20250327_2140.2" depart="42.00" departLane="133000063_0" departPos="59.35" departSpeed="0.00" departDelay="18.00" arrival="109.00" arrivalLane="683079387#1_1" arrivalPos="5.79" arrivalSpeed="16.21" duration="67.00" routeLength="665.17" waitingTime="0.00" waitingCount="0" stopTime="0.00" timeLoss="26.50" rerouteNo="0" devices="tripinfo_flow_route_91_duration_20250327_2140.2" vType="car" speedFactor="1.18" vaporized=""/>
    <tripinfo id="flow_route_91_duration_20250327_2140.1" depart="14.00" departLane="133000063_0" departPos="115.08" departSpeed="0.00" departDelay="2.00" arrival="113.00" arrivalLane="683079387#1_0" arrivalPos="4.20" arrivalSpeed="15.30" duration="99.00" routeLength="607.85" waitingTime="32.00" waitingCount="1" stopTime="0.00" timeLoss="59.84" rerouteNo="0" devices="tripinfo_flow_route_91_duration_20250327_2140.1" vType="car" speedFactor="0.94" vaporized=""/>
    <tripinfo id="flow_route_92_duration_20250327_2140.4" depart="20.00" departLane="133000063_0" departPos="4.79" departSpeed="0.00" departDelay="7.37" arrival="114.00" arrivalLane="186409193_0" arrivalPos="33.39" arrivalSpeed="15.49" duration="94.00" routeLength="420.46" waitingTime="5.00" waitingCount="2" stopTime="0.00" timeLoss="67.42" rerouteNo="0" devices="tripinfo_flow_route_92_duration_20250327_2140.4" vType="car" speedFactor="1.02" vaporized=""/>
    <tripinfo id="flow_route_102_duration_20250327_2140.1" depart="30.00" departLane="1342963997_0" departPos="112.27" departSpeed="0.00" departDelay="0.00" arrival="116.00" arrivalLane="380585336_0" arrivalPos="411.59" arrivalSpeed="16.41" duration="86.00" routeLength="1010.28" waitingTime="1.00" waitingCount="1" stopTime="0.00" timeLoss="24.76" rerouteNo="0" devices="tripinfo_flow_route_102_duration_20250327_2140.1" vType="car" speedFactor="1.10" vaporized=""/>
    <tripinfo id="flow_route_145_duration_20250327_2140.2" depart="40.00" departLane="683079388#0_0" departPos="25.26" departSpeed="0.00" departDelay="0.00" arrival="116.00" arrivalLane="380585336_0" arrivalPos="202.26" arrivalSpeed="16.41" duration="76.00" routeLength="801.24" waitingTime="3.00" waitingCount="1" stopTime="0.00" timeLoss="26.92" rerouteNo="0" devices="tripinfo_flow_route_145_duration_20250327_2140.2" vType="car" speedFactor="1.17" vaporized=""/>
    <tripinfo id="flow_route_93_duration_20250327_2140.7" depart="28.00" departLane="133000063_0" departPos="67.13" departSpeed="0.00" departDelay="11.85" arrival="131.00" arrivalLane="380585336_1" arrivalPos="129.69" arrivalSpeed="14.50" duration="103.00" routeLength="917.85" waitingTime="5.00" waitingCount="2" stopTime="0.00" timeLoss="41.41" rerouteNo="0" devices="tripinfo_flow_route_93_duration_20250327_2140.7" vType="car" speedFactor="0.89" vaporized=""/>
    <tripinfo id="flow_route_144_duration_20250327_2140.4" depart="40.00" departLane="683079388#0_0" departPos="17.44" departSpeed="0.00" departDelay="0.00" arrival="133.00" arrivalLane="380585338#0_0" arrivalPos="64.53" arrivalSpeed="11.77" duration="93.00" routeLength="626.83" waitingTime="25.00" waitingCount="1" stopTime="0.00" timeLoss="48.32" rerouteNo="0" devices="tripinfo_flow_route_144_duration_20250327_2140.4" vType="car" speedFactor="0.85" vaporized=""/>
    <tripinfo id="flow_route_144_duration_20250327_2140.5" depart="50.00" departLane="683079388#0_0" departPos="4.33" departSpeed="0.00" departDelay="0.00" arrival="134.00" arrivalLane="380585338#0_1" arrivalPos="83.82" arrivalSpeed="13.07" duration="84.00" routeLength="659.23" waitingTime="19.00" waitingCount="1" stopTime="0.00" timeLoss="43.57" rerouteNo="0" devices="tripinfo_flow_route_144_duration_20250327_2140.5" vType="car" speedFactor="1.12" vaporized=""/>
    <tripinfo id="flow_route_93_duration_20250327_2140.2" depart="7.00" departLane="133000063_0" departPos="40.77" departSpeed="0.00" departDelay="2.39" arrival="143.00" arrivalLane="380585336_0" arrivalPos="395.67" arrivalSpeed="16.54" duration="136.00" routeLength="1210.19" waitingTime="22.00" waitingCount="2" stopTime="0.00" timeLoss="62.11" rerouteNo="0" devices="tripinfo_flow_route_93_duration_20250327_2140.2" vType="car" speedFactor="1.03" vaporized=""/>
    <tripinfo id="flow_route_93_duration_20250327_2140.10" depart="43.00" departLane="133000063_0" departPos="74.21" departSpeed="0.00" departDelay="19.93" arrival="146.00" arrivalLane="380585336_1" arrivalPos="87.29" arrivalSpeed="16.52" duration="103.00" routeLength="868.37" waitingTime="0.00" waitingCount="0" stopTime="0.00" timeLoss="50.63" rerouteNo="0" devices="tripinfo_flow_route_93_duration_20250327_2140.10" vType="car" speedFactor="1.15" vaporized=""/>
    <tripinfo id="flow_route_92_duration_20250327_2140.7" depart="40.00" departLane="133000063_0" departPos="7.34" departSpeed="0.00" departDelay="17.90" arrival="147.00" arrivalLane="186409193_0" arrivalPos="19.81" arrivalSpeed="14.35" duration="107.00" routeLength="404.33" waitingTime="32.00" waitingCount="1" stopTime="0.00" timeLoss="80.34" rerouteNo="0" devices="tripinfo_flow_route_92_duration_20250327_2140.7" vType="car" speedFactor="0.93" vaporized=""/>
    <tripinfo id="flow_route_93_duration_20250327_2140.1" depart="4.00" departLane="133000063_0" departPos="52.89" departSpeed="0.00" departDelay="1.69" arrival="148.00" arrivalLane="380585336_0" arrivalPos="288.04" arrivalSpeed="14.03" duration="144.00" routeLength="1090.45" waitingTime="32.00" waitingCount="1" stopTime="0.00" timeLoss="68.05" rerouteNo="0" devices="tripinfo_flow_route_93_duration_20250327_2140.1" vType="car" speedFactor="0.86" vaporized=""/>
    <tripinfo id="flow_route_93_duration_20250327_2140.9" depart="38.00" departLane="133000063_0" departPos="21.41" departSpeed="0.00" departDelay="17.24" arrival="150.00" arrivalLane="380585336_1" arrivalPos="75.41" arrivalSpeed="16.36" duration="112.00" routeLength="909.30" waitingTime="0.00" waitingCount="0" stopTime="0.00" timeLoss="56.84" rerouteNo="0" devices="tripinfo_flow_route_93_duration_20250327_2140.9" vType="car" speedFactor="1.13" vaporized=""/>
    <tripinfo id="flow_route_92_duration_20250327_2140.8" depart="52.00" departLane="133000063_0" departPos="58.36" departSpeed="0.00" departDelay="26.74" arrival="154.00" arrivalLane="186409193_0" arrivalPos="20.55" arrivalSpeed="14.39" duration="102.00" routeLength="354.05" waitingTime="34.00" waitingCount="2" stopTime="0.00" timeLoss="79.36" rerouteNo="0" devices="tripinfo_flow_route_92_duration_20250327_2140.8" vType="car" speedFactor="1.17" vaporized=""/>
    <tripinfo id="flow_route_93_duration_20250327_2140.6" depart="20.00" departLane="133000063_0" departPos="48.03" departSpeed="0.00" departDelay="6.16" arrival="160.00" arrivalLane="380585336_1" arrivalPos="342.02" arrivalSpeed="16.39" duration="140.00" routeLength="1149.28" waitingTime="10.00" waitingCount="1" stopTime="0.00" timeLoss="70.54" rerouteNo="0" devices="tripinfo_flow_route_93_duration_20250327_2140.6" vType="car" speedFactor="1.01" vaporized=""/>
    <tripinfo id="flow_route_93_duration_20250327_2140.5" depart="14.00" departLane="133000063_0" departPos="123.25" departSpeed="0.00" departDelay="2.47" arrival="161.00" arrivalLane="380585336_1" arrivalPos="406.42" arrivalSpeed="15.49" duration="147.00" routeLength="1138.46" waitingTime="33.00" waitingCount="2" stopTime="0.00" timeLoss="74.05" rerouteNo="0" devices="tripinfo_flow_route_93_duration_20250327_2140.5" vType="car" speedFactor="0.94" vaporized=""/>
    <tripinfo id="flow_route_93_duration_20250327_2140.8" depart="30.00" departLane="133000063_0" departPos="18.04" departSpeed="0.00" departDelay="11.54" arrival="161.00" arrivalLane="380585336_0" arrivalPos="402.36" arrivalSpeed="14.45" duration="131.00" routeLength="1239.61" waitingTime="0.00" waitingCount="0" stopTime="0.00" timeLoss="45.73" rerouteNo="0" devices="tripinfo_flow_route_93_duration_20250327_2140.8" vType="car" speedFactor="0.87" vaporized=""/>
    <tripinfo id="flow_route_92_duration_20250327_2140.9" depart="55.00" departLane="133000063_0" departPos="19.69" departSpeed="0.00" departDelay="26.59" arrival="162.00" arrivalLane="186409193_0" arrivalPos="48.23" arrivalSpeed="14.77" duration="107.00" routeLength="420.39" waitingTime="30.00" waitingCount="1" stopTime="0.00" timeLoss="80.29" rerouteNo="0" devices="tripinfo_flow_route_92_duration_20250327_2140.9" vType="car" speedFactor="0.97" vaporized=""/>
    <tripinfo id="flow_route_93_duration_20250327_2140.4" depart="14.00" departLane="133000063_0" departPos="15.33" departSpeed="0.00" departDelay="4.77" arrival="163.00" arrivalLane="380585336_0" arrivalPos="403.07" arrivalSpeed="15.29" duration="149.00" routeLength="1243.03" waitingTime="18.00" waitingCount="2" stopTime="0.00" timeLoss="68.18" rerouteNo="0" devices="tripinfo_flow_route_93_duration_20250327_2140.4" vType="car" speedFactor="0.93" vaporized=""/>
    <tripinfo id="flow_route_91_duration_20250327_2140.3" depart="69.00" departLane="133000063_0" departPos="19.75" departSpeed="0.00" departDelay="33.00" arrival="164.00" arrivalLane="683079387#1_1" arrivalPos="7.14" arrivalSpeed="16.60" duration="95.00" routeLength="706.12" waitingTime="27.00" waitingCount="1" stopTime="0.00" timeLoss="51.96" rerouteNo="0" devices="tripinfo_flow_route_91_duration_20250327_2140.3" vType="car" speedFactor="1.09" vaporized=""/>
    <tripinfo id="flow_route_92_duration_20250327_2140.10" depart="62.00" departLane="133000063_0" departPos="26.41" departSpeed="0.00" departDelay="30.43" arrival="167.00" arrivalLane="186409193_0" arrivalPos="41.52" arrivalSpeed="15.85" duration="105.00" routeLength="406.97" waitingTime="26.00" waitingCount="3" stopTime="0.00" timeLoss="78.09" rerouteNo="0" devices="tripinfo_flow_route_92_duration_20250327_2140.10" vType="car" speedFactor="0.96" vaporized=""/>
    <tripinfo id="flow_route_92_duration_20250327_2140.14" depart="85.00" departLane="133000063_0" departPos="114.73" departSpeed="0.00" departDelay="40.80" arrival="168.00" arrivalLane="186409193_0" arrivalPos="39.78" arrivalSpeed="14.86" duration="83.00" routeLength="316.91" waitingTime="19.00" waitingCount="4" stopTime="0.00" timeLoss="63.35" rerouteNo="0" devices="tripinfo_flow_route_92_duration_20250327_2140.14" vType="car" speedFactor="1.00" vaporized=""/>
    <tripinfo id="flow_route_91_duration_20250327_2140.4" depart="96.00" departLane="133000063_0" departPos="18.89" departSpeed="0.00" departDelay="48.00" arrival="169.00" arrivalLane="683079387#1_1" arrivalPos="6.55" arrivalSpeed="16.19" duration="73.00" routeLength="706.39" waitingTime="3.00" waitingCount="1" stopTime="0.00" timeLoss="30.44" rerouteNo="0" devices="tripinfo_flow_route_91_duration_20250327_2140.4" vType="car" speedFactor="1.14" vaporized=""/>
    <tripinfo id="flow_route_92_duration_20250327_2140.12" depart="78.00" departLane="133000063_0" departPos="41.07" departSpeed="0.00" departDelay="40.12" arrival="171.00" arrivalLane="186409193_0" arrivalPos="41.61" arrivalSpeed="14.53" duration="93.00" routeLength="392.40" waitingTime="15.00" waitingCount="4" stopTime="0.00" timeLoss="65.19" rerouteNo="0" devices="tripinfo_flow_route_92_duration_20250327_2140.12" vType="car" speedFactor="0.88" vaporized=""/>
    <tripinfo id="flow_route_92_duration_20250327_2140.11" depart="67.00" departLane="133000063_0" departPos="27.15" departSpeed="0.00" departDelay="32.27" arrival="172.00" arrivalLane="186409193_0" arrivalPos="17.31" arrivalSpeed="14.21" duration="105.00" routeLength="382.02" waitingTime="27.00" waitingCount="4" stopTime="0.00" timeLoss="81.42" rerouteNo="0" devices="tripinfo_flow_route_92_duration_20250327_2140.11" vType="car" speedFactor="1.04" vaporized=""/>
    <tripinfo id="flow_route_93_duration_20250327_2140.12" depart="55.00" departLane="133000063_0" departPos="70.94" departSpeed="0.00" departDelay="27.32" arrival="192.00" arrivalLane="380585336_1" arrivalPos="259.18" arrivalSpeed="16.58" duration="137.00" routeLength="1043.54" waitingTime="29.00" waitingCount="2" stopTime="0.00" timeLoss="73.77" rerouteNo="0" devices="tripinfo_flow_route_93_duration_20250327_2140.12" vType="car" speedFactor="1.02" vaporized=""/>
    <tripinfo id="flow_route_93_duration_20250327_2140.11" depart="52.00" departLane="133000063_0" departPos="0.15" departSpeed="0.00" departDelay="26.62" arrival="193.00" arrivalLane="380585336_1" arrivalPos="122.21" arrivalSpeed="16.27" duration="141.00" routeLength="977.35" waitingTime="27.00" waitingCount="1" stopTime="0.00" timeLoss="81.59" rerouteNo="0" devices="tripinfo_flow_route_93_duration_20250327_2140.11" vType="car" speedFactor="0.99" vaporized=""/>
    <tripinfo id="flow_route_93_duration_20250327_2140.15" depart="67.00" departLane="133000063_0" departPos="99.82" departSpeed="0.00" departDelay="32.40" arrival="200.00" arrivalLane="380585336_2" arrivalPos="173.21" arrivalSpeed="16.47" duration="133.00" routeLength="928.68" waitingTime="32.00" waitingCount="1" stopTime="0.00" timeLoss="77.00" rerouteNo="0" devices="tripinfo_flow_route_93_duration_20250327_2140.15" vType="car" speedFactor="1.04" vaporized=""/>
    <tripinfo id="flow_route_93_duration_20250327_2140.14" depart="62.00" departLane="133000063_0" departPos="76.91" departSpeed="0.00" departDelay="29.70" arrival="202.00" arrivalLane="380585336_0" arrivalPos="368.20" arrivalSpeed="16.44" duration="140.00" routeLength="1146.58" waitingTime="28.00" waitingCount="1" stopTime="0.00" timeLoss="70.48" rerouteNo="0" devices="tripinfo_flow_route_93_duration_20250327_2140.14" vType="car" speedFactor="1.09" vaporized=""/>
    <tripinfo id="flow_route_93_duration_20250327_2140.19" depart="83.00" departLane="133000063_0" departPos="5.96" departSpeed="0.00" departDelay="39.17" arrival="203.00" arrivalLane="380585336_1" arrivalPos="116.84" arrivalSpeed="16.12" duration="120.00" routeLength="966.16" waitingTime="3.00" waitingCount="2" stopTime="0.00" timeLoss="61.36" rerouteNo="0" devices="tripinfo_flow_route_93_duration_20250327_2140.19" vType="car" speedFactor="1.00" vaporized=""/>
    <tripinfo id="flow_route_93_duration_20250327_2140.13" depart="61.00" departLane="133000063_0" departPos="57.33" departSpeed="0.00" departDelay="31.01" arrival="204.00" arrivalLane="380585336_1" arrivalPos="153.87" arrivalSpeed="16.20" duration="143.00" routeLength="951.83" waitingTime="31.00" waitingCount="1" stopTime="0.00" timeLoss="84.94" rerouteNo="0" devices="tripinfo_flow_route_93_duration_20250327_2140.13" vType="car" speedFactor="1.18" vaporized=""/>
    <tripinfo id="flow_route_93_duration_20250327_2140.18" depart="83.00" departLane="133000063_0" departPos="98.10" departSpeed="0.00" departDelay="41.47" arrival="205.00" arrivalLane="380585336_0" arrivalPos="381.09" arrivalSpeed="16.56" duration="122.00" routeLength="1138.27" waitingTime="18.00" waitingCount="2" stopTime="0.00" timeLoss="52.55" rerouteNo="0" devices="tripinfo_flow_route_93_duration_20250327_2140.18" vType="car" speedFactor="1.10" vaporized=""/>
    <tripinfo id="flow_route_92_duration_20250327_2140.13" depart="83.00" departLane="133000063_0" departPos="14.57" departSpeed="0.00" departDelay="41.96" arrival="206.00" arrivalLane="186409193_0" arrivalPos="8.97" arrivalSpeed="13.97" duration="123.00" routeLength="386.26" waitingTime="44.00" waitingCount="4" stopTime="0.00" timeLoss="98.78" rerouteNo="0" devices="tripinfo_flow_route_92_duration_20250327_2140.13" vType="car" speedFactor="1.02" vaporized=""/>
    <tripinfo id="flow_route_93_duration_20250327_2140.16" depart="78.00" departLane="133000063_0" departPos="32.82" departSpeed="0.00" departDelay="41.09" arrival="211.00" arrivalLane="380585336_0" arrivalPos="329.08" arrivalSpeed="14.60" duration="133.00" routeLength="1151.56" waitingTime="6.00" waitingCount="3" stopTime="0.00" timeLoss="56.77" rerouteNo="0" devices="tripinfo_flow_route_93_duration_20250327_2140.16" vType="car" speedFactor="0.90" vaporized=""/>
    <tripinfo id="flow_route_92_duration_20250327_2140.15" depart="97.00" departLane="133000063_0" departPos="2.01" departSpeed="0.00" departDelay="49.65" arrival="216.00" arrivalLane="186409193_0" arrivalPos="47.97" arrivalSpeed="14.18" duration="119.00" routeLength="437.82" waitingTime="37.00" waitingCount="2" stopTime="0.00" timeLoss="91.55" rerouteNo="0" devices="tripinfo_flow_route_92_duration_20250327_2140.15" vType="car" speedFactor="1.02" vaporized=""/>
    <tripinfo id="flow_route_92_duration_20250327_2140.16" depart="111.00" departLane="133000063_0" departPos="53.37" departSpeed="0.00" departDelay="60.49" arrival="216.00" arrivalLane="186409193_0" arrivalPos="20.20" arrivalSpeed="13.62" duration="105.00" routeLength="358.69" waitingTime="24.00" waitingCount="5" stopTime="0.00" timeLoss="82.15" rerouteNo="0" devices="tripinfo_flow_route_92_duration_20250327_2140.16" vType="car" speedFactor="1.02" vaporized=""/>
    <tripinfo id="flow_route_92_duration_20250327_2140.17" depart="113.00" departLane="133000063_0" departPos="36.46" departSpeed="0.00" departDelay="59.33" arrival="220.00" arrivalLane="186409193_0" arrivalPos="0.68" arrivalSpeed="13.09" duration="107.00" routeLength="356.08" waitingTime="21.00" waitingCount="4" stopTime="0.00" timeLoss="83.59" rerouteNo="0" devices="tripinfo_flow_route_92_duration_20250327_2140.17" vType="car" speedFactor="0.94" vaporized=""/>
    <tripinfo id="flow_route_92_duration_20250327_2140.18" depart="127.00" departLane="133000063_0" departPos="82.50" departSpeed="0.00" departDelay="70.17" arrival="222.00" arrivalLane="186409193_0" arrivalPos="58.23" arrivalSpeed="14.82" duration="95.00" routeLength="367.59" waitingTime="21.00" waitingCount="3" stopTime="0.00" timeLoss="70.13" rerouteNo="0" devices="tripinfo_flow_route_92_duration_20250327_2140.18" vType="car" speedFactor="0.91" vaporized=""/>