<?xml version="1.0" encoding="UTF-8"?>

<!-- generated on 2025-05-06 21:07:51 by Eclipse SUMO sumo Version 1.20.0
<configuration xmlns:xsi="http://www.w3.org/2001/XMLSchema-instance" xsi:noNamespaceSchemaLocation="http://sumo.dlr.de/xsd/sumoConfiguration.xsd">

    <input>
        <net-file value="osm.net.xml"/>
        <route-files value="xml/route_rl_cluster_11657899598_353811979_6712514804_1.rou.xml"/>
    </input>

    <output>
        <tripinfo-output value="xml/tripinfo_rl_cluster_11657899598_353811979_6712514804_1.xml"/>
    </output>

    <traci_server>
        <remote-port value="42715"/>
    </traci_server>

</configuration>
-->

<tripinfos xmlns:xsi="http://www.w3.org/2001/XMLSchema-instance" xsi:noNamespaceSchemaLocation="http://sumo.dlr.de/xsd/tripinfo_file.xsd">
    <tripinfo id="flow_route_136_duration_20250327_2040.0" depart="0.00" departLane="688883939#0_0" departPos="70.95" departSpeed="0.00" departDelay="0.00" arrival="22.00" arrivalLane="186410975#0_1" arrivalPos="11.74" arrivalSpeed="11.21" duration="22.00" routeLength="133.80" waitingTime="1.00" waitingCount="1" stopTime="0.00" timeLoss="11.77" rerouteNo="0" devices="tripinfo_flow_route_136_duration_20250327_2040.0" vType="car" speedFactor="1.01" vaporized=""/>
    <tripinfo id="flow_route_137_duration_20250327_2040.0" depart="0.00" departLane="1310781056_0" departPos="52.86" departSpeed="0.00" departDelay="0.00" arrival="22.00" arrivalLane="714011134#0_0" arrivalPos="51.79" arrivalSpeed="16.27" duration="22.00" routeLength="192.73" waitingTime="0.00" waitingCount="0" stopTime="0.00" timeLoss="10.06" rerouteNo="0" devices="tripinfo_flow_route_137_duration_20250327_2040.0" vType="car" speedFactor="1.08" vaporized=""/>
    <tripinfo id="flow_route_134_duration_20250327_2040.0" depart="0.00" departLane="688883939#0_0" departPos="78.56" departSpeed="0.00" departDelay="0.00" arrival="28.00" arrivalLane="809719540#0_0" arrivalPos="239.32" arrivalSpeed="16.14" duration="28.00" routeLength="300.42" waitingTime="0.00" waitingCount="0" stopTime="0.00" timeLoss="9.69" rerouteNo="0" devices="tripinfo_flow_route_134_duration_20250327_2040.0" vType="car" speedFactor="1.06" vaporized=""/>
    <tripinfo id="flow_route_139_duration_20250327_2040.0" depart="1.00" departLane="1310781056_0" departPos="36.51" departSpeed="0.00" departDelay="1.00" arrival="28.00" arrivalLane="1254157399#1_1" arrivalPos="26.95" arrivalSpeed="9.89" duration="27.00" routeLength="180.27" waitingTime="0.00" waitingCount="0" stopTime="0.00" timeLoss="13.73" rerouteNo="0" devices="tripinfo_flow_route_139_duration_20250327_2040.0" vType="car" speedFactor="0.83" vaporized=""/>
    <tripinfo id="flow_route_138_duration_20250327_2040.0" depart="1.00" departLane="1310781056_0" departPos="99.29" departSpeed="0.00" departDelay="1.00" arrival="35.00" arrivalLane="186410975#0_0" arrivalPos="152.27" arrivalSpeed="11.40" duration="34.00" routeLength="305.80" waitingTime="0.00" waitingCount="0" stopTime="0.00" timeLoss="11.06" rerouteNo="0" devices="tripinfo_flow_route_138_duration_20250327_2040.0" vType="car" speedFactor="1.03" vaporized=""/>
    <tripinfo id="flow_route_135_duration_20250327_2040.0" depart="0.00" departLane="688883939#0_0" departPos="0.64" departSpeed="0.00" departDelay="0.00" arrival="45.00" arrivalLane="1254157399#1_0" arrivalPos="440.36" arrivalSpeed="16.39" duration="45.00" routeLength="573.44" waitingTime="0.00" waitingCount="0" stopTime="0.00" timeLoss="9.40" rerouteNo="0" devices="tripinfo_flow_route_135_duration_20250327_2040.0" vType="car" speedFactor="0.94" vaporized=""/>
    <tripinfo id="flow_route_136_duration_20250327_2040.1" depart="20.00" departLane="688883939#0_0" departPos="60.26" departSpeed="0.00" departDelay="0.00" arrival="46.00" arrivalLane="186410975#0_1" arrivalPos="32.36" arrivalSpeed="10.23" duration="26.00" routeLength="165.12" waitingTime="0.00" waitingCount="0" stopTime="0.00" timeLoss="12.79" rerouteNo="0" devices="tripinfo_flow_route_136_duration_20250327_2040.1" vType="car" speedFactor="0.94" vaporized=""/>
    <tripinfo id="flow_route_152_duration_20250327_2040.0" depart="0.00" departLane="31861355#0_0" departPos="164.48" departSpeed="0.00" departDelay="0.00" arrival="54.00" arrivalLane="714011134#0_1" arrivalPos="26.08" arrivalSpeed="10.75" duration="54.00" routeLength="522.49" waitingTime="0.00" waitingCount="0" stopTime="0.00" timeLoss="18.17" rerouteNo="0" devices="tripinfo_flow_route_152_duration_20250327_2040.0" vType="car" speedFactor="0.89" vaporized=""/>
    <tripinfo id="flow_route_152_duration_20250327_2040.2" depart="20.00" departLane="31861355#0_0" departPos="415.45" departSpeed="0.00" departDelay="0.00" arrival="56.00" arrivalLane="714011134#0_1" arrivalPos="23.52" arrivalSpeed="11.20" duration="36.00" routeLength="268.95" waitingTime="0.00" waitingCount="0" stopTime="0.00" timeLoss="18.86" rerouteNo="0" devices="tripinfo_flow_route_152_duration_20250327_2040.2" vType="car" speedFactor="0.97" vaporized=""/>
    <tripinfo id="flow_route_153_duration_20250327_2040.1" depart="16.00" departLane="31861355#0_0" departPos="594.82" departSpeed="0.00" departDelay="1.00" arrival="60.00" arrivalLane="809719540#0_0" arrivalPos="205.35" arrivalSpeed="15.05" duration="44.00" routeLength="241.64" waitingTime="9.00" waitingCount="1" stopTime="0.00" timeLoss="27.50" rerouteNo="0" devices="tripinfo_flow_route_153_duration_20250327_2040.1" vType="car" speedFactor="0.93" vaporized=""/>
    <tripinfo id="flow_route_152_duration_20250327_2040.1" depart="10.00" departLane="31861355#0_0" departPos="147.19" departSpeed="0.00" departDelay="0.00" arrival="63.00" arrivalLane="714011134#0_1" arrivalPos="93.55" arrivalSpeed="15.43" duration="53.00" routeLength="607.23" waitingTime="0.00" waitingCount="0" stopTime="0.00" timeLoss="15.66" rerouteNo="0" devices="tripinfo_flow_route_152_duration_20250327_2040.1" vType="car" speedFactor="1.12" vaporized=""/>
    <tripinfo id="flow_route_151_duration_20250327_2040.2" depart="8.00" departLane="31861355#0_0" departPos="393.90" departSpeed="0.00" departDelay="1.33" arrival="67.00" arrivalLane="186410975#0_1" arrivalPos="132.40" arrivalSpeed="11.64" duration="59.00" routeLength="465.71" waitingTime="2.00" waitingCount="1" stopTime="0.00" timeLoss="27.21" rerouteNo="0" devices="tripinfo_flow_route_151_duration_20250327_2040.2" vType="car" speedFactor="1.09" vaporized=""/>
    <tripinfo id="flow_route_152_duration_20250327_2040.5" depart="51.00" departLane="31861355#0_0" departPos="604.08" departSpeed="0.00" departDelay="1.00" arrival="68.00" arrivalLane="714011134#0_1" arrivalPos="44.80" arrivalSpeed="12.17" duration="17.00" routeLength="101.60" waitingTime="0.00" waitingCount="0" stopTime="0.00" timeLoss="10.22" rerouteNo="0" devices="tripinfo_flow_route_152_duration_20250327_2040.5" vType="car" speedFactor="1.09" vaporized=""/>
    <tripinfo id="flow_route_139_duration_20250327_2040.1" depart="10.00" departLane="1310781056_0" departPos="44.97" departSpeed="0.00" departDelay="0.00" arrival="69.00" arrivalLane="1254157399#1_0" arrivalPos="580.37" arrivalSpeed="16.51" duration="59.00" routeLength="725.23" waitingTime="0.00" waitingCount="0" stopTime="0.00" timeLoss="13.01" rerouteNo="0" devices="tripinfo_flow_route_139_duration_20250327_2040.1" vType="car" speedFactor="1.03" vaporized=""/>
    <tripinfo id="flow_route_151_duration_20250327_2040.5" depart="18.00" departLane="31861355#0_0" departPos="206.01" departSpeed="0.00" departDelay="1.34" arrival="69.00" arrivalLane="186410975#0_0" arrivalPos="7.70" arrivalSpeed="9.48" duration="51.00" routeLength="528.90" waitingTime="0.00" waitingCount="0" stopTime="0.00" timeLoss="15.23" rerouteNo="0" devices="tripinfo_flow_route_151_duration_20250327_2040.5" vType="car" speedFactor="0.88" vaporized=""/>
    <tripinfo id="flow_route_151_duration_20250327_2040.0" depart="0.00" departLane="31861355#0_0" departPos="352.12" departSpeed="0.00" departDelay="0.00" arrival="70.00" arrivalLane="186410975#0_0" arrivalPos="191.84" arrivalSpeed="11.54" duration="70.00" routeLength="566.94" waitingTime="6.00" waitingCount="1" stopTime="0.00" timeLoss="30.29" rerouteNo="0" devices="tripinfo_flow_route_151_duration_20250327_2040.0" vType="car" speedFactor="1.05" vaporized=""/>
    <tripinfo id="flow_route_151_duration_20250327_2040.10" depart="34.00" departLane="31861355#0_0" departPos="577.11" departSpeed="0.00" departDelay="0.67" arrival="71.00" arrivalLane="186410975#0_1" arrivalPos="141.13" arrivalSpeed="10.15" duration="37.00" routeLength="291.23" waitingTime="0.00" waitingCount="0" stopTime="0.00" timeLoss="13.51" rerouteNo="0" devices="tripinfo_flow_route_151_duration_20250327_2040.10" vType="car" speedFactor="0.93" vaporized=""/>
    <tripinfo id="flow_route_151_duration_20250327_2040.4" depart="14.00" departLane="31861355#0_0" departPos="187.64" departSpeed="0.00" departDelay="0.67" arrival="75.00" arrivalLane="186410975#0_1" arrivalPos="8.37" arrivalSpeed="10.85" duration="61.00" routeLength="547.94" waitingTime="0.00" waitingCount="0" stopTime="0.00" timeLoss="26.65" rerouteNo="0" devices="tripinfo_flow_route_151_duration_20250327_2040.4" vType="car" speedFactor="0.99" vaporized=""/>
    <tripinfo id="flow_route_139_duration_20250327_2040.2" depart="20.00" departLane="1310781056_0" departPos="92.05" departSpeed="0.00" departDelay="0.00" arrival="75.00" arrivalLane="1254157399#1_0" arrivalPos="596.14" arrivalSpeed="16.56" duration="55.00" routeLength="693.92" waitingTime="0.00" waitingCount="0" stopTime="0.00" timeLoss="11.82" rerouteNo="0" devices="tripinfo_flow_route_139_duration_20250327_2040.2" vType="car" speedFactor="1.02" vaporized=""/>
    <tripinfo id="flow_route_151_duration_20250327_2040.8" depart="27.00" departLane="31861355#0_0" departPos="581.43" departSpeed="0.00" departDelay="0.34" arrival="75.00" arrivalLane="186410975#0_0" arrivalPos="178.51" arrivalSpeed="9.02" duration="48.00" routeLength="324.30" waitingTime="0.00" waitingCount="0" stopTime="0.00" timeLoss="18.59" rerouteNo="0" devices="tripinfo_flow_route_151_duration_20250327_2040.8" vType="car" speedFactor="0.83" vaporized=""/>
    <tripinfo id="flow_route_152_duration_20250327_2040.4" depart="43.00" departLane="31861355#0_0" departPos="318.88" departSpeed="0.00" departDelay="3.00" arrival="75.00" arrivalLane="714011134#0_1" arrivalPos="4.94" arrivalSpeed="16.18" duration="32.00" routeLength="346.94" waitingTime="0.00" waitingCount="0" stopTime="0.00" timeLoss="10.09" rerouteNo="0" devices="tripinfo_flow_route_152_duration_20250327_2040.4" vType="car" speedFactor="0.97" vaporized=""/>
    <tripinfo id="flow_route_153_duration_20250327_2040.0" depart="0.00" departLane="31861355#0_0" departPos="37.47" departSpeed="0.00" departDelay="0.00" arrival="77.00" arrivalLane="809719540#0_0" arrivalPos="146.46" arrivalSpeed="15.17" duration="77.00" routeLength="740.10" waitingTime="0.00" waitingCount="0" stopTime="0.00" timeLoss="28.08" rerouteNo="0" devices="tripinfo_flow_route_153_duration_20250327_2040.0" vType="car" speedFactor="0.94" vaporized=""/>
    <tripinfo id="flow_route_151_duration_20250327_2040.3" depart="10.00" departLane="31861355#0_0" departPos="338.46" departSpeed="0.00" departDelay="0.00" arrival="79.00" arrivalLane="186410975#0_1" arrivalPos="212.76" arrivalSpeed="11.60" duration="69.00" routeLength="601.51" waitingTime="0.00" waitingCount="0" stopTime="0.00" timeLoss="26.51" rerouteNo="0" devices="tripinfo_flow_route_151_duration_20250327_2040.3" vType="car" speedFactor="1.05" vaporized=""/>
    <tripinfo id="flow_route_151_duration_20250327_2040.7" depart="24.00" departLane="31861355#0_0" departPos="370.74" departSpeed="0.00" departDelay="0.67" arrival="79.00" arrivalLane="186410975#0_1" arrivalPos="184.69" arrivalSpeed="9.63" duration="55.00" routeLength="541.16" waitingTime="0.00" waitingCount="0" stopTime="0.00" timeLoss="12.65" rerouteNo="0" devices="tripinfo_flow_route_151_duration_20250327_2040.7" vType="car" speedFactor="0.89" vaporized=""/>
    <tripinfo id="flow_route_151_duration_20250327_2040.6" depart="20.00" departLane="31861355#0_0" departPos="55.35" departSpeed="0.00" departDelay="0.00" arrival="82.00" arrivalLane="186410975#0_1" arrivalPos="68.16" arrivalSpeed="10.95" duration="62.00" routeLength="740.01" waitingTime="0.00" waitingCount="0" stopTime="0.00" timeLoss="14.80" rerouteNo="0" devices="tripinfo_flow_route_151_duration_20250327_2040.6" vType="car" speedFactor="1.01" vaporized=""/>
    <tripinfo id="flow_route_135_duration_20250327_2040.1" depart="20.00" departLane="688883939#0_0" departPos="17.71" departSpeed="0.00" departDelay="0.00" arrival="91.00" arrivalLane="1254157399#1_0" arrivalPos="79.96" arrivalSpeed="13.66" duration="71.00" routeLength="195.97" waitingTime="37.00" waitingCount="1" stopTime="0.00" timeLoss="57.89" rerouteNo="0" devices="tripinfo_flow_route_135_duration_20250327_2040.1" vType="car" speedFactor="0.94" vaporized=""/>
    <tripinfo id="flow_route_136_duration_20250327_2040.2" depart="40.00" departLane="688883939#0_0" departPos="37.10" departSpeed="0.00" departDelay="0.00" arrival="91.00" arrivalLane="186410975#0_1" arrivalPos="22.20" arrivalSpeed="10.70" duration="51.00" routeLength="178.13" waitingTime="18.00" waitingCount="1" stopTime="0.00" timeLoss="37.63" rerouteNo="0" devices="tripinfo_flow_route_136_duration_20250327_2040.2" vType="car" speedFactor="1.01" vaporized=""/>
    <tripinfo id="flow_route_151_duration_20250327_2040.1" depart="4.00" departLane="31861355#0_0" departPos="28.73" departSpeed="0.00" departDelay="0.67" arrival="92.00" arrivalLane="186410975#0_0" arrivalPos="176.45" arrivalSpeed="9.33" duration="88.00" routeLength="874.93" waitingTime="0.00" waitingCount="0" stopTime="0.00" timeLoss="20.60" rerouteNo="0" devices="tripinfo_flow_route_151_duration_20250327_2040.1" vType="car" speedFactor="0.86" vaporized=""/>
    <tripinfo id="flow_route_139_duration_20250327_2040.4" depart="40.00" departLane="1310781056_0" departPos="24.08" departSpeed="0.00" departDelay="0.00" arrival="97.00" arrivalLane="1254157399#1_1" arrivalPos="128.04" arrivalSpeed="15.89" duration="57.00" routeLength="293.79" waitingTime="15.00" waitingCount="1" stopTime="0.00" timeLoss="37.61" rerouteNo="0" devices="tripinfo_flow_route_139_duration_20250327_2040.4" vType="car" speedFactor="0.99" vaporized=""/>
    <tripinfo id="flow_route_138_duration_20250327_2040.1" depart="20.00" departLane="1310781056_0" departPos="27.37" departSpeed="0.00" departDelay="0.00" arrival="99.00" arrivalLane="186410975#0_0" arrivalPos="106.17" arrivalSpeed="12.87" duration="79.00" routeLength="331.62" waitingTime="35.00" waitingCount="1" stopTime="0.00" timeLoss="56.13" rerouteNo="0" devices="tripinfo_flow_route_138_duration_20250327_2040.1" vType="car" speedFactor="1.16" vaporized=""/>
    <tripinfo id="flow_route_135_duration_20250327_2040.2" depart="40.00" departLane="688883939#0_0" departPos="76.11" departSpeed="0.00" departDelay="0.00" arrival="101.00" arrivalLane="1254157399#1_0" arrivalPos="209.53" arrivalSpeed="16.45" duration="61.00" routeLength="267.14" waitingTime="26.00" waitingCount="1" stopTime="0.00" timeLoss="44.88" rerouteNo="0" devices="tripinfo_flow_route_135_duration_20250327_2040.2" vType="car" speedFactor="1.15" vaporized=""/>
    <tripinfo id="flow_route_138_duration_20250327_2040.2" depart="40.00" departLane="1310781056_0" departPos="32.89" departSpeed="0.00" departDelay="0.00" arrival="104.00" arrivalLane="186410975#0_0" arrivalPos="146.39" arrivalSpeed="12.95" duration="64.00" routeLength="366.32" waitingTime="15.00" waitingCount="1" stopTime="0.00" timeLoss="39.30" rerouteNo="0" devices="tripinfo_flow_route_138_duration_20250327_2040.2" vType="car" speedFactor="1.17" vaporized=""/>
    <tripinfo id="flow_route_139_duration_20250327_2040.3" depart="30.00" departLane="1310781056_0" departPos="19.10" departSpeed="0.00" departDelay="0.00" arrival="122.00" arrivalLane="1254157399#1_0" arrivalPos="593.29" arrivalSpeed="16.35" duration="92.00" routeLength="764.02" waitingTime="23.00" waitingCount="1" stopTime="0.00" timeLoss="44.24" rerouteNo="0" devices="tripinfo_flow_route_139_duration_20250327_2040.3" vType="car" speedFactor="0.87" vaporized=""/>
    <tripinfo id="flow_route_139_duration_20250327_2040.5" depart="51.00" departLane="1310781056_0" departPos="65.05" departSpeed="0.00" departDelay="1.00" arrival="126.00" arrivalLane="1254157399#1_0" arrivalPos="571.64" arrivalSpeed="16.17" duration="75.00" routeLength="696.42" waitingTime="10.00" waitingCount="1" stopTime="0.00" timeLoss="31.36" rerouteNo="0" devices="tripinfo_flow_route_139_duration_20250327_2040.5" vType="car" speedFactor="1.03" vaporized=""/>
    <tripinfo id="flow_route_151_duration_20250327_2040.14" depart="49.00" departLane="31861355#0_0" departPos="388.77" departSpeed="0.00" departDelay="2.34" arrival="129.00" arrivalLane="186410975#0_0" arrivalPos="6.15" arrivalSpeed="9.63" duration="80.00" routeLength="344.59" waitingTime="36.00" waitingCount="1" stopTime="0.00" timeLoss="56.76" rerouteNo="0" devices="tripinfo_flow_route_151_duration_20250327_2040.14" vType="car" speedFactor="0.90" vaporized=""/>
    <tripinfo id="flow_route_151_duration_20250327_2040.11" depart="42.00" departLane="31861355#0_0" departPos="263.16" departSpeed="0.00" departDelay="5.34" arrival="130.00" arrivalLane="186410975#0_1" arrivalPos="17.29" arrivalSpeed="12.91" duration="88.00" routeLength="481.33" waitingTime="35.00" waitingCount="1" stopTime="0.00" timeLoss="58.07" rerouteNo="0" devices="tripinfo_flow_route_151_duration_20250327_2040.11" vType="car" speedFactor="1.18" vaporized=""/>
    <tripinfo id="flow_route_152_duration_20250327_2040.3" depart="33.00" departLane="31861355#0_0" departPos="17.31" departSpeed="0.00" departDelay="3.00" arrival="133.00" arrivalLane="714011134#0_1" arrivalPos="51.91" arrivalSpeed="12.91" duration="100.00" routeLength="695.48" waitingTime="30.00" waitingCount="1" stopTime="0.00" timeLoss="55.45" rerouteNo="0" devices="tripinfo_flow_route_152_duration_20250327_2040.3" vType="car" speedFactor="0.95" vaporized=""/>
    <tripinfo id="flow_route_151_duration_20250327_2040.12" depart="43.00" departLane="31861355#0_0" departPos="242.35" departSpeed="0.00" departDelay="3.00" arrival="135.00" arrivalLane="186410975#0_1" arrivalPos="46.63" arrivalSpeed="11.29" duration="92.00" routeLength="531.49" waitingTime="32.00" waitingCount="1" stopTime="0.00" timeLoss="57.88" rerouteNo="0" devices="tripinfo_flow_route_151_duration_20250327_2040.12" vType="car" speedFactor="1.02" vaporized=""/>
    <tripinfo id="flow_route_153_duration_20250327_2040.2" depart="33.00" departLane="31861355#0_0" departPos="173.39" departSpeed="0.00" departDelay="3.00" arrival="138.00" arrivalLane="809719540#0_0" arrivalPos="155.81" arrivalSpeed="16.17" duration="105.00" routeLength="613.53" waitingTime="29.00" waitingCount="1" stopTime="0.00" timeLoss="66.56" rerouteNo="0" devices="tripinfo_flow_route_153_duration_20250327_2040.2" vType="car" speedFactor="1.13" vaporized=""/>
    <tripinfo id="flow_route_151_duration_20250327_2040.9" depart="33.00" departLane="31861355#0_0" departPos="94.41" departSpeed="0.00" departDelay="3.00" arrival="140.00" arrivalLane="186410975#0_1" arrivalPos="79.44" arrivalSpeed="9.73" duration="107.00" routeLength="712.24" waitingTime="30.00" waitingCount="1" stopTime="0.00" timeLoss="57.98" rerouteNo="0" devices="tripinfo_flow_route_151_duration_20250327_2040.9" vType="car" speedFactor="0.92" vaporized=""/>
    <tripinfo id="flow_route_153_duration_20250327_2040.3" depart="48.00" departLane="31861355#0_0" departPos="65.11" departSpeed="0.00" departDelay="3.00" arrival="141.00" arrivalLane="809719540#0_0" arrivalPos="112.05" arrivalSpeed="14.73" duration="93.00" routeLength="678.05" waitingTime="25.00" waitingCount="1" stopTime="0.00" timeLoss="50.77" rerouteNo="0" devices="tripinfo_flow_route_153_duration_20250327_2040.3" vType="car" speedFactor="1.10" vaporized=""/>
    <tripinfo id="flow_route_151_duration_20250327_2040.16" depart="54.00" departLane="31861355#0_0" departPos="255.61" departSpeed="0.00" departDelay="0.67" arrival="142.00" arrivalLane="186410975#0_0" arrivalPos="76.48" arrivalSpeed="11.17" duration="88.00" routeLength="548.08" waitingTime="27.00" waitingCount="1" stopTime="0.00" timeLoss="52.80" rerouteNo="0" devices="tripinfo_flow_route_151_duration_20250327_2040.16" vType="car" speedFactor="1.04" vaporized=""/>
    <tripinfo id="flow_route_151_duration_20250327_2040.17" depart="58.00" departLane="31861355#0_0" departPos="63.13" departSpeed="0.00" departDelay="1.34" arrival="144.00" arrivalLane="186410975#0_1" arrivalPos="88.50" arrivalSpeed="11.57" duration="86.00" routeLength="752.58" waitingTime="12.00" waitingCount="1" stopTime="0.00" timeLoss="37.48" rerouteNo="0" devices="tripinfo_flow_route_151_duration_20250327_2040.17" vType="car" speedFactor="1.04" vaporized=""/>
    <tripinfo id="flow_route_151_duration_20250327_2040.15" depart="50.00" departLane="31861355#0_0" departPos="283.41" departSpeed="0.00" departDelay="0.01" arrival="145.00" arrivalLane="186410975#0_0" arrivalPos="127.17" arrivalSpeed="10.50" duration="95.00" routeLength="570.97" waitingTime="30.00" waitingCount="1" stopTime="0.00" timeLoss="54.27" rerouteNo="0" devices="tripinfo_flow_route_151_duration_20250327_2040.15" vType="car" speedFactor="0.96" vaporized=""/>
    <tripinfo id="flow_route_151_duration_20250327_2040.13" depart="44.00" departLane="31861355#0_0" departPos="363.77" departSpeed="0.00" departDelay="0.67" arrival="147.00" arrivalLane="186410975#0_0" arrivalPos="213.08" arrivalSpeed="12.67" duration="103.00" routeLength="576.52" waitingTime="36.00" waitingCount="1" stopTime="0.00" timeLoss="64.25" rerouteNo="0" devices="tripinfo_flow_route_151_duration_20250327_2040.13" vType="car" speedFactor="1.18" vaporized=""/>
</tripinfos>
