<?xml version="1.0" encoding="UTF-8"?>

<!-- generated on 2025-05-06 21:09:12 by Eclipse SUMO sumo Version 1.20.0
<configuration xmlns:xsi="http://www.w3.org/2001/XMLSchema-instance" xsi:noNamespaceSchemaLocation="http://sumo.dlr.de/xsd/sumoConfiguration.xsd">

    <input>
        <net-file value="osm.net.xml"/>
        <route-files value="xml/route_rl_cluster10852700972_12154751993_9.rou.xml"/>
    </input>

    <output>
        <tripinfo-output value="xml/tripinfo_rl_cluster10852700972_12154751993_9.xml"/>
    </output>

    <traci_server>
        <remote-port value="44321"/>
    </traci_server>

</configuration>
-->

<tripinfos xmlns:xsi="http://www.w3.org/2001/XMLSchema-instance" xsi:noNamespaceSchemaLocation="http://sumo.dlr.de/xsd/tripinfo_file.xsd">
    <tripinfo id="flow_route_61_duration_20250327_1940.1" depart="7.00" departLane="186407684#0_0" departPos="41.08" departSpeed="0.00" departDelay="1.00" arrival="22.00" arrivalLane="1341093416#0_1" arrivalPos="1.65" arrivalSpeed="9.88" duration="15.00" routeLength="74.75" waitingTime="0.00" waitingCount="0" stopTime="0.00" timeLoss="8.42" rerouteNo="0" devices="tripinfo_flow_route_61_duration_20250327_1940.1" vType="car" speedFactor="0.83" vaporized=""/>
    <tripinfo id="flow_route_61_duration_20250327_1940.0" depart="0.00" departLane="186407684#0_0" departPos="65.67" departSpeed="0.00" departDelay="0.00" arrival="23.00" arrivalLane="1341093416#0_1" arrivalPos="161.76" arrivalSpeed="16.23" duration="23.00" routeLength="210.27" waitingTime="0.00" waitingCount="0" stopTime="0.00" timeLoss="9.71" rerouteNo="0" devices="tripinfo_flow_route_61_duration_20250327_1940.0" vType="car" speedFactor="1.03" vaporized=""/>
    <tripinfo id="flow_route_60_duration_20250327_1940.0" depart="0.00" departLane="186407684#0_0" departPos="48.06" departSpeed="0.00" departDelay="0.00" arrival="25.00" arrivalLane="791826085_0" arrivalPos="160.28" arrivalSpeed="16.11" duration="25.00" routeLength="221.15" waitingTime="0.00" waitingCount="0" stopTime="0.00" timeLoss="11.14" rerouteNo="0" devices="tripinfo_flow_route_60_duration_20250327_1940.0" vType="car" speedFactor="1.08" vaporized=""/>
    <tripinfo id="flow_route_60_duration_20250327_1940.1" depart="9.00" departLane="186407684#0_0" departPos="5.31" departSpeed="0.00" departDelay="0.43" arrival="31.00" arrivalLane="791826085_0" arrivalPos="86.27" arrivalSpeed="14.43" duration="22.00" routeLength="189.89" waitingTime="0.00" waitingCount="0" stopTime="0.00" timeLoss="8.78" rerouteNo="0" devices="tripinfo_flow_route_60_duration_20250327_1940.1" vType="car" speedFactor="0.89" vaporized=""/>
    <tripinfo id="flow_route_61_duration_20250327_1940.2" depart="13.00" departLane="186407684#0_0" departPos="45.21" departSpeed="0.00" departDelay="1.00" arrival="33.00" arrivalLane="1341093416#0_1" arrivalPos="88.28" arrivalSpeed="14.73" duration="20.00" routeLength="157.25" waitingTime="0.00" waitingCount="0" stopTime="0.00" timeLoss="8.83" rerouteNo="0" devices="tripinfo_flow_route_61_duration_20250327_1940.2" vType="car" speedFactor="0.86" vaporized=""/>
    <tripinfo id="flow_route_56_duration_20250327_1940.0" depart="0.00" departLane="1341093415#0_0" departPos="44.11" departSpeed="0.00" departDelay="0.00" arrival="47.00" arrivalLane="409155823_0" arrivalPos="4.00" arrivalSpeed="6.90" duration="47.00" routeLength="164.73" waitingTime="16.00" waitingCount="1" stopTime="0.00" timeLoss="35.99" rerouteNo="0" devices="tripinfo_flow_route_56_duration_20250327_1940.0" vType="car" speedFactor="1.01" vaporized=""/>
    <tripinfo id="flow_route_60_duration_20250327_1940.2" depart="19.00" departLane="186407684#0_0" departPos="20.86" departSpeed="0.00" departDelay="1.86" arrival="52.00" arrivalLane="791826085_0" arrivalPos="289.48" arrivalSpeed="16.54" duration="33.00" routeLength="377.55" waitingTime="0.00" waitingCount="0" stopTime="0.00" timeLoss="10.22" rerouteNo="0" devices="tripinfo_flow_route_60_duration_20250327_1940.2" vType="car" speedFactor="1.05" vaporized=""/>
    <tripinfo id="flow_route_54_duration_20250327_1940.2" depart="30.00" departLane="1341093415#0_0" departPos="47.07" departSpeed="0.00" departDelay="0.00" arrival="53.00" arrivalLane="1341093416#0_0" arrivalPos="34.38" arrivalSpeed="13.56" duration="23.00" routeLength="194.13" waitingTime="0.00" waitingCount="0" stopTime="0.00" timeLoss="10.87" rerouteNo="0" devices="tripinfo_flow_route_54_duration_20250327_1940.2" vType="car" speedFactor="0.94" vaporized=""/>
    <tripinfo id="flow_route_56_duration_20250327_1940.2" depart="15.00" departLane="1341093415#0_0" departPos="146.92" departSpeed="0.00" departDelay="0.00" arrival="54.00" arrivalLane="409155823_0" arrivalPos="55.76" arrivalSpeed="11.26" duration="39.00" routeLength="113.68" waitingTime="13.00" waitingCount="1" stopTime="0.00" timeLoss="31.37" rerouteNo="0" devices="tripinfo_flow_route_56_duration_20250327_1940.2" vType="car" speedFactor="1.03" vaporized=""/>
    <tripinfo id="flow_route_61_duration_20250327_1940.4" depart="24.00" departLane="186407684#0_0" departPos="60.38" departSpeed="0.00" departDelay="0.00" arrival="54.00" arrivalLane="1341093416#0_1" arrivalPos="262.29" arrivalSpeed="16.12" duration="30.00" routeLength="316.09" waitingTime="0.00" waitingCount="0" stopTime="0.00" timeLoss="9.96" rerouteNo="0" devices="tripinfo_flow_route_61_duration_20250327_1940.4" vType="car" speedFactor="0.88" vaporized=""/>
    <tripinfo id="flow_route_56_duration_20250327_1940.1" depart="8.00" departLane="1341093415#0_0" departPos="100.93" departSpeed="0.00" departDelay="0.50" arrival="55.00" arrivalLane="409155823_0" arrivalPos="39.80" arrivalSpeed="10.58" duration="47.00" routeLength="143.71" waitingTime="12.00" waitingCount="1" stopTime="0.00" timeLoss="37.42" rerouteNo="0" devices="tripinfo_flow_route_56_duration_20250327_1940.1" vType="car" speedFactor="1.05" vaporized=""/>
    <tripinfo id="flow_route_54_duration_20250327_1940.1" depart="15.00" departLane="1341093415#0_0" departPos="167.37" departSpeed="0.00" departDelay="0.00" arrival="55.00" arrivalLane="1341093416#0_0" arrivalPos="84.19" arrivalSpeed="12.88" duration="40.00" routeLength="123.64" waitingTime="16.00" waitingCount="1" stopTime="0.00" timeLoss="32.04" rerouteNo="0" devices="tripinfo_flow_route_54_duration_20250327_1940.1" vType="car" speedFactor="1.09" vaporized=""/>
    <tripinfo id="flow_route_56_duration_20250327_1940.3" depart="23.00" departLane="1341093415#0_0" departPos="136.26" departSpeed="0.00" departDelay="0.50" arrival="57.00" arrivalLane="409155823_0" arrivalPos="26.56" arrivalSpeed="9.32" duration="34.00" routeLength="95.14" waitingTime="9.00" waitingCount="1" stopTime="0.00" timeLoss="27.44" rerouteNo="0" devices="tripinfo_flow_route_56_duration_20250327_1940.3" vType="car" speedFactor="0.99" vaporized=""/>
    <tripinfo id="flow_route_55_duration_20250327_1940.2" depart="24.00" departLane="1341093415#0_0" departPos="5.32" departSpeed="0.00" departDelay="0.00" arrival="59.00" arrivalLane="791826085_0" arrivalPos="51.89" arrivalSpeed="11.43" duration="35.00" routeLength="236.28" waitingTime="0.00" waitingCount="0" stopTime="0.00" timeLoss="19.39" rerouteNo="0" devices="tripinfo_flow_route_55_duration_20250327_1940.2" vType="car" speedFactor="0.93" vaporized=""/>
    <tripinfo id="flow_route_56_duration_20250327_1940.6" depart="45.00" departLane="1341093415#0_0" departPos="176.86" departSpeed="0.00" departDelay="0.00" arrival="60.00" arrivalLane="409155823_0" arrivalPos="5.90" arrivalSpeed="6.98" duration="15.00" routeLength="33.87" waitingTime="3.00" waitingCount="1" stopTime="0.00" timeLoss="12.14" rerouteNo="0" devices="tripinfo_flow_route_56_duration_20250327_1940.6" vType="car" speedFactor="1.13" vaporized=""/>
    <tripinfo id="flow_route_55_duration_20250327_1940.0" depart="0.00" departLane="1341093415#0_0" departPos="132.48" departSpeed="0.00" departDelay="0.00" arrival="63.00" arrivalLane="791826085_0" arrivalPos="232.37" arrivalSpeed="15.38" duration="63.00" routeLength="289.60" waitingTime="24.00" waitingCount="1" stopTime="0.00" timeLoss="43.29" rerouteNo="0" devices="tripinfo_flow_route_55_duration_20250327_1940.0" vType="car" speedFactor="0.94" vaporized=""/>
    <tripinfo id="flow_route_54_duration_20250327_1940.0" depart="0.00" departLane="1341093415#0_0" departPos="7.77" departSpeed="0.00" departDelay="0.00" arrival="65.00" arrivalLane="1341093416#0_1" arrivalPos="244.31" arrivalSpeed="16.36" duration="65.00" routeLength="443.35" waitingTime="13.00" waitingCount="1" stopTime="0.00" timeLoss="37.83" rerouteNo="0" devices="tripinfo_flow_route_54_duration_20250327_1940.0" vType="car" speedFactor="1.06" vaporized=""/>
    <tripinfo id="flow_route_56_duration_20250327_1940.4" depart="31.00" departLane="1341093415#0_0" departPos="101.88" departSpeed="0.00" departDelay="1.00" arrival="67.00" arrivalLane="409155823_0" arrivalPos="36.21" arrivalSpeed="9.50" duration="36.00" routeLength="139.17" waitingTime="1.00" waitingCount="1" stopTime="0.00" timeLoss="26.71" rerouteNo="0" devices="tripinfo_flow_route_56_duration_20250327_1940.4" vType="car" speedFactor="1.16" vaporized=""/>
    <tripinfo id="flow_route_55_duration_20250327_1940.1" depart="12.00" departLane="1341093415#0_0" departPos="121.85" departSpeed="0.00" departDelay="0.00" arrival="69.00" arrivalLane="791826085_0" arrivalPos="285.55" arrivalSpeed="15.28" duration="57.00" routeLength="353.42" waitingTime="13.00" waitingCount="1" stopTime="0.00" timeLoss="32.82" rerouteNo="0" devices="tripinfo_flow_route_55_duration_20250327_1940.1" vType="car" speedFactor="0.94" vaporized=""/>
    <tripinfo id="flow_route_56_duration_20250327_1940.5" depart="40.00" departLane="1341093415#0_0" departPos="114.37" departSpeed="0.00" departDelay="2.50" arrival="70.00" arrivalLane="409155823_0" arrivalPos="51.06" arrivalSpeed="11.34" duration="30.00" routeLength="141.54" waitingTime="0.00" waitingCount="0" stopTime="0.00" timeLoss="19.22" rerouteNo="0" devices="tripinfo_flow_route_56_duration_20250327_1940.5" vType="car" speedFactor="0.83" vaporized=""/>
    <tripinfo id="flow_route_55_duration_20250327_1940.3" depart="38.00" departLane="1341093415#0_0" departPos="30.02" departSpeed="0.00" departDelay="2.00" arrival="77.00" arrivalLane="791826085_0" arrivalPos="233.37" arrivalSpeed="15.86" duration="39.00" routeLength="393.06" waitingTime="0.00" waitingCount="0" stopTime="0.00" timeLoss="14.17" rerouteNo="0" devices="tripinfo_flow_route_55_duration_20250327_1940.3" vType="car" speedFactor="0.97" vaporized=""/>
    <tripinfo id="flow_route_55_duration_20250327_1940.4" depart="48.00" departLane="1341093415#0_0" departPos="15.33" departSpeed="0.00" departDelay="0.00" arrival="80.00" arrivalLane="791826085_0" arrivalPos="102.36" arrivalSpeed="14.30" duration="32.00" routeLength="276.74" waitingTime="0.00" waitingCount="0" stopTime="0.00" timeLoss="14.29" rerouteNo="0" devices="tripinfo_flow_route_55_duration_20250327_1940.4" vType="car" speedFactor="0.93" vaporized=""/>
    <tripinfo id="flow_route_54_duration_20250327_1940.3" depart="45.00" departLane="1341093415#0_0" departPos="31.90" departSpeed="0.00" departDelay="0.00" arrival="82.00" arrivalLane="1341093416#0_0" arrivalPos="254.48" arrivalSpeed="16.12" duration="37.00" routeLength="429.40" waitingTime="0.00" waitingCount="0" stopTime="0.00" timeLoss="10.34" rerouteNo="0" devices="tripinfo_flow_route_54_duration_20250327_1940.3" vType="car" speedFactor="0.95" vaporized=""/>
    <tripinfo id="flow_route_60_duration_20250327_1940.4" depart="37.00" departLane="186407684#0_0" departPos="84.60" departSpeed="0.00" departDelay="2.72" arrival="87.00" arrivalLane="791826085_0" arrivalPos="29.03" arrivalSpeed="8.88" duration="50.00" routeLength="53.36" waitingTime="35.00" waitingCount="1" stopTime="0.00" timeLoss="46.62" rerouteNo="0" devices="tripinfo_flow_route_60_duration_20250327_1940.4" vType="car" speedFactor="1.01" vaporized=""/>
    <tripinfo id="flow_route_61_duration_20250327_1940.7" depart="42.00" departLane="186407684#0_0" departPos="2.45" departSpeed="0.00" departDelay="0.00" arrival="92.00" arrivalLane="1341093416#0_2" arrivalPos="41.63" arrivalSpeed="11.25" duration="50.00" routeLength="149.20" waitingTime="20.00" waitingCount="1" stopTime="0.00" timeLoss="38.89" rerouteNo="0" devices="tripinfo_flow_route_61_duration_20250327_1940.7" vType="car" speedFactor="0.87" vaporized=""/>
    <tripinfo id="flow_route_61_duration_20250327_1940.3" depart="19.00" departLane="186407684#0_0" departPos="2.86" departSpeed="0.00" departDelay="1.00" arrival="94.00" arrivalLane="1341093416#0_1" arrivalPos="108.74" arrivalSpeed="14.47" duration="75.00" routeLength="220.06" waitingTime="39.00" waitingCount="1" stopTime="0.00" timeLoss="60.90" rerouteNo="0" devices="tripinfo_flow_route_61_duration_20250327_1940.3" vType="car" speedFactor="1.12" vaporized=""/>
    <tripinfo id="flow_route_60_duration_20250327_1940.3" depart="26.00" departLane="186407684#0_0" departPos="11.40" departSpeed="0.00" departDelay="0.29" arrival="95.00" arrivalLane="791826085_1" arrivalPos="108.05" arrivalSpeed="14.00" duration="69.00" routeLength="205.58" waitingTime="36.00" waitingCount="1" stopTime="0.00" timeLoss="55.81" rerouteNo="0" devices="tripinfo_flow_route_60_duration_20250327_1940.3" vType="car" speedFactor="0.94" vaporized=""/>
    <tripinfo id="flow_route_60_duration_20250327_1940.5" depart="43.00" departLane="186407684#0_0" departPos="48.19" departSpeed="0.00" departDelay="0.15" arrival="95.00" arrivalLane="791826085_0" arrivalPos="90.94" arrivalSpeed="12.87" duration="52.00" routeLength="151.68" waitingTime="24.00" waitingCount="1" stopTime="0.00" timeLoss="41.52" rerouteNo="0" devices="tripinfo_flow_route_60_duration_20250327_1940.5" vType="car" speedFactor="0.92" vaporized=""/>
    <tripinfo id="flow_route_60_duration_20250327_1940.6" depart="52.00" departLane="186407684#0_0" departPos="15.92" departSpeed="0.00" departDelay="0.57" arrival="95.00" arrivalLane="791826085_0" arrivalPos="67.56" arrivalSpeed="12.53" duration="43.00" routeLength="160.57" waitingTime="12.00" waitingCount="1" stopTime="0.00" timeLoss="32.73" rerouteNo="0" devices="tripinfo_flow_route_60_duration_20250327_1940.6" vType="car" speedFactor="1.15" vaporized=""/>
    <tripinfo id="flow_route_61_duration_20250327_1940.8" depart="48.00" departLane="186407684#0_0" departPos="49.98" departSpeed="0.00" departDelay="0.00" arrival="97.00" arrivalLane="1341093416#0_1" arrivalPos="92.95" arrivalSpeed="14.07" duration="49.00" routeLength="157.15" waitingTime="21.00" waitingCount="1" stopTime="0.00" timeLoss="39.12" rerouteNo="0" devices="tripinfo_flow_route_61_duration_20250327_1940.8" vType="car" speedFactor="1.18" vaporized=""/>
    <tripinfo id="flow_route_61_duration_20250327_1940.6" depart="37.00" departLane="186407684#0_0" departPos="43.41" departSpeed="0.00" departDelay="1.00" arrival="99.00" arrivalLane="1341093416#0_2" arrivalPos="163.48" arrivalSpeed="16.36" duration="62.00" routeLength="230.09" waitingTime="29.00" waitingCount="1" stopTime="0.00" timeLoss="46.32" rerouteNo="0" devices="tripinfo_flow_route_61_duration_20250327_1940.6" vType="car" speedFactor="0.89" vaporized=""/>
    <tripinfo id="flow_route_61_duration_20250327_1940.5" depart="32.00" departLane="186407684#0_0" departPos="71.54" departSpeed="0.00" departDelay="2.00" arrival="103.00" arrivalLane="1341093416#0_1" arrivalPos="264.47" arrivalSpeed="16.34" duration="71.00" routeLength="302.95" waitingTime="37.00" waitingCount="1" stopTime="0.00" timeLoss="52.23" rerouteNo="0" devices="tripinfo_flow_route_61_duration_20250327_1940.5" vType="car" speedFactor="1.02" vaporized=""/>
    <tripinfo id="flow_route_61_duration_20250327_1940.9" depart="54.00" departLane="186407684#0_0" departPos="31.01" departSpeed="0.00" departDelay="0.00" arrival="106.00" arrivalLane="1341093416#0_1" arrivalPos="197.93" arrivalSpeed="16.26" duration="52.00" routeLength="281.10" waitingTime="14.00" waitingCount="1" stopTime="0.00" timeLoss="34.44" rerouteNo="0" devices="tripinfo_flow_route_61_duration_20250327_1940.9" vType="car" speedFactor="1.17" vaporized=""/>
    <tripinfo id="flow_route_56_duration_20250327_1940.7" depart="53.00" departLane="1341093415#0_0" departPos="14.26" departSpeed="0.00" departDelay="0.50" arrival="123.00" arrivalLane="409155823_0" arrivalPos="4.12" arrivalSpeed="6.50" duration="70.00" routeLength="194.70" waitingTime="38.00" waitingCount="1" stopTime="0.00" timeLoss="57.13" rerouteNo="0" devices="tripinfo_flow_route_56_duration_20250327_1940.7" vType="car" speedFactor="1.01" vaporized=""/>
</tripinfos>
