<?xml version="1.0" encoding="UTF-8"?>

<!-- generated on 2025-05-06 21:09:04 by Eclipse SUMO sumo Version 1.20.0
<configuration xmlns:xsi="http://www.w3.org/2001/XMLSchema-instance" xsi:noNamespaceSchemaLocation="http://sumo.dlr.de/xsd/sumoConfiguration.xsd">

    <input>
        <net-file value="osm.net.xml"/>
        <route-files value="xml/route_rl_632031937_8.rou.xml"/>
    </input>

    <output>
        <tripinfo-output value="xml/tripinfo_rl_632031937_8.xml"/>
    </output>

    <traci_server>
        <remote-port value="43735"/>
    </traci_server>

</configuration>
-->

<tripinfos xmlns:xsi="http://www.w3.org/2001/XMLSchema-instance" xsi:noNamespaceSchemaLocation="http://sumo.dlr.de/xsd/tripinfo_file.xsd">
    <tripinfo id="flow_route_66_duration_20250327_1930.0" depart="0.00" departLane="-138002002#2_0" departPos="85.87" departSpeed="0.00" departDelay="0.00" arrival="20.00" arrivalLane="-138002006#3_1" arrivalPos="3.87" arrivalSpeed="12.37" duration="20.00" routeLength="121.39" waitingTime="0.00" waitingCount="0" stopTime="0.00" timeLoss="10.97" rerouteNo="0" devices="tripinfo_flow_route_66_duration_20250327_1930.0" vType="car" speedFactor="0.83" vaporized=""/>
    <tripinfo id="flow_route_53_duration_20250327_1930.0" depart="0.00" departLane="138002006#0_0" departPos="48.40" departSpeed="0.00" departDelay="0.00" arrival="23.00" arrivalLane="1369578052#0_0" arrivalPos="131.33" arrivalSpeed="15.64" duration="23.00" routeLength="190.85" waitingTime="0.00" waitingCount="0" stopTime="0.00" timeLoss="10.16" rerouteNo="0" devices="tripinfo_flow_route_53_duration_20250327_1930.0" vType="car" speedFactor="0.94" vaporized=""/>
    <tripinfo id="flow_route_53_duration_20250327_1930.4" depart="11.00" departLane="138002006#0_0" departPos="84.92" departSpeed="0.00" departDelay="1.40" arrival="24.00" arrivalLane="1369578052#0_0" arrivalPos="43.63" arrivalSpeed="10.44" duration="13.00" routeLength="66.64" waitingTime="0.00" waitingCount="0" stopTime="0.00" timeLoss="8.70" rerouteNo="0" devices="tripinfo_flow_route_53_duration_20250327_1930.4" vType="car" speedFactor="1.12" vaporized=""/>
    <tripinfo id="flow_route_53_duration_20250327_1930.1" depart="3.00" departLane="138002006#0_0" departPos="5.35" departSpeed="0.00" departDelay="0.60" arrival="25.00" arrivalLane="1369578052#0_1" arrivalPos="48.76" arrivalSpeed="13.19" duration="22.00" routeLength="151.33" waitingTime="0.00" waitingCount="0" stopTime="0.00" timeLoss="11.00" rerouteNo="0" devices="tripinfo_flow_route_53_duration_20250327_1930.1" vType="car" speedFactor="0.89" vaporized=""/>
    <tripinfo id="flow_route_53_duration_20250327_1930.2" depart="6.00" departLane="138002006#0_0" departPos="45.54" departSpeed="0.00" departDelay="1.20" arrival="28.00" arrivalLane="1369578052#0_1" arrivalPos="126.01" arrivalSpeed="14.19" duration="22.00" routeLength="188.39" waitingTime="0.00" waitingCount="0" stopTime="0.00" timeLoss="8.35" rerouteNo="0" devices="tripinfo_flow_route_53_duration_20250327_1930.2" vType="car" speedFactor="0.86" vaporized=""/>
    <tripinfo id="flow_route_52_duration_20250327_1930.0" depart="0.00" departLane="138002006#0_0" departPos="21.97" departSpeed="0.00" departDelay="0.00" arrival="30.00" arrivalLane="380351865#0_1" arrivalPos="15.21" arrivalSpeed="11.62" duration="30.00" routeLength="234.80" waitingTime="0.00" waitingCount="0" stopTime="0.00" timeLoss="10.57" rerouteNo="0" devices="tripinfo_flow_route_52_duration_20250327_1930.0" vType="car" speedFactor="1.06" vaporized=""/>
    <tripinfo id="flow_route_53_duration_20250327_1930.6" depart="18.00" departLane="138002006#0_0" departPos="85.21" departSpeed="0.00" departDelay="3.60" arrival="30.00" arrivalLane="1369578052#0_0" arrivalPos="30.96" arrivalSpeed="8.37" duration="12.00" routeLength="53.66" waitingTime="0.00" waitingCount="0" stopTime="0.00" timeLoss="8.33" rerouteNo="0" devices="tripinfo_flow_route_53_duration_20250327_1930.6" vType="car" speedFactor="0.94" vaporized=""/>
    <tripinfo id="flow_route_67_duration_20250327_1930.0" depart="1.00" departLane="-138002002#2_0" departPos="104.31" departSpeed="0.00" departDelay="1.00" arrival="32.00" arrivalLane="380351865#0_0" arrivalPos="12.69" arrivalSpeed="11.37" duration="31.00" routeLength="241.42" waitingTime="0.00" waitingCount="0" stopTime="0.00" timeLoss="10.65" rerouteNo="0" devices="tripinfo_flow_route_67_duration_20250327_1930.0" vType="car" speedFactor="1.05" vaporized=""/>
    <tripinfo id="flow_route_67_duration_20250327_1930.2" depart="15.00" departLane="-138002002#2_0" departPos="149.52" departSpeed="0.00" departDelay="0.00" arrival="39.00" arrivalLane="380351865#0_0" arrivalPos="9.76" arrivalSpeed="12.82" duration="24.00" routeLength="193.28" waitingTime="0.00" waitingCount="0" stopTime="0.00" timeLoss="8.50" rerouteNo="0" devices="tripinfo_flow_route_67_duration_20250327_1930.2" vType="car" speedFactor="1.16" vaporized=""/>
    <tripinfo id="flow_route_53_duration_20250327_1930.5" depart="16.00" departLane="138002006#0_0" departPos="59.31" departSpeed="0.00" departDelay="4.00" arrival="40.00" arrivalLane="1369578052#0_1" arrivalPos="126.28" arrivalSpeed="14.53" duration="24.00" routeLength="174.89" waitingTime="0.00" waitingCount="0" stopTime="0.00" timeLoss="11.15" rerouteNo="0" devices="tripinfo_flow_route_53_duration_20250327_1930.5" vType="car" speedFactor="0.88" vaporized=""/>
    <tripinfo id="flow_route_52_duration_20250327_1930.1" depart="12.00" departLane="138002006#0_0" departPos="29.41" departSpeed="0.00" departDelay="0.00" arrival="41.00" arrivalLane="380351865#0_1" arrivalPos="0.51" arrivalSpeed="10.29" duration="29.00" routeLength="212.66" waitingTime="0.00" waitingCount="0" stopTime="0.00" timeLoss="9.39" rerouteNo="0" devices="tripinfo_flow_route_52_duration_20250327_1930.1" vType="car" speedFactor="0.93" vaporized=""/>
    <tripinfo id="flow_route_67_duration_20250327_1930.1" depart="8.00" departLane="-138002002#2_0" departPos="73.05" departSpeed="0.00" departDelay="0.50" arrival="42.00" arrivalLane="380351865#0_0" arrivalPos="14.07" arrivalSpeed="11.16" duration="34.00" routeLength="274.07" waitingTime="0.00" waitingCount="0" stopTime="0.00" timeLoss="12.77" rerouteNo="0" devices="tripinfo_flow_route_67_duration_20250327_1930.1" vType="car" speedFactor="1.05" vaporized=""/>
    <tripinfo id="flow_route_53_duration_20250327_1930.7" depart="18.00" departLane="138002006#0_0" departPos="27.32" departSpeed="0.00" departDelay="1.20" arrival="43.00" arrivalLane="1369578052#0_1" arrivalPos="127.48" arrivalSpeed="15.79" duration="25.00" routeLength="208.08" waitingTime="0.00" waitingCount="0" stopTime="0.00" timeLoss="11.82" rerouteNo="0" devices="tripinfo_flow_route_53_duration_20250327_1930.7" vType="car" speedFactor="1.01" vaporized=""/>
    <tripinfo id="flow_route_53_duration_20250327_1930.3" depart="11.00" departLane="138002006#0_0" departPos="14.12" departSpeed="0.00" departDelay="3.80" arrival="44.00" arrivalLane="1369578052#0_1" arrivalPos="173.09" arrivalSpeed="16.25" duration="33.00" routeLength="266.89" waitingTime="0.00" waitingCount="0" stopTime="0.00" timeLoss="16.51" rerouteNo="0" devices="tripinfo_flow_route_53_duration_20250327_1930.3" vType="car" speedFactor="1.03" vaporized=""/>
    <tripinfo id="flow_route_53_duration_20250327_1930.8" depart="21.00" departLane="138002006#0_0" departPos="2.47" departSpeed="0.00" departDelay="1.80" arrival="45.00" arrivalLane="1369578052#0_1" arrivalPos="31.04" arrivalSpeed="12.17" duration="24.00" routeLength="136.49" waitingTime="0.00" waitingCount="0" stopTime="0.00" timeLoss="14.60" rerouteNo="0" devices="tripinfo_flow_route_53_duration_20250327_1930.8" vType="car" speedFactor="0.89" vaporized=""/>
    <tripinfo id="flow_route_53_duration_20250327_1930.11" depart="28.00" departLane="138002006#0_0" departPos="73.28" departSpeed="0.00" departDelay="1.60" arrival="48.00" arrivalLane="1369578052#0_0" arrivalPos="125.10" arrivalSpeed="15.53" duration="20.00" routeLength="159.74" waitingTime="0.00" waitingCount="0" stopTime="0.00" timeLoss="10.37" rerouteNo="0" devices="tripinfo_flow_route_53_duration_20250327_1930.11" vType="car" speedFactor="1.15" vaporized=""/>
    <tripinfo id="flow_route_53_duration_20250327_1930.10" depart="28.00" departLane="138002006#0_0" departPos="34.60" departSpeed="0.00" departDelay="4.00" arrival="50.00" arrivalLane="1369578052#0_0" arrivalPos="104.54" arrivalSpeed="15.43" duration="22.00" routeLength="177.86" waitingTime="0.00" waitingCount="0" stopTime="0.00" timeLoss="10.24" rerouteNo="0" devices="tripinfo_flow_route_53_duration_20250327_1930.10" vType="car" speedFactor="0.93" vaporized=""/>
    <tripinfo id="flow_route_53_duration_20250327_1930.9" depart="24.00" departLane="138002006#0_0" departPos="18.39" departSpeed="0.00" departDelay="2.40" arrival="52.00" arrivalLane="1369578052#0_0" arrivalPos="100.79" arrivalSpeed="14.12" duration="28.00" routeLength="190.32" waitingTime="0.00" waitingCount="0" stopTime="0.00" timeLoss="14.29" rerouteNo="0" devices="tripinfo_flow_route_53_duration_20250327_1930.9" vType="car" speedFactor="0.87" vaporized=""/>
    <tripinfo id="flow_route_52_duration_20250327_1930.2" depart="26.00" departLane="138002006#0_0" departPos="31.23" departSpeed="0.00" departDelay="2.00" arrival="52.00" arrivalLane="380351865#0_1" arrivalPos="1.47" arrivalSpeed="12.56" duration="26.00" routeLength="211.79" waitingTime="0.00" waitingCount="0" stopTime="0.00" timeLoss="9.70" rerouteNo="0" devices="tripinfo_flow_route_52_duration_20250327_1930.2" vType="car" speedFactor="1.13" vaporized=""/>
    <tripinfo id="flow_route_53_duration_20250327_1930.12" depart="30.00" departLane="138002006#0_0" departPos="9.30" departSpeed="0.00" departDelay="1.20" arrival="54.00" arrivalLane="1369578052#0_0" arrivalPos="107.84" arrivalSpeed="16.49" duration="24.00" routeLength="206.46" waitingTime="0.00" waitingCount="0" stopTime="0.00" timeLoss="11.51" rerouteNo="0" devices="tripinfo_flow_route_53_duration_20250327_1930.12" vType="car" speedFactor="1.01" vaporized=""/>
    <tripinfo id="flow_route_53_duration_20250327_1930.13" depart="39.00" departLane="138002006#0_0" departPos="13.63" departSpeed="0.00" departDelay="7.80" arrival="60.00" arrivalLane="1369578052#0_1" arrivalPos="78.36" arrivalSpeed="16.17" duration="21.00" routeLength="172.65" waitingTime="0.00" waitingCount="0" stopTime="0.00" timeLoss="10.01" rerouteNo="0" devices="tripinfo_flow_route_53_duration_20250327_1930.13" vType="car" speedFactor="0.97" vaporized=""/>
    <tripinfo id="flow_route_53_duration_20250327_1930.14" depart="42.00" departLane="138002006#0_0" departPos="50.90" departSpeed="0.00" departDelay="8.40" arrival="65.00" arrivalLane="1369578052#0_0" arrivalPos="54.62" arrivalSpeed="10.96" duration="23.00" routeLength="111.65" waitingTime="0.00" waitingCount="0" stopTime="0.00" timeLoss="15.94" rerouteNo="0" devices="tripinfo_flow_route_53_duration_20250327_1930.14" vType="car" speedFactor="1.10" vaporized=""/>
    <tripinfo id="flow_route_53_duration_20250327_1930.15" depart="44.00" departLane="138002006#0_0" departPos="1.30" departSpeed="0.00" departDelay="8.00" arrival="66.00" arrivalLane="1369578052#0_1" arrivalPos="51.83" arrivalSpeed="14.52" duration="22.00" routeLength="158.46" waitingTime="0.00" waitingCount="0" stopTime="0.00" timeLoss="11.85" rerouteNo="0" devices="tripinfo_flow_route_53_duration_20250327_1930.15" vType="car" speedFactor="0.96" vaporized=""/>
    <tripinfo id="flow_route_53_duration_20250327_1930.17" depart="49.00" departLane="138002006#0_0" departPos="43.27" departSpeed="0.00" departDelay="8.20" arrival="69.00" arrivalLane="1369578052#0_0" arrivalPos="69.95" arrivalSpeed="14.01" duration="20.00" routeLength="134.59" waitingTime="0.00" waitingCount="0" stopTime="0.00" timeLoss="11.07" rerouteNo="0" devices="tripinfo_flow_route_53_duration_20250327_1930.17" vType="car" speedFactor="1.00" vaporized=""/>
    <tripinfo id="flow_route_53_duration_20250327_1930.16" depart="49.00" departLane="138002006#0_0" departPos="88.48" departSpeed="0.00" departDelay="10.60" arrival="71.00" arrivalLane="1369578052#0_0" arrivalPos="155.85" arrivalSpeed="15.74" duration="22.00" routeLength="175.29" waitingTime="0.00" waitingCount="0" stopTime="0.00" timeLoss="10.89" rerouteNo="0" devices="tripinfo_flow_route_53_duration_20250327_1930.16" vType="car" speedFactor="1.04" vaporized=""/>
    <tripinfo id="flow_route_53_duration_20250327_1930.20" depart="59.00" departLane="138002006#0_0" departPos="70.40" departSpeed="0.00" departDelay="11.00" arrival="72.00" arrivalLane="1369578052#0_0" arrivalPos="21.08" arrivalSpeed="9.74" duration="13.00" routeLength="58.60" waitingTime="0.00" waitingCount="0" stopTime="0.00" timeLoss="8.93" rerouteNo="0" devices="tripinfo_flow_route_53_duration_20250327_1930.20" vType="car" speedFactor="1.10" vaporized=""/>
    <tripinfo id="flow_route_52_duration_20250327_1930.3" depart="42.00" departLane="138002006#0_0" departPos="9.13" departSpeed="0.00" departDelay="6.00" arrival="73.00" arrivalLane="380351865#0_1" arrivalPos="13.33" arrivalSpeed="11.22" duration="31.00" routeLength="245.76" waitingTime="0.00" waitingCount="0" stopTime="0.00" timeLoss="10.52" rerouteNo="0" devices="tripinfo_flow_route_52_duration_20250327_1930.3" vType="car" speedFactor="1.03" vaporized=""/>
    <tripinfo id="flow_route_53_duration_20250327_1930.18" depart="51.00" departLane="138002006#0_0" departPos="13.61" departSpeed="0.00" departDelay="7.80" arrival="80.00" arrivalLane="1369578052#0_1" arrivalPos="101.24" arrivalSpeed="14.15" duration="29.00" routeLength="195.55" waitingTime="0.00" waitingCount="0" stopTime="0.00" timeLoss="14.86" rerouteNo="0" devices="tripinfo_flow_route_53_duration_20250327_1930.18" vType="car" speedFactor="0.88" vaporized=""/>
    <tripinfo id="flow_route_59_duration_20250327_1930.3" depart="10.00" departLane="186407685_0" departPos="135.37" departSpeed="0.00" departDelay="0.53" arrival="81.00" arrivalLane="1369578052#0_0" arrivalPos="5.98" arrivalSpeed="5.34" duration="71.00" routeLength="56.72" waitingTime="47.00" waitingCount="2" stopTime="0.00" timeLoss="66.82" rerouteNo="0" devices="tripinfo_flow_route_59_duration_20250327_1930.3" vType="car" speedFactor="0.99" vaporized=""/>
    <tripinfo id="flow_route_58_duration_20250327_1930.0" depart="0.00" departLane="186407685_0" departPos="1.07" departSpeed="0.00" departDelay="0.00" arrival="84.00" arrivalLane="-138002006#3_1" arrivalPos="43.63" arrivalSpeed="10.53" duration="84.00" routeLength="235.82" waitingTime="49.00" waitingCount="1" stopTime="0.00" timeLoss="68.78" rerouteNo="0" devices="tripinfo_flow_route_58_duration_20250327_1930.0" vType="car" speedFactor="1.08" vaporized=""/>
    <tripinfo id="flow_route_52_duration_20250327_1930.4" depart="59.00" departLane="138002006#0_0" departPos="50.47" departSpeed="0.00" departDelay="11.00" arrival="86.00" arrivalLane="380351865#0_1" arrivalPos="7.03" arrivalSpeed="11.29" duration="27.00" routeLength="198.12" waitingTime="0.00" waitingCount="0" stopTime="0.00" timeLoss="9.04" rerouteNo="0" devices="tripinfo_flow_route_52_duration_20250327_1930.4" vType="car" speedFactor="1.02" vaporized=""/>
    <tripinfo id="flow_route_59_duration_20250327_1930.0" depart="0.00" departLane="186407685_0" departPos="119.17" departSpeed="0.00" departDelay="0.00" arrival="90.00" arrivalLane="1369578052#0_0" arrivalPos="108.75" arrivalSpeed="13.33" duration="90.00" routeLength="175.69" waitingTime="55.00" waitingCount="2" stopTime="0.00" timeLoss="78.30" rerouteNo="0" devices="tripinfo_flow_route_59_duration_20250327_1930.0" vType="car" speedFactor="1.03" vaporized=""/>
    <tripinfo id="flow_route_59_duration_20250327_1930.2" depart="7.00" departLane="186407685_0" departPos="112.17" departSpeed="0.00" departDelay="0.69" arrival="90.00" arrivalLane="1369578052#0_0" arrivalPos="56.60" arrivalSpeed="10.91" duration="83.00" routeLength="130.54" waitingTime="47.00" waitingCount="2" stopTime="0.00" timeLoss="73.82" rerouteNo="0" devices="tripinfo_flow_route_59_duration_20250327_1930.2" vType="car" speedFactor="1.09" vaporized=""/>
    <tripinfo id="flow_route_59_duration_20250327_1930.5" depart="16.00" departLane="186407685_0" departPos="105.57" departSpeed="0.00" departDelay="0.22" arrival="90.00" arrivalLane="1369578052#0_0" arrivalPos="16.41" arrivalSpeed="7.63" duration="74.00" routeLength="96.95" waitingTime="40.00" waitingCount="2" stopTime="0.00" timeLoss="67.02" rerouteNo="0" devices="tripinfo_flow_route_59_duration_20250327_1930.5" vType="car" speedFactor="1.02" vaporized=""/>
    <tripinfo id="flow_route_57_duration_20250327_1930.0" depart="0.00" departLane="186407685_0" departPos="131.94" departSpeed="0.00" departDelay="0.00" arrival="94.00" arrivalLane="380351865#0_0" arrivalPos="0.78" arrivalSpeed="10.96" duration="94.00" routeLength="205.45" waitingTime="61.00" waitingCount="1" stopTime="0.00" timeLoss="77.10" rerouteNo="0" devices="tripinfo_flow_route_57_duration_20250327_1930.0" vType="car" speedFactor="1.01" vaporized=""/>
    <tripinfo id="flow_route_59_duration_20250327_1930.4" depart="14.00" departLane="186407685_0" departPos="39.51" departSpeed="0.00" departDelay="1.37" arrival="94.00" arrivalLane="1369578052#0_0" arrivalPos="23.11" arrivalSpeed="8.35" duration="80.00" routeLength="169.71" waitingTime="38.00" waitingCount="3" stopTime="0.00" timeLoss="68.63" rerouteNo="0" devices="tripinfo_flow_route_59_duration_20250327_1930.4" vType="car" speedFactor="0.94" vaporized=""/>
    <tripinfo id="flow_route_57_duration_20250327_1930.2" depart="40.00" departLane="186407685_0" departPos="49.10" departSpeed="0.00" departDelay="0.00" arrival="96.00" arrivalLane="380351865#0_1" arrivalPos="7.35" arrivalSpeed="11.92" duration="56.00" routeLength="294.87" waitingTime="9.00" waitingCount="2" stopTime="0.00" timeLoss="34.30" rerouteNo="0" devices="tripinfo_flow_route_57_duration_20250327_1930.2" vType="car" speedFactor="1.09" vaporized=""/>
    <tripinfo id="flow_route_57_duration_20250327_1930.1" depart="21.00" departLane="186407685_0" departPos="49.37" departSpeed="0.00" departDelay="1.00" arrival="100.00" arrivalLane="380351865#0_0" arrivalPos="16.30" arrivalSpeed="8.73" duration="79.00" routeLength="303.54" waitingTime="33.00" waitingCount="1" stopTime="0.00" timeLoss="52.12" rerouteNo="0" devices="tripinfo_flow_route_57_duration_20250327_1930.1" vType="car" speedFactor="0.83" vaporized=""/>
    <tripinfo id="flow_route_59_duration_20250327_1930.7" depart="24.00" departLane="186407685_0" departPos="31.99" departSpeed="0.00" departDelay="1.90" arrival="100.00" arrivalLane="1369578052#0_0" arrivalPos="12.35" arrivalSpeed="6.83" duration="76.00" routeLength="166.47" waitingTime="35.00" waitingCount="1" stopTime="0.00" timeLoss="64.28" rerouteNo="0" devices="tripinfo_flow_route_59_duration_20250327_1930.7" vType="car" speedFactor="0.92" vaporized=""/>
    <tripinfo id="flow_route_59_duration_20250327_1930.1" depart="4.00" departLane="186407685_0" departPos="57.01" departSpeed="0.00" departDelay="0.84" arrival="101.00" arrivalLane="1369578052#0_0" arrivalPos="161.40" arrivalSpeed="15.61" duration="97.00" routeLength="290.50" waitingTime="45.00" waitingCount="2" stopTime="0.00" timeLoss="76.75" rerouteNo="0" devices="tripinfo_flow_route_59_duration_20250327_1930.1" vType="car" speedFactor="0.94" vaporized=""/>
    <tripinfo id="flow_route_59_duration_20250327_1930.6" depart="20.00" departLane="186407685_0" departPos="32.47" departSpeed="0.00" departDelay="1.06" arrival="105.00" arrivalLane="1369578052#0_0" arrivalPos="90.80" arrivalSpeed="13.83" duration="85.00" routeLength="244.44" waitingTime="34.00" waitingCount="1" stopTime="0.00" timeLoss="68.79" rerouteNo="0" devices="tripinfo_flow_route_59_duration_20250327_1930.6" vType="car" speedFactor="0.97" vaporized=""/>
    <tripinfo id="flow_route_59_duration_20250327_1930.8" depart="28.00" departLane="186407685_0" departPos="90.81" departSpeed="0.00" departDelay="2.74" arrival="105.00" arrivalLane="1369578052#0_0" arrivalPos="133.06" arrivalSpeed="15.29" duration="77.00" routeLength="228.37" waitingTime="35.00" waitingCount="1" stopTime="0.00" timeLoss="61.90" rerouteNo="0" devices="tripinfo_flow_route_59_duration_20250327_1930.8" vType="car" speedFactor="1.18" vaporized=""/>
    <tripinfo id="flow_route_59_duration_20250327_1930.9" depart="35.00" departLane="186407685_0" departPos="17.98" departSpeed="0.00" departDelay="6.59" arrival="113.00" arrivalLane="1369578052#0_0" arrivalPos="76.90" arrivalSpeed="13.45" duration="78.00" routeLength="245.03" waitingTime="30.00" waitingCount="1" stopTime="0.00" timeLoss="61.49" rerouteNo="0" devices="tripinfo_flow_route_59_duration_20250327_1930.9" vType="car" speedFactor="1.17" vaporized=""/>
    <tripinfo id="flow_route_59_duration_20250327_1930.11" depart="38.00" departLane="186407685_0" departPos="69.17" departSpeed="0.00" departDelay="3.27" arrival="113.00" arrivalLane="1369578052#0_0" arrivalPos="128.94" arrivalSpeed="14.81" duration="75.00" routeLength="245.87" waitingTime="33.00" waitingCount="1" stopTime="0.00" timeLoss="57.89" rerouteNo="0" devices="tripinfo_flow_route_59_duration_20250327_1930.11" vType="car" speedFactor="0.90" vaporized=""/>
    <tripinfo id="flow_route_66_duration_20250327_1930.1" depart="30.00" departLane="-138002002#2_0" departPos="115.17" departSpeed="0.00" departDelay="0.00" arrival="116.00" arrivalLane="-138002006#3_0" arrivalPos="2.12" arrivalSpeed="5.56" duration="86.00" routeLength="90.33" waitingTime="65.00" waitingCount="1" stopTime="0.00" timeLoss="80.48" rerouteNo="0" devices="tripinfo_flow_route_66_duration_20250327_1930.1" vType="car" speedFactor="0.99" vaporized=""/>
    <tripinfo id="flow_route_59_duration_20250327_1930.12" depart="39.00" departLane="186407685_0" departPos="61.01" departSpeed="0.00" departDelay="1.12" arrival="117.00" arrivalLane="1369578052#0_0" arrivalPos="162.58" arrivalSpeed="16.13" duration="78.00" routeLength="287.68" waitingTime="33.00" waitingCount="1" stopTime="0.00" timeLoss="58.77" rerouteNo="0" devices="tripinfo_flow_route_59_duration_20250327_1930.12" vType="car" speedFactor="1.09" vaporized=""/>
    <tripinfo id="flow_route_59_duration_20250327_1930.10" depart="38.00" departLane="186407685_0" departPos="7.54" departSpeed="0.00" departDelay="6.43" arrival="119.00" arrivalLane="1369578052#0_0" arrivalPos="131.01" arrivalSpeed="15.67" duration="81.00" routeLength="309.58" waitingTime="30.00" waitingCount="1" stopTime="0.00" timeLoss="60.98" rerouteNo="0" devices="tripinfo_flow_route_59_duration_20250327_1930.10" vType="car" speedFactor="1.18" vaporized=""/>
    <tripinfo id="flow_route_53_duration_20250327_1930.21" depart="59.00" departLane="138002006#0_0" departPos="7.51" departSpeed="0.00" departDelay="8.60" arrival="123.00" arrivalLane="1369578052#0_1" arrivalPos="61.35" arrivalSpeed="11.36" duration="64.00" routeLength="161.76" waitingTime="34.00" waitingCount="1" stopTime="0.00" timeLoss="54.01" rerouteNo="0" devices="tripinfo_flow_route_53_duration_20250327_1930.21" vType="car" speedFactor="1.00" vaporized=""/>
    <tripinfo id="flow_route_53_duration_20250327_1930.19" depart="54.00" departLane="138002006#0_0" departPos="8.67" departSpeed="0.00" departDelay="8.40" arrival="126.00" arrivalLane="1369578052#0_0" arrivalPos="86.69" arrivalSpeed="12.70" duration="72.00" routeLength="185.93" waitingTime="38.00" waitingCount="1" stopTime="0.00" timeLoss="60.49" rerouteNo="0" devices="tripinfo_flow_route_53_duration_20250327_1930.19" vType="car" speedFactor="1.17" vaporized=""/>
    <tripinfo id="flow_route_53_duration_20250327_1930.22" depart="62.00" departLane="138002006#0_0" departPos="0.65" departSpeed="0.00" departDelay="9.20" arrival="127.00" arrivalLane="1369578052#0_0" arrivalPos="67.56" arrivalSpeed="11.90" duration="65.00" routeLength="174.83" waitingTime="32.00" waitingCount="1" stopTime="0.00" timeLoss="53.83" rerouteNo="0" devices="tripinfo_flow_route_53_duration_20250327_1930.22" vType="car" speedFactor="1.14" vaporized=""/>
    <tripinfo id="flow_route_67_duration_20250327_1930.4" depart="30.00" departLane="-138002002#2_0" departPos="170.38" departSpeed="0.00" departDelay="0.00" arrival="131.00" arrivalLane="380351865#0_0" arrivalPos="5.17" arrivalSpeed="10.87" duration="101.00" routeLength="167.84" waitingTime="71.00" waitingCount="1" stopTime="0.00" timeLoss="85.26" rerouteNo="0" devices="tripinfo_flow_route_67_duration_20250327_1930.4" vType="car" speedFactor="1.02" vaporized=""/>
    <tripinfo id="flow_route_67_duration_20250327_1930.3" depart="23.00" departLane="-138002002#2_0" departPos="62.45" departSpeed="0.00" departDelay="0.50" arrival="133.00" arrivalLane="380351865#0_0" arrivalPos="3.06" arrivalSpeed="10.52" duration="110.00" routeLength="273.66" waitingTime="65.00" waitingCount="1" stopTime="0.00" timeLoss="86.80" rerouteNo="0" devices="tripinfo_flow_route_67_duration_20250327_1930.3" vType="car" speedFactor="0.95" vaporized=""/>
    <tripinfo id="flow_route_53_duration_20250327_1930.23" depart="67.00" departLane="138002006#0_0" departPos="1.03" departSpeed="0.00" departDelay="11.80" arrival="133.00" arrivalLane="1369578052#0_1" arrivalPos="169.50" arrivalSpeed="16.58" duration="66.00" routeLength="276.39" waitingTime="26.00" waitingCount="1" stopTime="0.00" timeLoss="48.94" rerouteNo="0" devices="tripinfo_flow_route_53_duration_20250327_1930.23" vType="car" speedFactor="1.08" vaporized=""/>
    <tripinfo id="flow_route_53_duration_20250327_1930.24" depart="70.00" departLane="138002006#0_0" departPos="20.50" departSpeed="0.00" departDelay="12.40" arrival="136.00" arrivalLane="1369578052#0_0" arrivalPos="173.40" arrivalSpeed="16.32" duration="66.00" routeLength="260.82" waitingTime="27.00" waitingCount="1" stopTime="0.00" timeLoss="49.58" rerouteNo="0" devices="tripinfo_flow_route_53_duration_20250327_1930.24" vType="car" speedFactor="1.02" vaporized=""/>
    <tripinfo id="flow_route_67_duration_20250327_1930.6" depart="47.00" departLane="-138002002#2_0" departPos="167.47" departSpeed="0.00" departDelay="2.00" arrival="138.00" arrivalLane="380351865#0_0" arrivalPos="15.42" arrivalSpeed="9.09" duration="91.00" routeLength="181.00" waitingTime="63.00" waitingCount="1" stopTime="0.00" timeLoss="71.30" rerouteNo="0" devices="tripinfo_flow_route_67_duration_20250327_1930.6" vType="car" speedFactor="0.85" vaporized=""/>
    <tripinfo id="flow_route_67_duration_20250327_1930.5" depart="39.00" departLane="-138002002#2_0" departPos="122.19" departSpeed="0.00" departDelay="1.50" arrival="139.00" arrivalLane="380351865#0_0" arrivalPos="6.34" arrivalSpeed="10.20" duration="100.00" routeLength="217.21" waitingTime="62.00" waitingCount="1" stopTime="0.00" timeLoss="81.59" rerouteNo="0" devices="tripinfo_flow_route_67_duration_20250327_1930.5" vType="car" speedFactor="1.04" vaporized=""/>
    <tripinfo id="flow_route_67_duration_20250327_1930.7" depart="53.00" departLane="-138002002#2_0" departPos="23.85" departSpeed="0.00" departDelay="0.50" arrival="141.00" arrivalLane="380351865#0_0" arrivalPos="13.69" arrivalSpeed="10.66" duration="88.00" routeLength="322.88" waitingTime="39.00" waitingCount="1" stopTime="0.00" timeLoss="63.18" rerouteNo="0" devices="tripinfo_flow_route_67_duration_20250327_1930.7" vType="car" speedFactor="1.02" vaporized=""/>
    <tripinfo id="flow_route_59_duration_20250327_1930.14" depart="56.00" departLane="186407685_0" departPos="56.81" departSpeed="0.00" departDelay="11.80" arrival="201.00" arrivalLane="1369578052#0_0" arrivalPos="88.97" arrivalSpeed="12.28" duration="145.00" routeLength="218.27" waitingTime="95.00" waitingCount="2" stopTime="0.00" timeLoss="129.11" rerouteNo="0" devices="tripinfo_flow_route_59_duration_20250327_1930.14" vType="car" speedFactor="0.85" vaporized=""/>
    <tripinfo id="flow_route_59_duration_20250327_1930.15" depart="59.00" departLane="186407685_0" departPos="71.42" departSpeed="0.00" departDelay="11.65" arrival="203.00" arrivalLane="1369578052#0_0" arrivalPos="156.92" arrivalSpeed="16.08" duration="144.00" routeLength="271.61" waitingTime="96.00" waitingCount="2" stopTime="0.00" timeLoss="126.51" rerouteNo="0" devices="tripinfo_flow_route_59_duration_20250327_1930.15" vType="car" speedFactor="1.00" vaporized=""/>
    <tripinfo id="flow_route_59_duration_20250327_1930.16" depart="63.00" departLane="186407685_0" departPos="15.06" departSpeed="0.00" departDelay="12.49" arrival="203.00" arrivalLane="1369578052#0_0" arrivalPos="38.25" arrivalSpeed="9.37" duration="140.00" routeLength="209.30" waitingTime="87.00" waitingCount="2" stopTime="0.00" timeLoss="125.71" rerouteNo="0" devices="tripinfo_flow_route_59_duration_20250327_1930.16" vType="car" speedFactor="0.90" vaporized=""/>
    <tripinfo id="flow_route_59_duration_20250327_1930.13" depart="46.00" departLane="186407685_0" departPos="0.15" departSpeed="0.00" departDelay="4.96" arrival="204.00" arrivalLane="1369578052#0_0" arrivalPos="109.25" arrivalSpeed="13.31" duration="158.00" routeLength="295.21" waitingTime="94.00" waitingCount="2" stopTime="0.00" timeLoss="137.84" rerouteNo="0" devices="tripinfo_flow_route_59_duration_20250327_1930.13" vType="car" speedFactor="0.90" vaporized=""/>
    <tripinfo id="flow_route_59_duration_20250327_1930.17" depart="65.00" departLane="186407685_0" departPos="33.75" departSpeed="0.00" departDelay="11.33" arrival="209.00" arrivalLane="1369578052#0_0" arrivalPos="145.53" arrivalSpeed="15.61" duration="144.00" routeLength="297.89" waitingTime="88.00" waitingCount="2" stopTime="0.00" timeLoss="124.47" rerouteNo="0" devices="tripinfo_flow_route_59_duration_20250327_1930.17" vType="car" speedFactor="0.97" vaporized=""/>