<?xml version="1.0" encoding="UTF-8"?>

<!-- generated on 2025-05-06 16:33:58 by Eclipse SUMO sumo Version 1.20.0
<configuration xmlns:xsi="http://www.w3.org/2001/XMLSchema-instance" xsi:noNamespaceSchemaLocation="http://sumo.dlr.de/xsd/sumoConfiguration.xsd">

    <input>
        <net-file value="osm.net.xml"/>
        <route-files value="xml/routes_ddpg_GS_cluster_1342409365_3839031467.rou.xml"/>
    </input>

    <output>
        <tripinfo-output value="xml/tripinfo_42363.xml"/>
    </output>

    <traci_server>
        <remote-port value="56613"/>
    </traci_server>

</configuration>
-->

<tripinfos xmlns:xsi="http://www.w3.org/2001/XMLSchema-instance" xsi:noNamespaceSchemaLocation="http://sumo.dlr.de/xsd/tripinfo_file.xsd">
    <tripinfo id="flow_route_128_duration_20250327_2210.0" depart="0.00" departLane="134133272_0" departPos="226.49" departSpeed="0.00" departDelay="0.00" arrival="31.00" arrivalLane="380585338#0_0" arrivalPos="7.57" arrivalSpeed="5.61" duration="31.00" routeLength="279.28" waitingTime="0.00" waitingCount="0" stopTime="0.00" timeLoss="10.64" rerouteNo="0" devices="tripinfo_flow_route_128_duration_20250327_2210.0" vType="car" speedFactor="0.83" vaporized=""/>
    <tripinfo id="flow_route_92_duration_20250327_2210.1" depart="12.00" departLane="133000063_0" departPos="141.98" departSpeed="0.00" departDelay="0.00" arrival="45.00" arrivalLane="186409193_0" arrivalPos="54.86" arrivalSpeed="16.51" duration="33.00" routeLength="304.74" waitingTime="0.00" waitingCount="0" stopTime="0.00" timeLoss="13.76" rerouteNo="0" devices="tripinfo_flow_route_92_duration_20250327_2210.1" vType="car" speedFactor="1.03" vaporized=""/>
    <tripinfo id="flow_route_91_duration_20250327_2210.0" depart="0.00" departLane="133000063_0" departPos="128.34" departSpeed="0.00" departDelay="0.00" arrival="48.00" arrivalLane="683079387#1_0" arrivalPos="9.10" arrivalSpeed="16.56" duration="48.00" routeLength="599.49" waitingTime="0.00" waitingCount="0" stopTime="0.00" timeLoss="11.16" rerouteNo="0" devices="tripinfo_flow_route_91_duration_20250327_2210.0" vType="car" speedFactor="1.06" vaporized=""/>
    <tripinfo id="flow_route_92_duration_20250327_2210.0" depart="0.00" departLane="133000063_0" departPos="1.04" departSpeed="0.00" departDelay="0.00" arrival="49.00" arrivalLane="186409193_0" arrivalPos="41.62" arrivalSpeed="15.49" duration="49.00" routeLength="432.44" waitingTime="0.00" waitingCount="0" stopTime="0.00" timeLoss="20.23" rerouteNo="0" devices="tripinfo_flow_route_92_duration_20250327_2210.0" vType="car" speedFactor="0.94" vaporized=""/>
    <tripinfo id="flow_route_144_duration_20250327_2210.0" depart="0.00" departLane="683079388#0_0" departPos="1.56" departSpeed="0.00" departDelay="0.00" arrival="53.00" arrivalLane="380585338#0_0" arrivalPos="42.98" arrivalSpeed="14.39" duration="53.00" routeLength="621.16" waitingTime="0.00" waitingCount="0" stopTime="0.00" timeLoss="10.22" rerouteNo="0" devices="tripinfo_flow_route_144_duration_20250327_2210.0" vType="car" speedFactor="0.89" vaporized=""/>
    <tripinfo id="flow_route_93_duration_20250327_2210.0" depart="0.00" departLane="133000063_0" departPos="115.92" departSpeed="0.00" departDelay="0.00" arrival="63.00" arrivalLane="380585336_1" arrivalPos="19.16" arrivalSpeed="16.29" duration="63.00" routeLength="758.54" waitingTime="0.00" waitingCount="0" stopTime="0.00" timeLoss="16.55" rerouteNo="0" devices="tripinfo_flow_route_93_duration_20250327_2210.0" vType="car" speedFactor="1.01" vaporized=""/>
    <tripinfo id="flow_route_128_duration_20250327_2210.1" depart="30.00" departLane="134133272_0" departPos="267.23" departSpeed="0.00" departDelay="0.00" arrival="67.00" arrivalLane="380585338#0_0" arrivalPos="99.26" arrivalSpeed="13.66" duration="37.00" routeLength="330.23" waitingTime="0.00" waitingCount="0" stopTime="0.00" timeLoss="15.69" rerouteNo="0" devices="tripinfo_flow_route_128_duration_20250327_2210.1" vType="car" speedFactor="1.02" vaporized=""/>
    <tripinfo id="flow_route_92_duration_20250327_2210.3" depart="38.00" departLane="133000063_0" departPos="164.47" departSpeed="0.00" departDelay="2.00" arrival="67.00" arrivalLane="186409193_0" arrivalPos="17.98" arrivalSpeed="13.78" duration="29.00" routeLength="245.37" waitingTime="0.00" waitingCount="0" stopTime="0.00" timeLoss="11.18" rerouteNo="0" devices="tripinfo_flow_route_92_duration_20250327_2210.3" vType="car" speedFactor="0.89" vaporized=""/>
    <tripinfo id="flow_route_145_duration_20250327_2210.0" depart="0.00" departLane="683079388#0_0" departPos="22.61" departSpeed="0.00" departDelay="0.00" arrival="68.00" arrivalLane="380585336_0" arrivalPos="229.76" arrivalSpeed="15.56" duration="68.00" routeLength="831.39" waitingTime="0.00" waitingCount="0" stopTime="0.00" timeLoss="15.05" rerouteNo="0" devices="tripinfo_flow_route_145_duration_20250327_2210.0" vType="car" speedFactor="0.94" vaporized=""/>
    <tripinfo id="flow_route_102_duration_20250327_2210.0" depart="0.00" departLane="1342963997_0" departPos="83.70" departSpeed="0.00" departDelay="0.00" arrival="69.00" arrivalLane="380585336_1" arrivalPos="207.08" arrivalSpeed="16.40" duration="69.00" routeLength="834.32" waitingTime="0.00" waitingCount="0" stopTime="0.00" timeLoss="17.69" rerouteNo="0" devices="tripinfo_flow_route_102_duration_20250327_2210.0" vType="car" speedFactor="1.08" vaporized=""/>
    <tripinfo id="flow_route_92_duration_20250327_2210.2" depart="24.00" departLane="133000063_0" departPos="57.06" departSpeed="0.00" departDelay="0.00" arrival="73.00" arrivalLane="186409193_0" arrivalPos="40.02" arrivalSpeed="15.24" duration="49.00" routeLength="374.82" waitingTime="0.00" waitingCount="0" stopTime="0.00" timeLoss="23.50" rerouteNo="0" devices="tripinfo_flow_route_92_duration_20250327_2210.2" vType="car" speedFactor="0.93" vaporized=""/>
    <tripinfo id="flow_route_103_duration_20250327_2210.0" depart="1.00" departLane="1342963997_0" departPos="57.81" departSpeed="0.00" departDelay="1.00" arrival="74.00" arrivalLane="683079387#1_0" arrivalPos="6.02" arrivalSpeed="16.32" duration="73.00" routeLength="524.42" waitingTime="17.00" waitingCount="1" stopTime="0.00" timeLoss="40.09" rerouteNo="0" devices="tripinfo_flow_route_103_duration_20250327_2210.0" vType="car" speedFactor="1.03" vaporized=""/>
    <tripinfo id="flow_route_91_duration_20250327_2210.1" depart="31.00" departLane="133000063_0" departPos="102.69" departSpeed="0.00" departDelay="1.00" arrival="82.00" arrivalLane="683079387#1_0" arrivalPos="2.70" arrivalSpeed="15.59" duration="51.00" routeLength="618.73" waitingTime="0.00" waitingCount="0" stopTime="0.00" timeLoss="11.54" rerouteNo="0" devices="tripinfo_flow_route_91_duration_20250327_2210.1" vType="car" speedFactor="0.94" vaporized=""/>
    <tripinfo id="flow_route_144_duration_20250327_2210.1" depart="30.00" departLane="683079388#0_0" departPos="18.48" departSpeed="0.00" departDelay="0.00" arrival="83.00" arrivalLane="380585338#0_0" arrivalPos="41.92" arrivalSpeed="11.95" duration="53.00" routeLength="603.18" waitingTime="0.00" waitingCount="0" stopTime="0.00" timeLoss="16.34" rerouteNo="0" devices="tripinfo_flow_route_144_duration_20250327_2210.1" vType="car" speedFactor="1.01" vaporized=""/>
    <tripinfo id="flow_route_93_duration_20250327_2210.2" depart="9.00" departLane="133000063_0" departPos="109.11" departSpeed="0.00" departDelay="0.43" arrival="85.00" arrivalLane="380585336_1" arrivalPos="129.38" arrivalSpeed="16.59" duration="76.00" routeLength="875.56" waitingTime="0.00" waitingCount="0" stopTime="0.00" timeLoss="22.52" rerouteNo="0" devices="tripinfo_flow_route_93_duration_20250327_2210.2" vType="car" speedFactor="1.09" vaporized=""/>
    <tripinfo id="flow_route_93_duration_20250327_2210.4" depart="20.00" departLane="133000063_0" departPos="27.40" departSpeed="0.00" departDelay="2.86" arrival="90.00" arrivalLane="380585336_1" arrivalPos="13.66" arrivalSpeed="16.48" duration="70.00" routeLength="841.54" waitingTime="0.00" waitingCount="0" stopTime="0.00" timeLoss="18.63" rerouteNo="0" devices="tripinfo_flow_route_93_duration_20250327_2210.4" vType="car" speedFactor="1.12" vaporized=""/>
    <tripinfo id="flow_route_93_duration_20250327_2210.1" depart="6.00" departLane="133000063_0" departPos="88.35" departSpeed="0.00" departDelay="1.72" arrival="95.00" arrivalLane="380585336_0" arrivalPos="288.04" arrivalSpeed="13.88" duration="89.00" routeLength="1054.98" waitingTime="0.00" waitingCount="0" stopTime="0.00" timeLoss="15.33" rerouteNo="0" devices="tripinfo_flow_route_93_duration_20250327_2210.1" vType="car" speedFactor="0.86" vaporized=""/>
    <tripinfo id="flow_route_93_duration_20250327_2210.6" depart="28.00" departLane="133000063_0" departPos="166.13" departSpeed="0.00" departDelay="2.29" arrival="96.00" arrivalLane="380585336_1" arrivalPos="54.51" arrivalSpeed="14.36" duration="68.00" routeLength="743.67" waitingTime="0.00" waitingCount="0" stopTime="0.00" timeLoss="17.21" rerouteNo="0" devices="tripinfo_flow_route_93_duration_20250327_2210.6" vType="car" speedFactor="0.88" vaporized=""/>
    <tripinfo id="flow_route_93_duration_20250327_2210.7" depart="31.00" departLane="133000063_0" departPos="119.12" departSpeed="0.00" departDelay="1.01" arrival="106.00" arrivalLane="380585336_1" arrivalPos="94.02" arrivalSpeed="15.42" duration="75.00" routeLength="830.19" waitingTime="0.00" waitingCount="0" stopTime="0.00" timeLoss="21.45" rerouteNo="0" devices="tripinfo_flow_route_93_duration_20250327_2210.7" vType="car" speedFactor="0.94" vaporized=""/>
    <tripinfo id="flow_route_129_duration_20250327_2210.0" depart="0.00" departLane="134133272_0" departPos="105.80" departSpeed="0.00" departDelay="0.00" arrival="108.00" arrivalLane="683079387#1_0" arrivalPos="7.59" arrivalSpeed="16.58" duration="108.00" routeLength="945.90" waitingTime="25.00" waitingCount="1" stopTime="0.00" timeLoss="50.15" rerouteNo="0" devices="tripinfo_flow_route_129_duration_20250327_2210.0" vType="car" speedFactor="1.05" vaporized=""/>
    <tripinfo id="flow_route_92_duration_20250327_2210.4" depart="52.00" departLane="133000063_0" departPos="97.69" departSpeed="0.00" departDelay="4.00" arrival="111.00" arrivalLane="186409193_0" arrivalPos="54.22" arrivalSpeed="15.06" duration="59.00" routeLength="348.39" waitingTime="9.00" waitingCount="1" stopTime="0.00" timeLoss="35.14" rerouteNo="0" devices="tripinfo_flow_route_92_duration_20250327_2210.4" vType="car" speedFactor="0.92" vaporized=""/>
    <tripinfo id="flow_route_93_duration_20250327_2210.10" depart="43.00" departLane="133000063_0" departPos="94.18" departSpeed="0.00" departDelay="0.15" arrival="116.00" arrivalLane="380585336_1" arrivalPos="117.49" arrivalSpeed="14.45" duration="73.00" routeLength="878.61" waitingTime="0.00" waitingCount="0" stopTime="0.00" timeLoss="12.99" rerouteNo="0" devices="tripinfo_flow_route_93_duration_20250327_2210.10" vType="car" speedFactor="0.87" vaporized=""/>
    <tripinfo id="flow_route_93_duration_20250327_2210.3" depart="15.00" departLane="133000063_0" departPos="40.77" departSpeed="0.00" departDelay="2.15" arrival="117.00" arrivalLane="380585336_0" arrivalPos="374.01" arrivalSpeed="16.26" duration="102.00" routeLength="1188.53" waitingTime="0.00" waitingCount="0" stopTime="0.00" timeLoss="29.76" rerouteNo="0" devices="tripinfo_flow_route_93_duration_20250327_2210.3" vType="car" speedFactor="1.05" vaporized=""/>
    <tripinfo id="flow_route_102_duration_20250327_2210.1" depart="30.00" departLane="1342963997_0" departPos="15.98" departSpeed="0.00" departDelay="0.00" arrival="126.00" arrivalLane="380585336_1" arrivalPos="70.77" arrivalSpeed="16.36" duration="96.00" routeLength="765.73" waitingTime="19.00" waitingCount="1" stopTime="0.00" timeLoss="48.51" rerouteNo="0" devices="tripinfo_flow_route_102_duration_20250327_2210.1" vType="car" speedFactor="1.16" vaporized=""/>
    <tripinfo id="flow_route_93_duration_20250327_2210.5" depart="22.00" departLane="133000063_0" departPos="5.14" departSpeed="0.00" departDelay="0.58" arrival="129.00" arrivalLane="380585336_0" arrivalPos="403.07" arrivalSpeed="16.34" duration="107.00" routeLength="1253.22" waitingTime="0.00" waitingCount="0" stopTime="0.00" timeLoss="30.23" rerouteNo="0" devices="tripinfo_flow_route_93_duration_20250327_2210.5" vType="car" speedFactor="0.99" vaporized=""/>
    <tripinfo id="flow_route_93_duration_20250327_2210.8" depart="38.00" departLane="133000063_0" departPos="29.01" departSpeed="0.00" departDelay="3.72" arrival="133.00" arrivalLane="380585336_2" arrivalPos="393.99" arrivalSpeed="16.19" duration="95.00" routeLength="1220.28" waitingTime="0.00" waitingCount="0" stopTime="0.00" timeLoss="19.77" rerouteNo="0" devices="tripinfo_flow_route_93_duration_20250327_2210.8" vType="car" speedFactor="0.97" vaporized=""/>
    <tripinfo id="flow_route_93_duration_20250327_2210.11" depart="52.00" departLane="133000063_0" departPos="35.68" departSpeed="0.00" departDelay="4.87" arrival="134.00" arrivalLane="380585336_1" arrivalPos="28.22" arrivalSpeed="15.64" duration="82.00" routeLength="847.83" waitingTime="2.00" waitingCount="1" stopTime="0.00" timeLoss="28.31" rerouteNo="0" devices="tripinfo_flow_route_93_duration_20250327_2210.11" vType="car" speedFactor="0.95" vaporized=""/>
    <tripinfo id="flow_route_93_duration_20250327_2210.9" depart="41.00" departLane="133000063_0" departPos="4.79" departSpeed="0.00" departDelay="2.44" arrival="145.00" arrivalLane="380585336_0" arrivalPos="77.26" arrivalSpeed="13.68" duration="104.00" routeLength="927.75" waitingTime="12.00" waitingCount="1" stopTime="0.00" timeLoss="37.46" rerouteNo="0" devices="tripinfo_flow_route_93_duration_20250327_2210.9" vType="car" speedFactor="0.83" vaporized=""/>
    <tripinfo id="flow_route_93_duration_20250327_2210.13" depart="57.00" departLane="133000063_0" departPos="60.60" departSpeed="0.00" departDelay="1.30" arrival="145.00" arrivalLane="380585336_1" arrivalPos="33.71" arrivalSpeed="15.26" duration="88.00" routeLength="828.40" waitingTime="3.00" waitingCount="1" stopTime="0.00" timeLoss="34.67" rerouteNo="0" devices="tripinfo_flow_route_93_duration_20250327_2210.13" vType="car" speedFactor="0.93" vaporized=""/>
    <tripinfo id="flow_route_93_duration_20250327_2210.12" depart="53.00" departLane="133000063_0" departPos="8.07" departSpeed="0.00" departDelay="1.58" arrival="146.00" arrivalLane="380585336_2" arrivalPos="36.24" arrivalSpeed="16.56" duration="93.00" routeLength="883.47" waitingTime="2.00" waitingCount="1" stopTime="0.00" timeLoss="39.38" rerouteNo="0" devices="tripinfo_flow_route_93_duration_20250327_2210.12" vType="car" speedFactor="1.13" vaporized=""/>
</tripinfos>
