<?xml version="1.0" encoding="UTF-8"?>

<!-- generated on 2025-05-06 21:08:34 by Eclipse SUMO sumo Version 1.20.0
<configuration xmlns:xsi="http://www.w3.org/2001/XMLSchema-instance" xsi:noNamespaceSchemaLocation="http://sumo.dlr.de/xsd/sumoConfiguration.xsd">

    <input>
        <net-file value="osm.net.xml"/>
        <route-files value="xml/route_rl_cluster3839130731_cluster_11644940326_11644940327_11648561426_5.rou.xml"/>
    </input>

    <output>
        <tripinfo-output value="xml/tripinfo_rl_cluster3839130731_cluster_11644940326_11644940327_11648561426_5.xml"/>
    </output>

    <traci_server>
        <remote-port value="37383"/>
    </traci_server>

</configuration>
-->

<tripinfos xmlns:xsi="http://www.w3.org/2001/XMLSchema-instance" xsi:noNamespaceSchemaLocation="http://sumo.dlr.de/xsd/tripinfo_file.xsd">
    <tripinfo id="flow_route_123_duration_20250327_1950.0" depart="0.00" departLane="189240000#0-AddedOnRampEdge_0" departPos="5.69" departSpeed="0.00" departDelay="0.00" arrival="23.00" arrivalLane="1254519229#0_1" arrivalPos="19.69" arrivalSpeed="12.20" duration="23.00" routeLength="159.84" waitingTime="0.00" waitingCount="0" stopTime="0.00" timeLoss="11.25" rerouteNo="0" devices="tripinfo_flow_route_123_duration_20250327_1950.0" vType="car" speedFactor="0.89" vaporized=""/>
    <tripinfo id="flow_route_123_duration_20250327_1950.1" depart="6.00" departLane="189240000#0-AddedOnRampEdge_0" departPos="51.39" departSpeed="0.00" departDelay="0.00" arrival="28.00" arrivalLane="1254519229#0_1" arrivalPos="31.56" arrivalSpeed="12.44" duration="22.00" routeLength="126.01" waitingTime="0.00" waitingCount="0" stopTime="0.00" timeLoss="13.52" rerouteNo="0" devices="tripinfo_flow_route_123_duration_20250327_1950.1" vType="car" speedFactor="1.12" vaporized=""/>
    <tripinfo id="flow_route_96_duration_20250327_1950.0" depart="0.00" departLane="1341093416#0_0" departPos="184.53" departSpeed="0.00" departDelay="0.00" arrival="29.00" arrivalLane="1254519229#0_1" arrivalPos="3.62" arrivalSpeed="3.30" duration="29.00" routeLength="114.10" waitingTime="7.00" waitingCount="1" stopTime="0.00" timeLoss="20.88" rerouteNo="0" devices="tripinfo_flow_route_96_duration_20250327_1950.0" vType="car" speedFactor="1.01" vaporized=""/>
    <tripinfo id="flow_route_123_duration_20250327_1950.2" depart="12.00" departLane="189240000#0-AddedOnRampEdge_0" departPos="88.28" departSpeed="0.00" departDelay="0.00" arrival="29.00" arrivalLane="1254519229#0_0" arrivalPos="56.94" arrivalSpeed="12.64" duration="17.00" routeLength="110.99" waitingTime="0.00" waitingCount="0" stopTime="0.00" timeLoss="8.51" rerouteNo="0" devices="tripinfo_flow_route_123_duration_20250327_1950.2" vType="car" speedFactor="0.83" vaporized=""/>
    <tripinfo id="flow_route_124_duration_20250327_1950.0" depart="0.00" departLane="189240000#0-AddedOnRampEdge_0" departPos="82.66" departSpeed="0.00" departDelay="0.00" arrival="35.00" arrivalLane="1254519225#0.109_3" arrivalPos="34.02" arrivalSpeed="15.03" duration="35.00" routeLength="196.39" waitingTime="4.00" waitingCount="1" stopTime="0.00" timeLoss="21.03" rerouteNo="0" devices="tripinfo_flow_route_124_duration_20250327_1950.0" vType="car" speedFactor="0.94" vaporized=""/>
    <tripinfo id="flow_route_95_duration_20250327_1950.3" depart="11.00" departLane="1341093416#0_0" departPos="222.56" departSpeed="0.00" departDelay="1.53" arrival="36.00" arrivalLane="1254519225#0.109_0" arrivalPos="60.18" arrivalSpeed="16.50" duration="25.00" routeLength="219.99" waitingTime="0.00" waitingCount="0" stopTime="0.00" timeLoss="11.08" rerouteNo="0" devices="tripinfo_flow_route_95_duration_20250327_1950.3" vType="car" speedFactor="1.02" vaporized=""/>
    <tripinfo id="flow_route_123_duration_20250327_1950.3" depart="18.00" departLane="189240000#0-AddedOnRampEdge_0" departPos="27.38" departSpeed="0.00" departDelay="0.00" arrival="36.00" arrivalLane="1254519229#0_0" arrivalPos="6.37" arrivalSpeed="11.11" duration="18.00" routeLength="121.31" waitingTime="0.00" waitingCount="0" stopTime="0.00" timeLoss="9.88" rerouteNo="0" devices="tripinfo_flow_route_123_duration_20250327_1950.3" vType="car" speedFactor="0.99" vaporized=""/>
    <tripinfo id="flow_route_94_duration_20250327_1950.0" depart="0.00" departLane="1341093416#0_0" departPos="204.30" departSpeed="0.00" departDelay="0.00" arrival="37.00" arrivalLane="799091563#0_0" arrivalPos="338.33" arrivalSpeed="16.25" duration="37.00" routeLength="440.38" waitingTime="0.00" waitingCount="0" stopTime="0.00" timeLoss="10.45" rerouteNo="0" devices="tripinfo_flow_route_94_duration_20250327_1950.0" vType="car" speedFactor="1.06" vaporized=""/>
    <tripinfo id="flow_route_95_duration_20250327_1950.1" depart="4.00" departLane="1341093416#0_0" departPos="173.69" departSpeed="0.00" departDelay="0.84" arrival="37.00" arrivalLane="1254519225#0.109_0" arrivalPos="32.00" arrivalSpeed="15.63" duration="33.00" routeLength="240.68" waitingTime="0.00" waitingCount="0" stopTime="0.00" timeLoss="17.51" rerouteNo="0" devices="tripinfo_flow_route_95_duration_20250327_1950.1" vType="car" speedFactor="1.09" vaporized=""/>
    <tripinfo id="flow_route_124_duration_20250327_1950.1" depart="4.00" departLane="189240000#0-AddedOnRampEdge_0" departPos="88.65" departSpeed="0.00" departDelay="0.67" arrival="37.00" arrivalLane="1254519225#0.109_3" arrivalPos="19.16" arrivalSpeed="14.82" duration="33.00" routeLength="175.53" waitingTime="3.00" waitingCount="1" stopTime="0.00" timeLoss="20.82" rerouteNo="0" devices="tripinfo_flow_route_124_duration_20250327_1950.1" vType="car" speedFactor="1.03" vaporized=""/>
    <tripinfo id="flow_route_96_duration_20250327_1950.1" depart="12.00" departLane="1341093416#0_0" departPos="189.63" departSpeed="0.00" departDelay="0.00" arrival="39.00" arrivalLane="1254519229#0_1" arrivalPos="53.16" arrivalSpeed="10.00" duration="27.00" routeLength="158.54" waitingTime="0.00" waitingCount="0" stopTime="0.00" timeLoss="15.97" rerouteNo="0" devices="tripinfo_flow_route_96_duration_20250327_1950.1" vType="car" speedFactor="0.89" vaporized=""/>
    <tripinfo id="flow_route_124_duration_20250327_1950.2" depart="7.00" departLane="189240000#0-AddedOnRampEdge_0" departPos="64.68" departSpeed="0.00" departDelay="0.33" arrival="41.00" arrivalLane="1254519225#0.109_3" arrivalPos="47.70" arrivalSpeed="15.20" duration="34.00" routeLength="228.05" waitingTime="0.00" waitingCount="0" stopTime="0.00" timeLoss="17.72" rerouteNo="0" devices="tripinfo_flow_route_124_duration_20250327_1950.2" vType="car" speedFactor="0.94" vaporized=""/>
    <tripinfo id="flow_route_124_duration_20250327_1950.3" depart="10.00" departLane="189240000#0-AddedOnRampEdge_0" departPos="53.97" departSpeed="0.00" departDelay="0.00" arrival="41.00" arrivalLane="1254519225#0.109_3" arrivalPos="16.48" arrivalSpeed="15.65" duration="31.00" routeLength="207.54" waitingTime="1.00" waitingCount="1" stopTime="0.00" timeLoss="16.40" rerouteNo="0" devices="tripinfo_flow_route_124_duration_20250327_1950.3" vType="car" speedFactor="1.01" vaporized=""/>
    <tripinfo id="flow_route_124_duration_20250327_1950.4" depart="14.00" departLane="189240000#0-AddedOnRampEdge_0" departPos="14.33" departSpeed="0.00" departDelay="0.67" arrival="44.00" arrivalLane="1254519225#0.109_3" arrivalPos="11.44" arrivalSpeed="14.57" duration="30.00" routeLength="242.14" waitingTime="0.00" waitingCount="0" stopTime="0.00" timeLoss="14.46" rerouteNo="0" devices="tripinfo_flow_route_124_duration_20250327_1950.4" vType="car" speedFactor="1.13" vaporized=""/>
    <tripinfo id="flow_route_111_duration_20250327_1950.3" depart="7.00" departLane="1253188486#8_0" departPos="234.69" departSpeed="0.00" departDelay="0.80" arrival="45.00" arrivalLane="1254519229#0_0" arrivalPos="2.58" arrivalSpeed="6.87" duration="38.00" routeLength="44.11" waitingTime="23.00" waitingCount="1" stopTime="0.00" timeLoss="35.19" rerouteNo="0" devices="tripinfo_flow_route_111_duration_20250327_1950.3" vType="car" speedFactor="0.93" vaporized=""/>
    <tripinfo id="flow_route_95_duration_20250327_1950.7" depart="23.00" departLane="1341093416#0_0" departPos="239.60" departSpeed="0.00" departDelay="0.90" arrival="45.00" arrivalLane="1254519225#0.109_0" arrivalPos="26.52" arrivalSpeed="15.69" duration="22.00" routeLength="169.30" waitingTime="0.00" waitingCount="0" stopTime="0.00" timeLoss="10.40" rerouteNo="0" devices="tripinfo_flow_route_95_duration_20250327_1950.7" vType="car" speedFactor="0.96" vaporized=""/>
    <tripinfo id="flow_route_111_duration_20250327_1950.0" depart="0.00" departLane="1253188486#8_0" departPos="138.93" departSpeed="0.00" departDelay="0.00" arrival="48.00" arrivalLane="1254519229#0_0" arrivalPos="3.47" arrivalSpeed="7.65" duration="48.00" routeLength="140.76" waitingTime="19.00" waitingCount="1" stopTime="0.00" timeLoss="39.15" rerouteNo="0" devices="tripinfo_flow_route_111_duration_20250327_1950.0" vType="car" speedFactor="0.83" vaporized=""/>
    <tripinfo id="flow_route_111_duration_20250327_1950.2" depart="5.00" departLane="1253188486#8_0" departPos="217.77" departSpeed="0.00" departDelay="0.86" arrival="52.00" arrivalLane="1254519229#0_1" arrivalPos="65.59" arrivalSpeed="12.71" duration="47.00" routeLength="124.04" waitingTime="21.00" waitingCount="1" stopTime="0.00" timeLoss="38.88" rerouteNo="0" devices="tripinfo_flow_route_111_duration_20250327_1950.2" vType="car" speedFactor="1.05" vaporized=""/>
    <tripinfo id="flow_route_111_duration_20250327_1950.4" depart="10.00" departLane="1253188486#8_0" departPos="54.74" departSpeed="0.00" departDelay="1.73" arrival="52.00" arrivalLane="1254519229#0_0" arrivalPos="9.98" arrivalSpeed="9.32" duration="42.00" routeLength="231.45" waitingTime="4.00" waitingCount="1" stopTime="0.00" timeLoss="28.04" rerouteNo="0" devices="tripinfo_flow_route_111_duration_20250327_1950.4" vType="car" speedFactor="1.16" vaporized=""/>
    <tripinfo id="flow_route_111_duration_20250327_1950.5" depart="13.00" departLane="1253188486#8_0" departPos="120.85" departSpeed="0.00" departDelay="2.66" arrival="52.00" arrivalLane="1254519229#0_0" arrivalPos="19.21" arrivalSpeed="10.09" duration="39.00" routeLength="174.58" waitingTime="6.00" waitingCount="1" stopTime="0.00" timeLoss="27.92" rerouteNo="0" devices="tripinfo_flow_route_111_duration_20250327_1950.5" vType="car" speedFactor="0.97" vaporized=""/>
    <tripinfo id="flow_route_111_duration_20250327_1950.9" depart="21.00" departLane="1253188486#8_0" departPos="214.80" departSpeed="0.00" departDelay="2.39" arrival="53.00" arrivalLane="1254519229#0_1" arrivalPos="54.00" arrivalSpeed="11.61" duration="32.00" routeLength="115.42" waitingTime="8.00" waitingCount="1" stopTime="0.00" timeLoss="24.64" rerouteNo="0" devices="tripinfo_flow_route_111_duration_20250327_1950.9" vType="car" speedFactor="0.97" vaporized=""/>
    <tripinfo id="flow_route_111_duration_20250327_1950.6" depart="13.00" departLane="1253188486#8_0" departPos="41.31" departSpeed="0.00" departDelay="0.59" arrival="54.00" arrivalLane="1254519229#0_1" arrivalPos="24.49" arrivalSpeed="10.78" duration="41.00" routeLength="259.40" waitingTime="0.00" waitingCount="0" stopTime="0.00" timeLoss="25.18" rerouteNo="0" devices="tripinfo_flow_route_111_duration_20250327_1950.6" vType="car" speedFactor="0.92" vaporized=""/>
    <tripinfo id="flow_route_111_duration_20250327_1950.1" depart="3.00" departLane="1253188486#8_0" departPos="11.33" departSpeed="0.00" departDelay="0.93" arrival="55.00" arrivalLane="1254519229#0_1" arrivalPos="54.39" arrivalSpeed="12.01" duration="52.00" routeLength="319.28" waitingTime="6.00" waitingCount="1" stopTime="0.00" timeLoss="32.16" rerouteNo="0" devices="tripinfo_flow_route_111_duration_20250327_1950.1" vType="car" speedFactor="0.86" vaporized=""/>
    <tripinfo id="flow_route_104_duration_20250327_1950.0" depart="0.00" departLane="189240001_0" departPos="36.52" departSpeed="0.00" departDelay="0.00" arrival="56.00" arrivalLane="1254519225#0.109_0" arrivalPos="30.66" arrivalSpeed="14.98" duration="56.00" routeLength="198.30" waitingTime="23.00" waitingCount="1" stopTime="0.00" timeLoss="43.94" rerouteNo="0" devices="tripinfo_flow_route_104_duration_20250327_1950.0" vType="car" speedFactor="1.08" vaporized=""/>
    <tripinfo id="flow_route_111_duration_20250327_1950.8" depart="20.00" departLane="1253188486#8_0" departPos="102.35" departSpeed="0.00" departDelay="3.46" arrival="57.00" arrivalLane="1254519229#0_1" arrivalPos="26.98" arrivalSpeed="11.49" duration="37.00" routeLength="200.85" waitingTime="0.00" waitingCount="0" stopTime="0.00" timeLoss="24.29" rerouteNo="0" devices="tripinfo_flow_route_111_duration_20250327_1950.8" vType="car" speedFactor="1.01" vaporized=""/>
    <tripinfo id="flow_route_111_duration_20250327_1950.10" depart="21.00" departLane="1253188486#8_0" departPos="120.87" departSpeed="0.00" departDelay="0.32" arrival="57.00" arrivalLane="1254519229#0_0" arrivalPos="24.09" arrivalSpeed="11.22" duration="36.00" routeLength="179.43" waitingTime="2.00" waitingCount="1" stopTime="0.00" timeLoss="24.62" rerouteNo="0" devices="tripinfo_flow_route_111_duration_20250327_1950.10" vType="car" speedFactor="1.03" vaporized=""/>
    <tripinfo id="flow_route_111_duration_20250327_1950.14" depart="30.00" departLane="1253188486#8_0" departPos="167.04" departSpeed="0.00" departDelay="1.05" arrival="57.00" arrivalLane="1254519229#0_0" arrivalPos="12.22" arrivalSpeed="10.49" duration="27.00" routeLength="121.40" waitingTime="0.00" waitingCount="0" stopTime="0.00" timeLoss="19.67" rerouteNo="0" devices="tripinfo_flow_route_111_duration_20250327_1950.14" vType="car" speedFactor="1.10" vaporized=""/>
    <tripinfo id="flow_route_104_duration_20250327_1950.1" depart="8.00" departLane="189240001_0" departPos="10.14" departSpeed="0.00" departDelay="0.50" arrival="58.00" arrivalLane="1254519225#0.109_0" arrivalPos="20.67" arrivalSpeed="15.26" duration="50.00" routeLength="214.69" waitingTime="16.00" waitingCount="1" stopTime="0.00" timeLoss="35.63" rerouteNo="0" devices="tripinfo_flow_route_104_duration_20250327_1950.1" vType="car" speedFactor="0.94" vaporized=""/>
    <tripinfo id="flow_route_111_duration_20250327_1950.7" depart="15.00" departLane="1253188486#8_0" departPos="16.43" departSpeed="0.00" departDelay="0.52" arrival="58.00" arrivalLane="1254519229#0_1" arrivalPos="22.19" arrivalSpeed="11.02" duration="43.00" routeLength="281.98" waitingTime="0.00" waitingCount="0" stopTime="0.00" timeLoss="25.75" rerouteNo="0" devices="tripinfo_flow_route_111_duration_20250327_1950.7" vType="car" speedFactor="1.18" vaporized=""/>
    <tripinfo id="flow_route_104_duration_20250327_1950.3" depart="23.00" departLane="189240001_0" departPos="44.95" departSpeed="0.00" departDelay="0.50" arrival="61.00" arrivalLane="1254519225#0.109_0" arrivalPos="44.34" arrivalSpeed="16.44" duration="38.00" routeLength="203.56" waitingTime="7.00" waitingCount="1" stopTime="0.00" timeLoss="25.26" rerouteNo="0" devices="tripinfo_flow_route_104_duration_20250327_1950.3" vType="car" speedFactor="1.09" vaporized=""/>
    <tripinfo id="flow_route_111_duration_20250327_1950.11" depart="25.00" departLane="1253188486#8_0" departPos="68.99" departSpeed="0.00" departDelay="2.25" arrival="62.00" arrivalLane="1254519229#0_0" arrivalPos="36.27" arrivalSpeed="13.00" duration="37.00" routeLength="243.49" waitingTime="0.00" waitingCount="0" stopTime="0.00" timeLoss="21.58" rerouteNo="0" devices="tripinfo_flow_route_111_duration_20250327_1950.11" vType="car" speedFactor="1.04" vaporized=""/>
    <tripinfo id="flow_route_111_duration_20250327_1950.12" depart="25.00" departLane="1253188486#8_0" departPos="30.50" departSpeed="0.00" departDelay="0.18" arrival="63.00" arrivalLane="1254519229#0_1" arrivalPos="62.14" arrivalSpeed="13.91" duration="38.00" routeLength="307.87" waitingTime="0.00" waitingCount="0" stopTime="0.00" timeLoss="19.08" rerouteNo="0" devices="tripinfo_flow_route_111_duration_20250327_1950.12" vType="car" speedFactor="0.90" vaporized=""/>
    <tripinfo id="flow_route_112_duration_20250327_1950.0" depart="0.00" departLane="1253188486#8_0" departPos="64.90" departSpeed="0.00" departDelay="0.00" arrival="64.00" arrivalLane="799091563#0_0" arrivalPos="282.23" arrivalSpeed="16.45" duration="64.00" routeLength="472.04" waitingTime="13.00" waitingCount="1" stopTime="0.00" timeLoss="34.65" rerouteNo="0" devices="tripinfo_flow_route_112_duration_20250327_1950.0" vType="car" speedFactor="1.05" vaporized=""/>
    <tripinfo id="flow_route_111_duration_20250327_1950.13" depart="30.00" departLane="1253188486#8_0" departPos="68.03" departSpeed="0.00" departDelay="3.12" arrival="65.00" arrivalLane="1254519229#0_1" arrivalPos="70.18" arrivalSpeed="13.84" duration="35.00" routeLength="278.37" waitingTime="0.00" waitingCount="0" stopTime="0.00" timeLoss="18.15" rerouteNo="0" devices="tripinfo_flow_route_111_duration_20250327_1950.13" vType="car" speedFactor="0.85" vaporized=""/>
    <tripinfo id="flow_route_111_duration_20250327_1950.20" depart="43.00" departLane="1253188486#8_0" departPos="114.29" departSpeed="0.00" departDelay="1.64" arrival="65.00" arrivalLane="1254519229#0_1" arrivalPos="15.54" arrivalSpeed="13.86" duration="22.00" routeLength="177.48" waitingTime="0.00" waitingCount="0" stopTime="0.00" timeLoss="10.86" rerouteNo="0" devices="tripinfo_flow_route_111_duration_20250327_1950.20" vType="car" speedFactor="0.98" vaporized=""/>
    <tripinfo id="flow_route_111_duration_20250327_1950.22" depart="46.00" departLane="1253188486#8_0" departPos="183.90" departSpeed="0.00" departDelay="0.50" arrival="65.00" arrivalLane="1254519229#0_0" arrivalPos="45.32" arrivalSpeed="14.64" duration="19.00" routeLength="137.64" waitingTime="0.00" waitingCount="0" stopTime="0.00" timeLoss="9.96" rerouteNo="0" devices="tripinfo_flow_route_111_duration_20250327_1950.22" vType="car" speedFactor="1.00" vaporized=""/>
    <tripinfo id="flow_route_112_duration_20250327_1950.1" depart="7.00" departLane="1253188486#8_0" departPos="7.32" departSpeed="0.00" departDelay="0.33" arrival="66.00" arrivalLane="799091563#0_0" arrivalPos="114.59" arrivalSpeed="13.05" duration="59.00" routeLength="361.98" waitingTime="0.00" waitingCount="0" stopTime="0.00" timeLoss="34.64" rerouteNo="0" devices="tripinfo_flow_route_112_duration_20250327_1950.1" vType="car" speedFactor="0.88" vaporized=""/>
    <tripinfo id="flow_route_112_duration_20250327_1950.3" depart="21.00" departLane="1253188486#8_0" departPos="226.92" departSpeed="0.00" departDelay="1.00" arrival="68.00" arrivalLane="799091563#0_0" arrivalPos="313.47" arrivalSpeed="16.23" duration="47.00" routeLength="341.26" waitingTime="10.00" waitingCount="1" stopTime="0.00" timeLoss="25.25" rerouteNo="0" devices="tripinfo_flow_route_112_duration_20250327_1950.3" vType="car" speedFactor="1.10" vaporized=""/>
    <tripinfo id="flow_route_104_duration_20250327_1950.4" depart="30.00" departLane="189240001_0" departPos="46.44" departSpeed="0.00" departDelay="0.00" arrival="68.00" arrivalLane="1254519225#0.109_0" arrivalPos="41.38" arrivalSpeed="16.20" duration="38.00" routeLength="199.11" waitingTime="2.00" waitingCount="2" stopTime="0.00" timeLoss="25.92" rerouteNo="0" devices="tripinfo_flow_route_104_duration_20250327_1950.4" vType="car" speedFactor="1.00" vaporized=""/>
    <tripinfo id="flow_route_111_duration_20250327_1950.16" depart="34.00" departLane="1253188486#8_0" departPos="41.10" departSpeed="0.00" departDelay="0.91" arrival="68.00" arrivalLane="1254519229#0_1" arrivalPos="78.05" arrivalSpeed="15.30" duration="34.00" routeLength="313.18" waitingTime="0.00" waitingCount="0" stopTime="0.00" timeLoss="14.28" rerouteNo="0" devices="tripinfo_flow_route_111_duration_20250327_1950.16" vType="car" speedFactor="0.97" vaporized=""/>
    <tripinfo id="flow_route_112_duration_20250327_1950.4" depart="30.00" departLane="1253188486#8_0" departPos="93.10" departSpeed="0.00" departDelay="3.34" arrival="70.00" arrivalLane="799091563#0_0" arrivalPos="141.11" arrivalSpeed="13.93" duration="40.00" routeLength="302.72" waitingTime="0.00" waitingCount="0" stopTime="0.00" timeLoss="18.43" rerouteNo="0" devices="tripinfo_flow_route_112_duration_20250327_1950.4" vType="car" speedFactor="0.85" vaporized=""/>
    <tripinfo id="flow_route_111_duration_20250327_1950.17" depart="38.00" departLane="1253188486#8_0" departPos="81.66" departSpeed="0.00" departDelay="2.84" arrival="71.00" arrivalLane="1254519229#0_1" arrivalPos="73.10" arrivalSpeed="16.52" duration="33.00" routeLength="267.66" waitingTime="0.00" waitingCount="0" stopTime="0.00" timeLoss="16.02" rerouteNo="0" devices="tripinfo_flow_route_111_duration_20250327_1950.17" vType="car" speedFactor="0.94" vaporized=""/>
    <tripinfo id="flow_route_111_duration_20250327_1950.23" depart="48.00" departLane="1253188486#8_0" departPos="148.32" departSpeed="0.00" departDelay="0.44" arrival="72.00" arrivalLane="1254519229#0_0" arrivalPos="6.77" arrivalSpeed="12.20" duration="24.00" routeLength="134.67" waitingTime="0.00" waitingCount="0" stopTime="0.00" timeLoss="15.18" rerouteNo="0" devices="tripinfo_flow_route_111_duration_20250327_1950.23" vType="car" speedFactor="1.00" vaporized=""/>
    <tripinfo id="flow_route_111_duration_20250327_1950.15" depart="33.00" departLane="1253188486#8_0" departPos="3.59" departSpeed="0.00" departDelay="1.98" arrival="73.00" arrivalLane="1254519229#0_1" arrivalPos="51.01" arrivalSpeed="16.14" duration="40.00" routeLength="323.65" waitingTime="0.00" waitingCount="0" stopTime="0.00" timeLoss="19.76" rerouteNo="0" devices="tripinfo_flow_route_111_duration_20250327_1950.15" vType="car" speedFactor="1.02" vaporized=""/>
    <tripinfo id="flow_route_111_duration_20250327_1950.25" depart="54.00" departLane="1253188486#8_0" departPos="186.71" departSpeed="0.00" departDelay="2.30" arrival="73.00" arrivalLane="1254519229#0_0" arrivalPos="43.42" arrivalSpeed="14.08" duration="19.00" routeLength="132.93" waitingTime="0.00" waitingCount="0" stopTime="0.00" timeLoss="10.24" rerouteNo="0" devices="tripinfo_flow_route_111_duration_20250327_1950.25" vType="car" speedFactor="0.89" vaporized=""/>
    <tripinfo id="flow_route_111_duration_20250327_1950.21" depart="46.00" departLane="1253188486#8_0" departPos="8.50" departSpeed="0.00" departDelay="2.57" arrival="74.00" arrivalLane="1254519229#0_1" arrivalPos="15.16" arrivalSpeed="16.10" duration="28.00" routeLength="282.88" waitingTime="0.00" waitingCount="0" stopTime="0.00" timeLoss="10.16" rerouteNo="0" devices="tripinfo_flow_route_111_duration_20250327_1950.21" vType="car" speedFactor="0.98" vaporized=""/>
    <tripinfo id="flow_route_112_duration_20250327_1950.2" depart="15.00" departLane="1253188486#8_0" departPos="134.14" departSpeed="0.00" departDelay="1.67" arrival="75.00" arrivalLane="799091563#0_0" arrivalPos="362.60" arrivalSpeed="15.77" duration="60.00" routeLength="483.16" waitingTime="6.00" waitingCount="1" stopTime="0.00" timeLoss="28.05" rerouteNo="0" devices="tripinfo_flow_route_112_duration_20250327_1950.2" vType="car" speedFactor="0.95" vaporized=""/>
    <tripinfo id="flow_route_112_duration_20250327_1950.5" depart="37.00" departLane="1253188486#8_0" departPos="201.02" departSpeed="0.00" departDelay="3.67" arrival="75.00" arrivalLane="799091563#0_0" arrivalPos="336.89" arrivalSpeed="16.05" duration="38.00" routeLength="390.58" waitingTime="0.00" waitingCount="0" stopTime="0.00" timeLoss="13.40" rerouteNo="0" devices="tripinfo_flow_route_112_duration_20250327_1950.5" vType="car" speedFactor="1.08" vaporized=""/>
    <tripinfo id="flow_route_111_duration_20250327_1950.19" depart="41.00" departLane="1253188486#8_0" departPos="23.97" departSpeed="0.00" departDelay="1.71" arrival="75.00" arrivalLane="1254519229#0_1" arrivalPos="57.54" arrivalSpeed="16.44" duration="34.00" routeLength="309.79" waitingTime="0.00" waitingCount="0" stopTime="0.00" timeLoss="14.49" rerouteNo="0" devices="tripinfo_flow_route_111_duration_20250327_1950.19" vType="car" speedFactor="0.97" vaporized=""/>
    <tripinfo id="flow_route_111_duration_20250327_1950.18" depart="38.00" departLane="1253188486#8_0" departPos="37.62" departSpeed="0.00" departDelay="0.78" arrival="76.00" arrivalLane="1254519229#0_0" arrivalPos="36.83" arrivalSpeed="13.84" duration="38.00" routeLength="275.43" waitingTime="0.00" waitingCount="0" stopTime="0.00" timeLoss="20.75" rerouteNo="0" devices="tripinfo_flow_route_111_duration_20250327_1950.18" vType="car" speedFactor="1.02" vaporized=""/>
    <tripinfo id="flow_route_104_duration_20250327_1950.7" depart="53.00" departLane="189240001_0" departPos="71.74" departSpeed="0.00" departDelay="0.50" arrival="76.00" arrivalLane="1254519225#0.109_0" arrivalPos="56.45" arrivalSpeed="13.69" duration="23.00" routeLength="188.87" waitingTime="0.00" waitingCount="0" stopTime="0.00" timeLoss="9.36" rerouteNo="0" devices="tripinfo_flow_route_104_duration_20250327_1950.7" vType="car" speedFactor="0.83" vaporized=""/>
    <tripinfo id="flow_route_104_duration_20250327_1950.6" depart="45.00" departLane="189240001_0" departPos="6.63" departSpeed="0.00" departDelay="0.00" arrival="77.00" arrivalLane="1254519225#0.109_0" arrivalPos="35.47" arrivalSpeed="14.54" duration="32.00" routeLength="233.01" waitingTime="0.00" waitingCount="0" stopTime="0.00" timeLoss="17.20" rerouteNo="0" devices="tripinfo_flow_route_104_duration_20250327_1950.6" vType="car" speedFactor="1.03" vaporized=""/>
    <tripinfo id="flow_route_112_duration_20250327_1950.6" depart="41.00" departLane="1253188486#8_0" departPos="55.44" departSpeed="0.00" departDelay="1.00" arrival="82.00" arrivalLane="799091563#0_0" arrivalPos="168.82" arrivalSpeed="15.35" duration="41.00" routeLength="368.09" waitingTime="0.00" waitingCount="0" stopTime="0.00" timeLoss="17.48" rerouteNo="0" devices="tripinfo_flow_route_112_duration_20250327_1950.6" vType="car" speedFactor="0.94" vaporized=""/>
    <tripinfo id="flow_route_123_duration_20250327_1950.6" depart="36.00" departLane="189240000#0-AddedOnRampEdge_0" departPos="10.80" departSpeed="0.00" departDelay="0.00" arrival="84.00" arrivalLane="1254519229#0_1" arrivalPos="0.93" arrivalSpeed="7.56" duration="48.00" routeLength="135.97" waitingTime="21.00" waitingCount="1" stopTime="0.00" timeLoss="37.96" rerouteNo="0" devices="tripinfo_flow_route_123_duration_20250327_1950.6" vType="car" speedFactor="0.88" vaporized=""/>
    <tripinfo id="flow_route_104_duration_20250327_1950.5" depart="38.00" departLane="189240001_0" departPos="16.26" departSpeed="0.00" departDelay="0.50" arrival="84.00" arrivalLane="1254519225#0.109_0" arrivalPos="48.92" arrivalSpeed="16.02" duration="46.00" routeLength="236.82" waitingTime="11.00" waitingCount="1" stopTime="0.00" timeLoss="31.61" rerouteNo="0" devices="tripinfo_flow_route_104_duration_20250327_1950.5" vType="car" speedFactor="1.04" vaporized=""/>
    <tripinfo id="flow_route_123_duration_20250327_1950.4" depart="24.00" departLane="189240000#0-AddedOnRampEdge_0" departPos="44.03" departSpeed="0.00" departDelay="0.00" arrival="86.00" arrivalLane="1254519229#0_0" arrivalPos="32.71" arrivalSpeed="9.62" duration="62.00" routeLength="131.01" waitingTime="31.00" waitingCount="2" stopTime="0.00" timeLoss="53.19" rerouteNo="0" devices="tripinfo_flow_route_123_duration_20250327_1950.4" vType="car" speedFactor="1.09" vaporized=""/>
    <tripinfo id="flow_route_123_duration_20250327_1950.5" depart="30.00" departLane="189240000#0-AddedOnRampEdge_0" departPos="54.13" departSpeed="0.00" departDelay="0.00" arrival="86.00" arrivalLane="1254519229#0_1" arrivalPos="34.28" arrivalSpeed="10.30" duration="56.00" routeLength="125.99" waitingTime="27.00" waitingCount="2" stopTime="0.00" timeLoss="47.46" rerouteNo="0" devices="tripinfo_flow_route_123_duration_20250327_1950.5" vType="car" speedFactor="1.00" vaporized=""/>
    <tripinfo id="flow_route_123_duration_20250327_1950.9" depart="54.00" departLane="189240000#0-AddedOnRampEdge_0" departPos="88.51" departSpeed="0.00" departDelay="0.00" arrival="89.00" arrivalLane="1254519229#0_0" arrivalPos="21.03" arrivalSpeed="8.97" duration="35.00" routeLength="74.85" waitingTime="14.00" waitingCount="1" stopTime="0.00" timeLoss="29.52" rerouteNo="0" devices="tripinfo_flow_route_123_duration_20250327_1950.9" vType="car" speedFactor="1.01" vaporized=""/>
    <tripinfo id="flow_route_123_duration_20250327_1950.7" depart="42.00" departLane="189240000#0-AddedOnRampEdge_0" departPos="80.32" departSpeed="0.00" departDelay="0.00" arrival="91.00" arrivalLane="1254519229#0_0" arrivalPos="73.17" arrivalSpeed="12.03" duration="49.00" routeLength="135.18" waitingTime="22.00" waitingCount="1" stopTime="0.00" timeLoss="40.21" rerouteNo="0" devices="tripinfo_flow_route_123_duration_20250327_1950.7" vType="car" speedFactor="1.03" vaporized=""/>
    <tripinfo id="flow_route_123_duration_20250327_1950.8" depart="48.00" departLane="189240000#0-AddedOnRampEdge_0" departPos="17.99" departSpeed="0.00" departDelay="0.00" arrival="91.00" arrivalLane="1254519229#0_1" arrivalPos="34.24" arrivalSpeed="11.36" duration="43.00" routeLength="162.08" waitingTime="12.00" waitingCount="1" stopTime="0.00" timeLoss="32.72" rerouteNo="0" devices="tripinfo_flow_route_123_duration_20250327_1950.8" vType="car" speedFactor="1.04" vaporized=""/>
    <tripinfo id="flow_route_95_duration_20250327_1950.2" depart="7.00" departLane="1341093416#0_0" departPos="43.63" departSpeed="0.00" departDelay="0.69" arrival="94.00" arrivalLane="1254519225#0.109_0" arrivalPos="14.77" arrivalSpeed="13.84" duration="87.00" routeLength="353.51" waitingTime="33.00" waitingCount="1" stopTime="0.00" timeLoss="64.04" rerouteNo="0" devices="tripinfo_flow_route_95_duration_20250327_1950.2" vType="car" speedFactor="0.99" vaporized=""/>