<?xml version="1.0" encoding="UTF-8"?>

<!-- generated on 2025-05-06 16:33:55 by Eclipse SUMO sumo Version 1.20.0
<configuration xmlns:xsi="http://www.w3.org/2001/XMLSchema-instance" xsi:noNamespaceSchemaLocation="http://sumo.dlr.de/xsd/sumoConfiguration.xsd">

    <input>
        <net-file value="osm.net.xml"/>
        <route-files value="xml/routes_ddpg_J7.rou.xml"/>
    </input>

    <output>
        <tripinfo-output value="xml/tripinfo_42365.xml"/>
    </output>

    <traci_server>
        <remote-port value="60807"/>
    </traci_server>

</configuration>
-->

<tripinfos xmlns:xsi="http://www.w3.org/2001/XMLSchema-instance" xsi:noNamespaceSchemaLocation="http://sumo.dlr.de/xsd/tripinfo_file.xsd">
    <tripinfo id="flow_route_131_duration_20250327_2200.0" depart="0.00" departLane="714011134#0_0" departPos="6.35" departSpeed="0.00" departDelay="0.00" arrival="26.00" arrivalLane="134194079#0_1" arrivalPos="73.02" arrivalSpeed="14.32" duration="26.00" routeLength="232.63" waitingTime="0.00" waitingCount="0" stopTime="0.00" timeLoss="10.08" rerouteNo="0" devices="tripinfo_flow_route_131_duration_20250327_2200.0" vType="car" speedFactor="0.89" vaporized=""/>
    <tripinfo id="flow_route_127_duration_20250327_2200.1" depart="6.00" departLane="-138000461_0" departPos="187.58" departSpeed="0.00" departDelay="0.55" arrival="26.00" arrivalLane="189240000#0-AddedOnRampEdge_0" arrivalPos="77.82" arrivalSpeed="15.33" duration="20.00" routeLength="149.35" waitingTime="0.00" waitingCount="0" stopTime="0.00" timeLoss="9.93" rerouteNo="0" devices="tripinfo_flow_route_127_duration_20250327_2200.1" vType="car" speedFactor="1.05" vaporized=""/>
    <tripinfo id="flow_route_127_duration_20250327_2200.0" depart="0.00" departLane="-138000461_0" departPos="55.90" departSpeed="0.00" departDelay="0.00" arrival="31.00" arrivalLane="189240000#0-AddedOnRampEdge_0" arrivalPos="70.17" arrivalSpeed="13.91" duration="31.00" routeLength="273.38" waitingTime="0.00" waitingCount="0" stopTime="0.00" timeLoss="14.03" rerouteNo="0" devices="tripinfo_flow_route_127_duration_20250327_2200.0" vType="car" speedFactor="1.05" vaporized=""/>
    <tripinfo id="flow_route_121_duration_20250327_2200.1" depart="5.00" departLane="799091563#0_0" departPos="356.57" departSpeed="0.00" departDelay="0.39" arrival="31.00" arrivalLane="134194079#0_0" arrivalPos="186.89" arrivalSpeed="16.34" duration="26.00" routeLength="219.48" waitingTime="0.00" waitingCount="0" stopTime="0.00" timeLoss="11.31" rerouteNo="0" devices="tripinfo_flow_route_121_duration_20250327_2200.1" vType="car" speedFactor="1.03" vaporized=""/>
    <tripinfo id="flow_route_132_duration_20250327_2200.0" depart="0.00" departLane="714011134#0_0" departPos="92.28" departSpeed="0.00" departDelay="0.00" arrival="35.00" arrivalLane="189240000#0-AddedOnRampEdge_1" arrivalPos="51.48" arrivalSpeed="15.31" duration="35.00" routeLength="375.34" waitingTime="0.00" waitingCount="0" stopTime="0.00" timeLoss="10.13" rerouteNo="0" devices="tripinfo_flow_route_132_duration_20250327_2200.0" vType="car" speedFactor="0.94" vaporized=""/>
    <tripinfo id="flow_route_116_duration_20250327_2200.0" depart="0.00" departLane="177211987#1_0" departPos="0.88" departSpeed="0.00" departDelay="0.00" arrival="38.00" arrivalLane="688883939#0_0" arrivalPos="93.94" arrivalSpeed="16.39" duration="38.00" routeLength="448.08" waitingTime="0.00" waitingCount="0" stopTime="0.00" timeLoss="10.55" rerouteNo="0" devices="tripinfo_flow_route_116_duration_20250327_2200.0" vType="car" speedFactor="1.06" vaporized=""/>
    <tripinfo id="flow_route_127_duration_20250327_2200.2" depart="11.00" departLane="-138000461_0" departPos="27.34" departSpeed="0.00" departDelay="0.09" arrival="38.00" arrivalLane="189240000#0-AddedOnRampEdge_0" arrivalPos="2.82" arrivalSpeed="8.85" duration="27.00" routeLength="234.58" waitingTime="0.00" waitingCount="0" stopTime="0.00" timeLoss="11.80" rerouteNo="0" devices="tripinfo_flow_route_127_duration_20250327_2200.2" vType="car" speedFactor="0.94" vaporized=""/>
    <tripinfo id="flow_route_127_duration_20250327_2200.3" depart="17.00" departLane="-138000461_0" departPos="141.19" departSpeed="0.00" departDelay="0.64" arrival="41.00" arrivalLane="189240000#0-AddedOnRampEdge_0" arrivalPos="76.63" arrivalSpeed="13.86" duration="24.00" routeLength="194.55" waitingTime="0.00" waitingCount="0" stopTime="0.00" timeLoss="12.09" rerouteNo="0" devices="tripinfo_flow_route_127_duration_20250327_2200.3" vType="car" speedFactor="0.97" vaporized=""/>
    <tripinfo id="flow_route_132_duration_20250327_2200.2" depart="8.00" departLane="714011134#0_0" departPos="57.37" departSpeed="0.00" departDelay="0.94" arrival="43.00" arrivalLane="189240000#0-AddedOnRampEdge_1" arrivalPos="37.44" arrivalSpeed="16.26" duration="35.00" routeLength="396.22" waitingTime="0.00" waitingCount="0" stopTime="0.00" timeLoss="10.44" rerouteNo="0" devices="tripinfo_flow_route_132_duration_20250327_2200.2" vType="car" speedFactor="1.12" vaporized=""/>
    <tripinfo id="flow_route_132_duration_20250327_2200.1" depart="4.00" departLane="714011134#0_0" departPos="32.36" departSpeed="0.00" departDelay="0.47" arrival="45.00" arrivalLane="189240000#0-AddedOnRampEdge_1" arrivalPos="48.43" arrivalSpeed="16.47" duration="41.00" routeLength="432.21" waitingTime="0.00" waitingCount="0" stopTime="0.00" timeLoss="14.68" rerouteNo="0" devices="tripinfo_flow_route_132_duration_20250327_2200.1" vType="car" speedFactor="1.09" vaporized=""/>
    <tripinfo id="flow_route_116_duration_20250327_2200.1" depart="20.00" departLane="177211987#1_0" departPos="139.77" departSpeed="0.00" departDelay="0.00" arrival="48.00" arrivalLane="688883939#0_0" arrivalPos="61.16" arrivalSpeed="15.11" duration="28.00" routeLength="276.41" waitingTime="0.00" waitingCount="0" stopTime="0.00" timeLoss="9.46" rerouteNo="0" devices="tripinfo_flow_route_116_duration_20250327_2200.1" vType="car" speedFactor="0.92" vaporized=""/>
    <tripinfo id="flow_route_126_duration_20250327_2200.0" depart="0.00" departLane="-138000461_0" departPos="119.67" departSpeed="0.00" departDelay="0.00" arrival="52.00" arrivalLane="138000492#0_1" arrivalPos="18.35" arrivalSpeed="13.48" duration="52.00" routeLength="582.25" waitingTime="0.00" waitingCount="0" stopTime="0.00" timeLoss="9.97" rerouteNo="0" devices="tripinfo_flow_route_126_duration_20250327_2200.0" vType="car" speedFactor="0.83" vaporized=""/>
    <tripinfo id="flow_route_132_duration_20250327_2200.3" depart="11.00" departLane="714011134#0_0" departPos="13.21" departSpeed="0.00" departDelay="0.41" arrival="52.00" arrivalLane="189240000#0-AddedOnRampEdge_1" arrivalPos="64.68" arrivalSpeed="15.12" duration="41.00" routeLength="467.60" waitingTime="0.00" waitingCount="0" stopTime="0.00" timeLoss="10.16" rerouteNo="0" devices="tripinfo_flow_route_132_duration_20250327_2200.3" vType="car" speedFactor="0.94" vaporized=""/>
    <tripinfo id="flow_route_132_duration_20250327_2200.6" depart="23.00" departLane="714011134#0_0" departPos="57.62" departSpeed="0.00" departDelay="1.83" arrival="57.00" arrivalLane="189240000#0-AddedOnRampEdge_1" arrivalPos="14.33" arrivalSpeed="15.12" duration="34.00" routeLength="372.85" waitingTime="0.00" waitingCount="0" stopTime="0.00" timeLoss="9.44" rerouteNo="0" devices="tripinfo_flow_route_132_duration_20250327_2200.6" vType="car" speedFactor="0.93" vaporized=""/>
    <tripinfo id="flow_route_127_duration_20250327_2200.5" depart="29.00" departLane="-138000461_0" departPos="61.29" departSpeed="0.00" departDelay="1.73" arrival="57.00" arrivalLane="189240000#0-AddedOnRampEdge_0" arrivalPos="4.42" arrivalSpeed="9.31" duration="28.00" routeLength="202.24" waitingTime="0.00" waitingCount="0" stopTime="0.00" timeLoss="14.88" rerouteNo="0" devices="tripinfo_flow_route_127_duration_20250327_2200.5" vType="car" speedFactor="1.02" vaporized=""/>
    <tripinfo id="flow_route_127_duration_20250327_2200.6" depart="34.00" departLane="-138000461_0" departPos="132.13" departSpeed="0.00" departDelay="1.28" arrival="58.00" arrivalLane="189240000#0-AddedOnRampEdge_0" arrivalPos="34.48" arrivalSpeed="11.19" duration="24.00" routeLength="161.46" waitingTime="0.00" waitingCount="0" stopTime="0.00" timeLoss="12.87" rerouteNo="0" devices="tripinfo_flow_route_127_duration_20250327_2200.6" vType="car" speedFactor="0.96" vaporized=""/>
    <tripinfo id="flow_route_133_duration_20250327_2200.0" depart="0.00" departLane="714011134#0_0" departPos="33.93" departSpeed="0.00" departDelay="0.00" arrival="59.00" arrivalLane="138000492#0_0" arrivalPos="313.58" arrivalSpeed="13.96" duration="59.00" routeLength="604.48" waitingTime="0.00" waitingCount="0" stopTime="0.00" timeLoss="15.69" rerouteNo="0" devices="tripinfo_flow_route_133_duration_20250327_2200.0" vType="car" speedFactor="0.86" vaporized=""/>
    <tripinfo id="flow_route_127_duration_20250327_2200.7" depart="41.00" departLane="-138000461_0" departPos="206.73" departSpeed="0.00" departDelay="2.82" arrival="59.00" arrivalLane="189240000#0-AddedOnRampEdge_0" arrivalPos="73.73" arrivalSpeed="13.28" duration="18.00" routeLength="126.12" waitingTime="0.00" waitingCount="0" stopTime="0.00" timeLoss="9.55" rerouteNo="0" devices="tripinfo_flow_route_127_duration_20250327_2200.7" vType="car" speedFactor="1.00" vaporized=""/>
    <tripinfo id="flow_route_132_duration_20250327_2200.4" depart="17.00" departLane="714011134#0_0" departPos="9.38" departSpeed="0.00" departDelay="2.88" arrival="61.00" arrivalLane="189240000#0-AddedOnRampEdge_2" arrivalPos="15.86" arrivalSpeed="16.36" duration="44.00" routeLength="422.61" waitingTime="0.00" waitingCount="0" stopTime="0.00" timeLoss="17.65" rerouteNo="0" devices="tripinfo_flow_route_132_duration_20250327_2200.4" vType="car" speedFactor="1.01" vaporized=""/>
    <tripinfo id="flow_route_117_duration_20250327_2200.0" depart="0.00" departLane="177211987#1_0" departPos="98.51" departSpeed="0.00" departDelay="0.00" arrival="63.00" arrivalLane="138000492#0_0" arrivalPos="299.85" arrivalSpeed="15.54" duration="63.00" routeLength="701.60" waitingTime="0.00" waitingCount="0" stopTime="0.00" timeLoss="16.88" rerouteNo="0" devices="tripinfo_flow_route_117_duration_20250327_2200.0" vType="car" speedFactor="0.94" vaporized=""/>
    <tripinfo id="flow_route_132_duration_20250327_2200.7" depart="25.00" departLane="714011134#0_0" departPos="9.07" departSpeed="0.00" departDelay="0.30" arrival="63.00" arrivalLane="189240000#0-AddedOnRampEdge_2" arrivalPos="29.63" arrivalSpeed="16.11" duration="38.00" routeLength="436.71" waitingTime="0.00" waitingCount="0" stopTime="0.00" timeLoss="11.45" rerouteNo="0" devices="tripinfo_flow_route_132_duration_20250327_2200.7" vType="car" speedFactor="1.01" vaporized=""/>
    <tripinfo id="flow_route_132_duration_20250327_2200.5" depart="19.00" departLane="714011134#0_0" departPos="32.44" departSpeed="0.00" departDelay="1.36" arrival="64.00" arrivalLane="189240000#0-AddedOnRampEdge_1" arrivalPos="56.29" arrivalSpeed="13.67" duration="45.00" routeLength="439.99" waitingTime="0.00" waitingCount="0" stopTime="0.00" timeLoss="12.88" rerouteNo="0" devices="tripinfo_flow_route_132_duration_20250327_2200.5" vType="car" speedFactor="0.83" vaporized=""/>
    <tripinfo id="flow_route_127_duration_20250327_2200.4" depart="22.00" departLane="-138000461_0" departPos="5.88" departSpeed="0.00" departDelay="0.18" arrival="64.00" arrivalLane="189240000#0-AddedOnRampEdge_0" arrivalPos="60.58" arrivalSpeed="13.68" duration="42.00" routeLength="313.80" waitingTime="0.00" waitingCount="0" stopTime="0.00" timeLoss="22.13" rerouteNo="0" devices="tripinfo_flow_route_127_duration_20250327_2200.4" vType="car" speedFactor="1.13" vaporized=""/>
    <tripinfo id="flow_route_131_duration_20250327_2200.1" depart="37.00" departLane="714011134#0_0" departPos="43.32" departSpeed="0.00" departDelay="7.00" arrival="64.00" arrivalLane="134194079#0_1" arrivalPos="124.86" arrivalSpeed="16.35" duration="27.00" routeLength="247.49" waitingTime="0.00" waitingCount="0" stopTime="0.00" timeLoss="11.78" rerouteNo="0" devices="tripinfo_flow_route_131_duration_20250327_2200.1" vType="car" speedFactor="1.10" vaporized=""/>
    <tripinfo id="flow_route_117_duration_20250327_2200.1" depart="10.00" departLane="177211987#1_0" departPos="23.29" departSpeed="0.00" departDelay="0.00" arrival="67.00" arrivalLane="138000492#0_1" arrivalPos="126.99" arrivalSpeed="15.35" duration="57.00" routeLength="603.97" waitingTime="0.00" waitingCount="0" stopTime="0.00" timeLoss="17.14" rerouteNo="0" devices="tripinfo_flow_route_117_duration_20250327_2200.1" vType="car" speedFactor="0.93" vaporized=""/>
    <tripinfo id="flow_route_117_duration_20250327_2200.2" depart="20.00" departLane="177211987#1_0" departPos="26.84" departSpeed="0.00" departDelay="0.00" arrival="70.00" arrivalLane="138000492#0_1" arrivalPos="70.87" arrivalSpeed="13.53" duration="50.00" routeLength="544.29" waitingTime="0.00" waitingCount="0" stopTime="0.00" timeLoss="15.31" rerouteNo="0" devices="tripinfo_flow_route_117_duration_20250327_2200.2" vType="car" speedFactor="0.95" vaporized=""/>
    <tripinfo id="flow_route_127_duration_20250327_2200.10" depart="55.00" departLane="-138000461_0" departPos="169.43" departSpeed="0.00" departDelay="0.46" arrival="74.00" arrivalLane="189240000#0-AddedOnRampEdge_0" arrivalPos="30.53" arrivalSpeed="11.67" duration="19.00" routeLength="120.21" waitingTime="0.00" waitingCount="0" stopTime="0.00" timeLoss="10.89" rerouteNo="0" devices="tripinfo_flow_route_127_duration_20250327_2200.10" vType="car" speedFactor="0.99" vaporized=""/>
    <tripinfo id="flow_route_132_duration_20250327_2200.10" depart="40.00" departLane="714011134#0_0" departPos="39.16" departSpeed="0.00" departDelay="4.71" arrival="76.00" arrivalLane="189240000#0-AddedOnRampEdge_2" arrivalPos="43.03" arrivalSpeed="16.18" duration="36.00" routeLength="420.01" waitingTime="0.00" waitingCount="0" stopTime="0.00" timeLoss="10.05" rerouteNo="0" devices="tripinfo_flow_route_132_duration_20250327_2200.10" vType="car" speedFactor="1.04" vaporized=""/>
    <tripinfo id="flow_route_132_duration_20250327_2200.8" depart="34.00" departLane="714011134#0_0" departPos="11.04" departSpeed="0.00" departDelay="5.77" arrival="77.00" arrivalLane="189240000#0-AddedOnRampEdge_1" arrivalPos="33.22" arrivalSpeed="15.95" duration="43.00" routeLength="438.32" waitingTime="0.00" waitingCount="0" stopTime="0.00" timeLoss="15.91" rerouteNo="0" devices="tripinfo_flow_route_132_duration_20250327_2200.8" vType="car" speedFactor="0.97" vaporized=""/>
    <tripinfo id="flow_route_132_duration_20250327_2200.9" depart="39.00" departLane="714011134#0_0" departPos="75.06" departSpeed="0.00" departDelay="7.24" arrival="78.00" arrivalLane="189240000#0-AddedOnRampEdge_1" arrivalPos="77.94" arrivalSpeed="15.00" duration="39.00" routeLength="419.02" waitingTime="0.00" waitingCount="0" stopTime="0.00" timeLoss="10.39" rerouteNo="0" devices="tripinfo_flow_route_132_duration_20250327_2200.9" vType="car" speedFactor="0.90" vaporized=""/>
    <tripinfo id="flow_route_132_duration_20250327_2200.11" depart="40.00" departLane="714011134#0_0" departPos="4.49" departSpeed="0.00" departDelay="1.18" arrival="80.00" arrivalLane="189240000#0-AddedOnRampEdge_1" arrivalPos="26.55" arrivalSpeed="14.91" duration="40.00" routeLength="438.20" waitingTime="0.00" waitingCount="0" stopTime="0.00" timeLoss="10.46" rerouteNo="0" devices="tripinfo_flow_route_132_duration_20250327_2200.11" vType="car" speedFactor="0.90" vaporized=""/>
    <tripinfo id="flow_route_127_duration_20250327_2200.9" depart="50.00" departLane="-138000461_0" departPos="24.16" departSpeed="0.00" departDelay="0.91" arrival="82.00" arrivalLane="189240000#0-AddedOnRampEdge_0" arrivalPos="62.18" arrivalSpeed="13.91" duration="32.00" routeLength="297.13" waitingTime="0.00" waitingCount="0" stopTime="0.00" timeLoss="13.77" rerouteNo="0" devices="tripinfo_flow_route_127_duration_20250327_2200.9" vType="car" speedFactor="1.02" vaporized=""/>
    <tripinfo id="flow_route_127_duration_20250327_2200.8" depart="46.00" departLane="-138000461_0" departPos="3.09" departSpeed="0.00" departDelay="2.37" arrival="83.00" arrivalLane="189240000#0-AddedOnRampEdge_0" arrivalPos="55.96" arrivalSpeed="13.63" duration="37.00" routeLength="311.97" waitingTime="0.00" waitingCount="0" stopTime="0.00" timeLoss="18.21" rerouteNo="0" devices="tripinfo_flow_route_127_duration_20250327_2200.8" vType="car" speedFactor="1.10" vaporized=""/>
    <tripinfo id="flow_route_117_duration_20250327_2200.3" depart="30.00" departLane="177211987#1_0" departPos="57.05" departSpeed="0.00" departDelay="0.00" arrival="91.00" arrivalLane="138000492#0_1" arrivalPos="285.61" arrivalSpeed="16.13" duration="61.00" routeLength="728.83" waitingTime="0.00" waitingCount="0" stopTime="0.00" timeLoss="16.28" rerouteNo="0" devices="tripinfo_flow_route_117_duration_20250327_2200.3" vType="car" speedFactor="1.18" vaporized=""/>
    <tripinfo id="flow_route_132_duration_20250327_2200.12" depart="48.00" departLane="714011134#0_0" departPos="17.65" departSpeed="0.00" departDelay="5.65" arrival="92.00" arrivalLane="189240000#0-AddedOnRampEdge_1" arrivalPos="40.68" arrivalSpeed="16.54" duration="44.00" routeLength="439.16" waitingTime="0.00" waitingCount="0" stopTime="0.00" timeLoss="16.69" rerouteNo="0" devices="tripinfo_flow_route_132_duration_20250327_2200.12" vType="car" speedFactor="1.02" vaporized=""/>
    <tripinfo id="flow_route_132_duration_20250327_2200.14" depart="55.00" departLane="714011134#0_0" departPos="76.21" departSpeed="0.00" departDelay="5.59" arrival="92.00" arrivalLane="189240000#0-AddedOnRampEdge_1" arrivalPos="86.73" arrivalSpeed="16.02" duration="37.00" routeLength="426.66" waitingTime="0.00" waitingCount="0" stopTime="0.00" timeLoss="10.56" rerouteNo="0" devices="tripinfo_flow_route_132_duration_20250327_2200.14" vType="car" speedFactor="0.97" vaporized=""/>
    <tripinfo id="flow_route_132_duration_20250327_2200.13" depart="50.00" departLane="714011134#0_0" departPos="1.23" departSpeed="0.00" departDelay="4.12" arrival="96.00" arrivalLane="189240000#0-AddedOnRampEdge_1" arrivalPos="89.20" arrivalSpeed="16.18" duration="46.00" routeLength="504.11" waitingTime="0.00" waitingCount="0" stopTime="0.00" timeLoss="15.60" rerouteNo="0" devices="tripinfo_flow_route_132_duration_20250327_2200.13" vType="car" speedFactor="1.00" vaporized=""/>
    <tripinfo id="flow_route_132_duration_20250327_2200.15" depart="58.00" departLane="714011134#0_0" departPos="20.59" departSpeed="0.00" departDelay="5.07" arrival="96.00" arrivalLane="189240000#0-AddedOnRampEdge_1" arrivalPos="43.70" arrivalSpeed="16.45" duration="38.00" routeLength="439.25" waitingTime="0.00" waitingCount="0" stopTime="0.00" timeLoss="11.07" rerouteNo="0" devices="tripinfo_flow_route_132_duration_20250327_2200.15" vType="car" speedFactor="1.02" vaporized=""/>
    <tripinfo id="flow_route_122_duration_20250327_2200.1" depart="9.00" departLane="799091563#0_0" departPos="12.31" departSpeed="0.00" departDelay="0.43" arrival="97.00" arrivalLane="688883939#0_2" arrivalPos="24.96" arrivalSpeed="12.23" duration="88.00" routeLength="451.29" waitingTime="37.00" waitingCount="1" stopTime="0.00" timeLoss="60.53" rerouteNo="0" devices="tripinfo_flow_route_122_duration_20250327_2200.1" vType="car" speedFactor="0.99" vaporized=""/>
    <tripinfo id="flow_route_122_duration_20250327_2200.2" depart="18.00" departLane="799091563#0_0" departPos="262.62" departSpeed="0.00" departDelay="0.86" arrival="97.00" arrivalLane="688883939#0_2" arrivalPos="75.44" arrivalSpeed="14.39" duration="79.00" routeLength="251.46" waitingTime="41.00" waitingCount="1" stopTime="0.00" timeLoss="61.97" rerouteNo="0" devices="tripinfo_flow_route_122_duration_20250327_2200.2" vType="car" speedFactor="0.89" vaporized=""/>
    <tripinfo id="flow_route_122_duration_20250327_2200.0" depart="1.00" departLane="799091563#0_0" departPos="17.54" departSpeed="0.00" departDelay="1.00" arrival="98.00" arrivalLane="688883939#0_2" arrivalPos="62.20" arrivalSpeed="13.62" duration="97.00" routeLength="483.30" waitingTime="41.00" waitingCount="1" stopTime="0.00" timeLoss="67.86" rerouteNo="0" devices="tripinfo_flow_route_122_duration_20250327_2200.0" vType="car" speedFactor="1.03" vaporized=""/>
    <tripinfo id="flow_route_121_duration_20250327_2200.0" depart="1.00" departLane="799091563#0_0" departPos="259.58" departSpeed="0.00" departDelay="1.00" arrival="101.00" arrivalLane="134194079#0_0" arrivalPos="144.99" arrivalSpeed="15.68" duration="100.00" routeLength="274.57" waitingTime="59.00" waitingCount="1" stopTime="0.00" timeLoss="81.95" rerouteNo="0" devices="tripinfo_flow_route_121_duration_20250327_2200.0" vType="car" speedFactor="1.08" vaporized=""/>
    <tripinfo id="flow_route_121_duration_20250327_2200.3" depart="14.00" departLane="799091563#0_0" departPos="84.73" departSpeed="0.00" departDelay="0.16" arrival="104.00" arrivalLane="134194079#0_0" arrivalPos="77.91" arrivalSpeed="11.98" duration="90.00" routeLength="382.34" waitingTime="37.00" waitingCount="1" stopTime="0.00" timeLoss="66.22" rerouteNo="0" devices="tripinfo_flow_route_121_duration_20250327_2200.3" vType="car" speedFactor="1.02" vaporized=""/>
    <tripinfo id="flow_route_121_duration_20250327_2200.5" depart="25.00" departLane="799091563#0_0" departPos="128.73" departSpeed="0.00" departDelay="1.93" arrival="104.00" arrivalLane="134194079#0_0" arrivalPos="19.76" arrivalSpeed="8.14" duration="79.00" routeLength="280.19" waitingTime="30.00" waitingCount="1" stopTime="0.00" timeLoss="60.61" rerouteNo="0" devices="tripinfo_flow_route_121_duration_20250327_2200.5" vType="car" speedFactor="1.15" vaporized=""/>
    <tripinfo id="flow_route_122_duration_20250327_2200.3" depart="26.00" departLane="799091563#0_0" departPos="78.67" departSpeed="0.00" departDelay="0.29" arrival="104.00" arrivalLane="688883939#0_2" arrivalPos="59.79" arrivalSpeed="14.26" duration="78.00" routeLength="419.77" waitingTime="24.00" waitingCount="1" stopTime="0.00" timeLoss="52.57" rerouteNo="0" devices="tripinfo_flow_route_122_duration_20250327_2200.3" vType="car" speedFactor="1.17" vaporized=""/>
    <tripinfo id="flow_route_122_duration_20250327_2200.4" depart="36.00" departLane="799091563#0_0" departPos="217.83" departSpeed="0.00" departDelay="1.72" arrival="105.00" arrivalLane="688883939#0_2" arrivalPos="97.51" arrivalSpeed="16.44" duration="69.00" routeLength="318.33" waitingTime="24.00" waitingCount="1" stopTime="0.00" timeLoss="49.28" rerouteNo="0" devices="tripinfo_flow_route_122_duration_20250327_2200.4" vType="car" speedFactor="1.09" vaporized=""/>
    <tripinfo id="flow_route_121_duration_20250327_2200.8" depart="38.00" departLane="799091563#0_0" departPos="251.31" departSpeed="0.00" departDelay="1.08" arrival="108.00" arrivalLane="134194079#0_0" arrivalPos="87.42" arrivalSpeed="12.80" duration="70.00" routeLength="225.27" waitingTime="30.00" waitingCount="1" stopTime="0.00" timeLoss="55.24" rerouteNo="0" devices="tripinfo_flow_route_121_duration_20250327_2200.8" vType="car" speedFactor="1.09" vaporized=""/>
    <tripinfo id="flow_route_122_duration_20250327_2200.5" depart="44.00" departLane="799091563#0_0" departPos="217.71" departSpeed="0.00" departDelay="1.15" arrival="108.00" arrivalLane="688883939#0_2" arrivalPos="69.93" arrivalSpeed="14.77" duration="64.00" routeLength="290.86" waitingTime="20.00" waitingCount="1" stopTime="0.00" timeLoss="46.01" rerouteNo="0" devices="tripinfo_flow_route_122_duration_20250327_2200.5" vType="car" speedFactor="1.17" vaporized=""/>
    <tripinfo id="flow_route_122_duration_20250327_2200.6" depart="56.00" departLane="799091563#0_0" departPos="49.17" departSpeed="0.00" departDelay="4.57" arrival="108.00" arrivalLane="688883939#0_2" arrivalPos="51.39" arrivalSpeed="14.22" duration="52.00" routeLength="440.86" waitingTime="0.00" waitingCount="0" stopTime="0.00" timeLoss="25.25" rerouteNo="0" devices="tripinfo_flow_route_122_duration_20250327_2200.6" vType="car" speedFactor="1.12" vaporized=""/>
    <tripinfo id="flow_route_121_duration_20250327_2200.6" depart="28.00" departLane="799091563#0_0" departPos="30.38" departSpeed="0.00" departDelay="0.31" arrival="110.00" arrivalLane="134194079#0_0" arrivalPos="53.30" arrivalSpeed="9.66" duration="82.00" routeLength="412.08" waitingTime="25.00" waitingCount="1" stopTime="0.00" timeLoss="56.35" rerouteNo="0" devices="tripinfo_flow_route_121_duration_20250327_2200.6" vType="car" speedFactor="0.99" vaporized=""/>
    <tripinfo id="flow_route_120_duration_20250327_2200.0" depart="0.00" departLane="799091563#0_0" departPos="177.01" departSpeed="0.00" departDelay="0.00" arrival="113.00" arrivalLane="138000492#0_0" arrivalPos="19.14" arrivalSpeed="9.84" duration="113.00" routeLength="440.29" waitingTime="56.00" waitingCount="2" stopTime="0.00" timeLoss="86.25" rerouteNo="0" devices="tripinfo_flow_route_120_duration_20250327_2200.0" vType="car" speedFactor="1.01" vaporized=""/>
    <tripinfo id="flow_route_121_duration_20250327_2200.2" depart="11.00" departLane="799091563#0_0" departPos="125.80" departSpeed="0.00" departDelay="1.77" arrival="113.00" arrivalLane="134194079#0_0" arrivalPos="225.54" arrivalSpeed="14.56" duration="102.00" routeLength="488.90" waitingTime="37.00" waitingCount="1" stopTime="0.00" timeLoss="66.53" rerouteNo="0" devices="tripinfo_flow_route_121_duration_20250327_2200.2" vType="car" speedFactor="0.88" vaporized=""/>
    <tripinfo id="flow_route_121_duration_20250327_2200.4" depart="19.00" departLane="799091563#0_0" departPos="187.04" departSpeed="0.00" departDelay="0.54" arrival="114.00" arrivalLane="134194079#0_0" arrivalPos="283.20" arrivalSpeed="14.29" duration="95.00" routeLength="485.32" waitingTime="39.00" waitingCount="1" stopTime="0.00" timeLoss="60.33" rerouteNo="0" devices="tripinfo_flow_route_121_duration_20250327_2200.4" vType="car" speedFactor="0.87" vaporized=""/>
    <tripinfo id="flow_route_121_duration_20250327_2200.9" depart="43.00" departLane="799091563#0_0" departPos="105.29" departSpeed="0.00" departDelay="1.47" arrival="118.00" arrivalLane="134194079#0_0" arrivalPos="45.30" arrivalSpeed="9.39" duration="75.00" routeLength="329.17" waitingTime="12.00" waitingCount="1" stopTime="0.00" timeLoss="49.88" rerouteNo="0" devices="tripinfo_flow_route_121_duration_20250327_2200.9" vType="car" speedFactor="0.85" vaporized=""/>
    <tripinfo id="flow_route_120_duration_20250327_2200.1" depart="12.00" departLane="799091563#0_0" departPos="366.26" departSpeed="0.00" departDelay="0.00" arrival="120.00" arrivalLane="138000492#0_1" arrivalPos="173.11" arrivalSpeed="16.49" duration="108.00" routeLength="405.01" waitingTime="60.00" waitingCount="1" stopTime="0.00" timeLoss="82.89" rerouteNo="0" devices="tripinfo_flow_route_120_duration_20250327_2200.1" vType="car" speedFactor="1.16" vaporized=""/>
    <tripinfo id="flow_route_121_duration_20250327_2200.12" depart="60.00" departLane="799091563#0_0" departPos="176.88" departSpeed="0.00" departDelay="4.62" arrival="123.00" arrivalLane="134194079#0_0" arrivalPos="46.50" arrivalSpeed="9.87" duration="63.00" routeLength="258.78" waitingTime="12.00" waitingCount="1" stopTime="0.00" timeLoss="44.89" rerouteNo="0" devices="tripinfo_flow_route_121_duration_20250327_2200.12" vType="car" speedFactor="0.94" vaporized=""/>
    <tripinfo id="flow_route_121_duration_20250327_2200.11" depart="56.00" departLane="799091563#0_0" departPos="220.07" departSpeed="0.00" departDelay="5.24" arrival="125.00" arrivalLane="134194079#0_0" arrivalPos="241.72" arrivalSpeed="16.45" duration="69.00" routeLength="410.81" waitingTime="16.00" waitingCount="1" stopTime="0.00" timeLoss="42.71" rerouteNo="0" devices="tripinfo_flow_route_121_duration_20250327_2200.11" vType="car" speedFactor="1.08" vaporized=""/>
    <tripinfo id="flow_route_121_duration_20250327_2200.7" depart="33.00" departLane="799091563#0_0" departPos="9.05" departSpeed="0.00" departDelay="0.70" arrival="127.00" arrivalLane="134194079#0_0" arrivalPos="123.07" arrivalSpeed="14.80" duration="94.00" routeLength="503.18" waitingTime="11.00" waitingCount="1" stopTime="0.00" timeLoss="62.35" rerouteNo="0" devices="tripinfo_flow_route_121_duration_20250327_2200.7" vType="car" speedFactor="1.03" vaporized=""/>
    <tripinfo id="flow_route_116_duration_20250327_2200.2" depart="40.00" departLane="177211987#1_0" departPos="57.18" departSpeed="0.00" departDelay="0.00" arrival="129.00" arrivalLane="688883939#0_1" arrivalPos="14.88" arrivalSpeed="9.86" duration="89.00" routeLength="312.72" waitingTime="44.00" waitingCount="1" stopTime="0.00" timeLoss="67.61" rerouteNo="0" devices="tripinfo_flow_route_116_duration_20250327_2200.2" vType="car" speedFactor="0.88" vaporized=""/>
    <tripinfo id="flow_route_120_duration_20250327_2200.3" depart="38.00" departLane="799091563#0_0" departPos="177.07" departSpeed="0.00" departDelay="2.00" arrival="132.00" arrivalLane="138000492#0_2" arrivalPos="299.11" arrivalSpeed="16.31" duration="94.00" routeLength="720.20" waitingTime="18.00" waitingCount="1" stopTime="0.00" timeLoss="50.08" rerouteNo="0" devices="tripinfo_flow_route_120_duration_20250327_2200.3" vType="car" speedFactor="1.04" vaporized=""/>
    <tripinfo id="flow_route_121_duration_20250327_2200.10" depart="50.00" departLane="799091563#0_0" departPos="184.70" departSpeed="0.00" departDelay="3.85" arrival="132.00" arrivalLane="134194079#0_0" arrivalPos="289.40" arrivalSpeed="16.15" duration="82.00" routeLength="493.86" waitingTime="13.00" waitingCount="1" stopTime="0.00" timeLoss="50.08" rerouteNo="0" devices="tripinfo_flow_route_121_duration_20250327_2200.10" vType="car" speedFactor="1.00" vaporized=""/>