<?xml version="1.0" encoding="UTF-8"?>

<!-- generated on 2025-05-06 21:08:36 by Eclipse SUMO sumo Version 1.20.0
<configuration xmlns:xsi="http://www.w3.org/2001/XMLSchema-instance" xsi:noNamespaceSchemaLocation="http://sumo.dlr.de/xsd/sumoConfiguration.xsd">

    <input>
        <net-file value="osm.net.xml"/>
        <route-files value="xml/route_static_cluster_356722183_3828703848_5.rou.xml"/>
    </input>

    <output>
        <tripinfo-output value="xml/tripinfo_static_cluster_356722183_3828703848_5.xml"/>
    </output>

    <traci_server>
        <remote-port value="33211"/>
    </traci_server>

</configuration>
-->

<tripinfos xmlns:xsi="http://www.w3.org/2001/XMLSchema-instance" xsi:noNamespaceSchemaLocation="http://sumo.dlr.de/xsd/tripinfo_file.xsd">
    <tripinfo id="flow_route_18_duration_20250327_2110.0" depart="0.00" departLane="133126040#0_0" departPos="80.59" departSpeed="0.00" departDelay="0.00" arrival="13.00" arrivalLane="1318893695#0_0" arrivalPos="9.11" arrivalSpeed="10.23" duration="13.00" routeLength="59.37" waitingTime="0.00" waitingCount="0" stopTime="0.00" timeLoss="8.87" rerouteNo="0" devices="tripinfo_flow_route_18_duration_20250327_2110.0" vType="car" speedFactor="1.01" vaporized=""/>
    <tripinfo id="flow_route_0_duration_20250327_2110.0" depart="0.00" departLane="1318793176#1_0" departPos="2.64" departSpeed="0.00" departDelay="0.00" arrival="36.00" arrivalLane="133126031#0_0" arrivalPos="296.30" arrivalSpeed="16.40" duration="36.00" routeLength="414.08" waitingTime="0.00" waitingCount="0" stopTime="0.00" timeLoss="10.49" rerouteNo="0" devices="tripinfo_flow_route_0_duration_20250327_2110.0" vType="car" speedFactor="1.06" vaporized=""/>
    <tripinfo id="flow_route_19_duration_20250327_2110.0" depart="0.00" departLane="133126040#0_0" departPos="0.65" departSpeed="0.00" departDelay="0.00" arrival="39.00" arrivalLane="133126031#0_1" arrivalPos="163.43" arrivalSpeed="16.21" duration="39.00" routeLength="291.65" waitingTime="0.00" waitingCount="0" stopTime="0.00" timeLoss="20.14" rerouteNo="0" devices="tripinfo_flow_route_19_duration_20250327_2110.0" vType="car" speedFactor="1.08" vaporized=""/>
    <tripinfo id="flow_route_0_duration_20250327_2110.2" depart="14.00" departLane="1318793176#1_0" departPos="0.95" departSpeed="0.00" departDelay="3.09" arrival="39.00" arrivalLane="133126031#0_0" arrivalPos="110.18" arrivalSpeed="16.45" duration="25.00" routeLength="229.65" waitingTime="0.00" waitingCount="0" stopTime="0.00" timeLoss="10.56" rerouteNo="0" devices="tripinfo_flow_route_0_duration_20250327_2110.2" vType="car" speedFactor="1.03" vaporized=""/>
    <tripinfo id="flow_route_0_duration_20250327_2110.1" depart="9.00" departLane="1318793176#1_0" departPos="1.70" departSpeed="0.00" departDelay="3.55" arrival="42.00" arrivalLane="133126031#0_0" arrivalPos="210.66" arrivalSpeed="16.28" duration="33.00" routeLength="329.38" waitingTime="0.00" waitingCount="0" stopTime="0.00" timeLoss="10.98" rerouteNo="0" devices="tripinfo_flow_route_0_duration_20250327_2110.1" vType="car" speedFactor="0.89" vaporized=""/>
    <tripinfo id="flow_route_19_duration_20250327_2110.2" depart="12.00" departLane="133126040#0_0" departPos="24.13" departSpeed="0.00" departDelay="0.00" arrival="43.00" arrivalLane="133126031#0_1" arrivalPos="136.79" arrivalSpeed="15.66" duration="31.00" routeLength="241.53" waitingTime="0.00" waitingCount="0" stopTime="0.00" timeLoss="15.20" rerouteNo="0" devices="tripinfo_flow_route_19_duration_20250327_2110.2" vType="car" speedFactor="1.05" vaporized=""/>
    <tripinfo id="flow_route_19_duration_20250327_2110.1" depart="6.00" departLane="133126040#0_0" departPos="42.89" departSpeed="0.00" departDelay="0.00" arrival="44.00" arrivalLane="133126031#0_0" arrivalPos="312.28" arrivalSpeed="16.40" duration="38.00" routeLength="398.25" waitingTime="0.00" waitingCount="0" stopTime="0.00" timeLoss="12.09" rerouteNo="0" devices="tripinfo_flow_route_19_duration_20250327_2110.1" vType="car" speedFactor="0.94" vaporized=""/>
    <tripinfo id="flow_route_0_duration_20250327_2110.3" depart="19.00" departLane="1318793176#1_0" departPos="1.96" departSpeed="0.00" departDelay="2.64" arrival="49.00" arrivalLane="133126031#0_0" arrivalPos="198.28" arrivalSpeed="16.20" duration="30.00" routeLength="316.74" waitingTime="0.00" waitingCount="0" stopTime="0.00" timeLoss="10.14" rerouteNo="0" devices="tripinfo_flow_route_0_duration_20250327_2110.3" vType="car" speedFactor="1.12" vaporized=""/>
    <tripinfo id="flow_route_48_duration_20250327_2110.0" depart="2.00" departLane="380351865#0_0" departPos="1.03" departSpeed="0.00" departDelay="2.00" arrival="52.00" arrivalLane="133126031#0_0" arrivalPos="14.50" arrivalSpeed="7.99" duration="50.00" routeLength="180.64" waitingTime="18.00" waitingCount="1" stopTime="0.00" timeLoss="32.32" rerouteNo="0" devices="tripinfo_flow_route_48_duration_20250327_2110.0" vType="car" speedFactor="0.83" vaporized=""/>
    <tripinfo id="flow_route_47_duration_20250327_2110.1" depart="20.00" departLane="380351865#0_0" departPos="2.59" departSpeed="0.00" departDelay="10.00" arrival="55.00" arrivalLane="1318793173#0_1" arrivalPos="3.22" arrivalSpeed="8.34" duration="35.00" routeLength="162.07" waitingTime="3.00" waitingCount="1" stopTime="0.00" timeLoss="21.88" rerouteNo="0" devices="tripinfo_flow_route_47_duration_20250327_2110.1" vType="car" speedFactor="1.09" vaporized=""/>
    <tripinfo id="flow_route_0_duration_20250327_2110.4" depart="24.00" departLane="1318793176#1_0" departPos="6.06" departSpeed="0.00" departDelay="2.18" arrival="55.00" arrivalLane="133126031#0_0" arrivalPos="181.83" arrivalSpeed="16.35" duration="31.00" routeLength="296.19" waitingTime="0.00" waitingCount="0" stopTime="0.00" timeLoss="11.81" rerouteNo="0" devices="tripinfo_flow_route_0_duration_20250327_2110.4" vType="car" speedFactor="0.94" vaporized=""/>
    <tripinfo id="flow_route_47_duration_20250327_2110.0" depart="0.00" departLane="380351865#0_0" departPos="11.49" departSpeed="0.00" departDelay="0.00" arrival="56.00" arrivalLane="1318793173#0_1" arrivalPos="63.76" arrivalSpeed="11.24" duration="56.00" routeLength="213.71" waitingTime="22.00" waitingCount="1" stopTime="0.00" timeLoss="39.54" rerouteNo="0" devices="tripinfo_flow_route_47_duration_20250327_2110.0" vType="car" speedFactor="1.03" vaporized=""/>
    <tripinfo id="flow_route_19_duration_20250327_2110.3" depart="18.00" departLane="133126040#0_0" departPos="18.21" departSpeed="0.00" departDelay="0.00" arrival="60.00" arrivalLane="133126031#0_1" arrivalPos="319.23" arrivalSpeed="16.53" duration="42.00" routeLength="429.88" waitingTime="0.00" waitingCount="0" stopTime="0.00" timeLoss="14.31" rerouteNo="0" devices="tripinfo_flow_route_19_duration_20250327_2110.3" vType="car" speedFactor="0.99" vaporized=""/>
    <tripinfo id="flow_route_48_duration_20250327_2110.3" depart="29.00" departLane="380351865#0_0" departPos="3.63" departSpeed="0.00" departDelay="3.29" arrival="62.00" arrivalLane="133126031#0_0" arrivalPos="60.08" arrivalSpeed="13.42" duration="33.00" routeLength="223.62" waitingTime="0.00" waitingCount="0" stopTime="0.00" timeLoss="16.59" rerouteNo="0" devices="tripinfo_flow_route_48_duration_20250327_2110.3" vType="car" speedFactor="1.16" vaporized=""/>
    <tripinfo id="flow_route_49_duration_20250327_2110.0" depart="8.00" departLane="380351865#0_0" departPos="0.55" departSpeed="0.00" departDelay="8.00" arrival="63.00" arrivalLane="1318893695#0_0" arrivalPos="148.83" arrivalSpeed="15.74" duration="55.00" routeLength="292.16" waitingTime="15.00" waitingCount="1" stopTime="0.00" timeLoss="32.21" rerouteNo="0" devices="tripinfo_flow_route_49_duration_20250327_2110.0" vType="car" speedFactor="1.05" vaporized=""/>
    <tripinfo id="flow_route_48_duration_20250327_2110.2" depart="22.00" departLane="380351865#0_0" departPos="15.84" departSpeed="0.00" departDelay="4.86" arrival="63.00" arrivalLane="133126031#0_0" arrivalPos="102.35" arrivalSpeed="15.76" duration="41.00" routeLength="253.68" waitingTime="2.00" waitingCount="1" stopTime="0.00" timeLoss="20.66" rerouteNo="0" devices="tripinfo_flow_route_48_duration_20250327_2110.2" vType="car" speedFactor="0.93" vaporized=""/>
    <tripinfo id="flow_route_47_duration_20250327_2110.2" depart="24.00" departLane="380351865#0_0" departPos="1.47" departSpeed="0.00" departDelay="4.00" arrival="63.00" arrivalLane="1318793173#0_1" arrivalPos="69.34" arrivalSpeed="13.26" duration="39.00" routeLength="229.31" waitingTime="2.00" waitingCount="1" stopTime="0.00" timeLoss="17.80" rerouteNo="0" devices="tripinfo_flow_route_47_duration_20250327_2110.2" vType="car" speedFactor="0.88" vaporized=""/>
    <tripinfo id="flow_route_47_duration_20250327_2110.3" depart="35.00" departLane="380351865#0_0" departPos="5.17" departSpeed="0.00" departDelay="5.00" arrival="63.00" arrivalLane="1318793173#0_1" arrivalPos="45.74" arrivalSpeed="12.30" duration="28.00" routeLength="202.01" waitingTime="0.00" waitingCount="0" stopTime="0.00" timeLoss="10.89" rerouteNo="0" devices="tripinfo_flow_route_47_duration_20250327_2110.3" vType="car" speedFactor="0.97" vaporized=""/>
    <tripinfo id="flow_route_48_duration_20250327_2110.4" depart="40.00" departLane="380351865#0_0" departPos="16.58" departSpeed="0.00" departDelay="5.72" arrival="63.00" arrivalLane="133126031#0_0" arrivalPos="7.93" arrivalSpeed="11.47" duration="23.00" routeLength="158.52" waitingTime="0.00" waitingCount="0" stopTime="0.00" timeLoss="7.46" rerouteNo="0" devices="tripinfo_flow_route_48_duration_20250327_2110.4" vType="car" speedFactor="0.83" vaporized=""/>
    <tripinfo id="flow_route_47_duration_20250327_2110.4" depart="40.00" departLane="380351865#0_0" departPos="5.06" departSpeed="0.00" departDelay="0.00" arrival="67.00" arrivalLane="1318793173#0_1" arrivalPos="61.99" arrivalSpeed="15.48" duration="27.00" routeLength="218.38" waitingTime="0.00" waitingCount="0" stopTime="0.00" timeLoss="8.21" rerouteNo="0" devices="tripinfo_flow_route_47_duration_20250327_2110.4" vType="car" speedFactor="0.95" vaporized=""/>
    <tripinfo id="flow_route_48_duration_20250327_2110.1" depart="13.00" departLane="380351865#0_0" departPos="2.87" departSpeed="0.00" departDelay="4.43" arrival="71.00" arrivalLane="133126031#0_0" arrivalPos="254.24" arrivalSpeed="16.25" duration="58.00" routeLength="418.54" waitingTime="8.00" waitingCount="1" stopTime="0.00" timeLoss="26.38" rerouteNo="0" devices="tripinfo_flow_route_48_duration_20250327_2110.1" vType="car" speedFactor="0.86" vaporized=""/>
    <tripinfo id="flow_route_1_duration_20250327_2110.0" depart="4.00" departLane="1318793176#1_0" departPos="0.49" departSpeed="0.00" departDelay="4.00" arrival="78.00" arrivalLane="1318793173#0_1" arrivalPos="77.00" arrivalSpeed="12.67" duration="74.00" routeLength="200.41" waitingTime="40.00" waitingCount="1" stopTime="0.00" timeLoss="61.16" rerouteNo="0" devices="tripinfo_flow_route_1_duration_20250327_2110.0" vType="car" speedFactor="0.94" vaporized=""/>
    <tripinfo id="flow_route_0_duration_20250327_2110.6" depart="33.00" departLane="1318793176#1_0" departPos="3.90" departSpeed="0.00" departDelay="0.28" arrival="88.00" arrivalLane="133126031#0_0" arrivalPos="194.55" arrivalSpeed="16.53" duration="55.00" routeLength="311.07" waitingTime="6.00" waitingCount="2" stopTime="0.00" timeLoss="34.25" rerouteNo="0" devices="tripinfo_flow_route_0_duration_20250327_2110.6" vType="car" speedFactor="0.89" vaporized=""/>
    <tripinfo id="flow_route_0_duration_20250327_2110.5" depart="28.00" departLane="1318793176#1_0" departPos="3.10" departSpeed="0.00" departDelay="0.73" arrival="89.00" arrivalLane="133126031#0_0" arrivalPos="240.06" arrivalSpeed="16.14" duration="61.00" routeLength="357.38" waitingTime="12.00" waitingCount="3" stopTime="0.00" timeLoss="38.55" rerouteNo="0" devices="tripinfo_flow_route_0_duration_20250327_2110.5" vType="car" speedFactor="1.02" vaporized=""/>
    <tripinfo id="flow_route_0_duration_20250327_2110.8" depart="44.00" departLane="1318793176#1_0" departPos="7.07" departSpeed="0.00" departDelay="0.37" arrival="89.00" arrivalLane="133126031#0_0" arrivalPos="155.08" arrivalSpeed="16.33" duration="45.00" routeLength="268.43" waitingTime="0.00" waitingCount="0" stopTime="0.00" timeLoss="28.16" rerouteNo="0" devices="tripinfo_flow_route_0_duration_20250327_2110.8" vType="car" speedFactor="1.18" vaporized=""/>
    <tripinfo id="flow_route_19_duration_20250327_2110.9" depart="54.00" departLane="133126040#0_0" departPos="73.04" departSpeed="0.00" departDelay="0.00" arrival="91.00" arrivalLane="133126031#0_1" arrivalPos="14.16" arrivalSpeed="9.01" duration="37.00" routeLength="69.99" waitingTime="17.00" waitingCount="2" stopTime="0.00" timeLoss="31.32" rerouteNo="0" devices="tripinfo_flow_route_19_duration_20250327_2110.9" vType="car" speedFactor="1.02" vaporized=""/>
    <tripinfo id="flow_route_0_duration_20250327_2110.7" depart="39.00" departLane="1318793176#1_0" departPos="9.33" departSpeed="0.00" departDelay="0.82" arrival="92.00" arrivalLane="133126031#0_0" arrivalPos="236.36" arrivalSpeed="16.39" duration="53.00" routeLength="347.45" waitingTime="3.00" waitingCount="1" stopTime="0.00" timeLoss="30.87" rerouteNo="0" devices="tripinfo_flow_route_0_duration_20250327_2110.7" vType="car" speedFactor="0.92" vaporized=""/>
    <tripinfo id="flow_route_19_duration_20250327_2110.4" depart="24.00" departLane="133126040#0_0" departPos="22.41" departSpeed="0.00" departDelay="0.00" arrival="94.00" arrivalLane="133126031#0_1" arrivalPos="112.74" arrivalSpeed="14.28" duration="70.00" routeLength="219.20" waitingTime="23.00" waitingCount="2" stopTime="0.00" timeLoss="54.93" rerouteNo="0" devices="tripinfo_flow_route_19_duration_20250327_2110.4" vType="car" speedFactor="0.94" vaporized=""/>
    <tripinfo id="flow_route_0_duration_20250327_2110.9" depart="50.00" departLane="1318793176#1_0" departPos="7.62" departSpeed="0.00" departDelay="0.91" arrival="96.00" arrivalLane="133126031#0_0" arrivalPos="236.85" arrivalSpeed="16.51" duration="46.00" routeLength="349.65" waitingTime="0.00" waitingCount="0" stopTime="0.00" timeLoss="23.61" rerouteNo="0" devices="tripinfo_flow_route_0_duration_20250327_2110.9" vType="car" speedFactor="1.01" vaporized=""/>
    <tripinfo id="flow_route_19_duration_20250327_2110.7" depart="42.00" departLane="133126040#0_0" departPos="37.09" departSpeed="0.00" departDelay="0.00" arrival="97.00" arrivalLane="133126031#0_1" arrivalPos="136.70" arrivalSpeed="15.86" duration="55.00" routeLength="228.49" waitingTime="14.00" waitingCount="2" stopTime="0.00" timeLoss="39.84" rerouteNo="0" devices="tripinfo_flow_route_19_duration_20250327_2110.7" vType="car" speedFactor="1.13" vaporized=""/>
    <tripinfo id="flow_route_19_duration_20250327_2110.5" depart="30.00" departLane="133126040#0_0" departPos="66.53" departSpeed="0.00" departDelay="0.00" arrival="99.00" arrivalLane="133126031#0_1" arrivalPos="225.69" arrivalSpeed="16.49" duration="69.00" routeLength="288.03" waitingTime="24.00" waitingCount="2" stopTime="0.00" timeLoss="49.75" rerouteNo="0" devices="tripinfo_flow_route_19_duration_20250327_2110.5" vType="car" speedFactor="1.01" vaporized=""/>
    <tripinfo id="flow_route_19_duration_20250327_2110.6" depart="36.00" departLane="133126040#0_0" departPos="100.04" departSpeed="0.00" departDelay="0.00" arrival="101.00" arrivalLane="133126031#0_1" arrivalPos="291.16" arrivalSpeed="16.31" duration="65.00" routeLength="319.99" waitingTime="27.00" waitingCount="2" stopTime="0.00" timeLoss="43.09" rerouteNo="0" devices="tripinfo_flow_route_19_duration_20250327_2110.6" vType="car" speedFactor="0.87" vaporized=""/>
    <tripinfo id="flow_route_0_duration_20250327_2110.10" depart="55.00" departLane="1318793176#1_0" departPos="1.64" departSpeed="0.00" departDelay="0.46" arrival="103.00" arrivalLane="133126031#0_0" arrivalPos="325.30" arrivalSpeed="16.57" duration="48.00" routeLength="444.08" waitingTime="0.00" waitingCount="0" stopTime="0.00" timeLoss="19.97" rerouteNo="0" devices="tripinfo_flow_route_0_duration_20250327_2110.10" vType="car" speedFactor="0.97" vaporized=""/>
    <tripinfo id="flow_route_19_duration_20250327_2110.8" depart="48.00" departLane="133126040#0_0" departPos="30.42" departSpeed="0.00" departDelay="0.00" arrival="112.00" arrivalLane="133126031#0_0" arrivalPos="259.72" arrivalSpeed="16.46" duration="64.00" routeLength="358.18" waitingTime="12.00" waitingCount="3" stopTime="0.00" timeLoss="41.00" rerouteNo="0" devices="tripinfo_flow_route_19_duration_20250327_2110.8" vType="car" speedFactor="1.15" vaporized=""/>
    <tripinfo id="flow_route_47_duration_20250327_2110.5" depart="50.00" departLane="380351865#0_0" departPos="2.41" departSpeed="0.00" departDelay="0.00" arrival="115.00" arrivalLane="1318793173#0_1" arrivalPos="13.43" arrivalSpeed="8.25" duration="65.00" routeLength="172.46" waitingTime="34.00" waitingCount="1" stopTime="0.00" timeLoss="51.91" rerouteNo="0" devices="tripinfo_flow_route_47_duration_20250327_2110.5" vType="car" speedFactor="1.17" vaporized=""/>
    <tripinfo id="flow_route_48_duration_20250327_2110.5" depart="43.00" departLane="380351865#0_0" departPos="1.73" departSpeed="0.00" departDelay="0.15" arrival="131.00" arrivalLane="133126031#0_0" arrivalPos="232.61" arrivalSpeed="16.54" duration="88.00" routeLength="398.05" waitingTime="39.00" waitingCount="1" stopTime="0.00" timeLoss="58.31" rerouteNo="0" devices="tripinfo_flow_route_48_duration_20250327_2110.5" vType="car" speedFactor="0.93" vaporized=""/>
    <tripinfo id="flow_route_48_duration_20250327_2110.6" depart="57.00" departLane="380351865#0_0" departPos="5.88" departSpeed="0.00" departDelay="5.57" arrival="136.00" arrivalLane="133126031#0_0" arrivalPos="293.31" arrivalSpeed="16.20" duration="79.00" routeLength="454.60" waitingTime="28.00" waitingCount="1" stopTime="0.00" timeLoss="47.47" rerouteNo="0" devices="tripinfo_flow_route_48_duration_20250327_2110.6" vType="car" speedFactor="0.99" vaporized=""/>
</tripinfos>
