<?xml version="1.0" encoding="UTF-8"?>

<!-- generated on 2025-05-06 21:08:33 by Eclipse SUMO sumo Version 1.20.0
<configuration xmlns:xsi="http://www.w3.org/2001/XMLSchema-instance" xsi:noNamespaceSchemaLocation="http://sumo.dlr.de/xsd/sumoConfiguration.xsd">

    <input>
        <net-file value="osm.net.xml"/>
        <route-files value="xml/route_rl_cluster_4110471701_632031939_5.rou.xml"/>
    </input>

    <output>
        <tripinfo-output value="xml/tripinfo_rl_cluster_4110471701_632031939_5.xml"/>
    </output>

    <traci_server>
        <remote-port value="33783"/>
    </traci_server>

</configuration>
-->

<tripinfos xmlns:xsi="http://www.w3.org/2001/XMLSchema-instance" xsi:noNamespaceSchemaLocation="http://sumo.dlr.de/xsd/tripinfo_file.xsd">
    <tripinfo id="flow_route_83_duration_20250327_2140.0" depart="0.00" departLane="423956929_0" departPos="101.16" departSpeed="0.00" departDelay="0.00" arrival="17.00" arrivalLane="186407685_0" arrivalPos="8.05" arrivalSpeed="6.86" duration="17.00" routeLength="101.45" waitingTime="0.00" waitingCount="0" stopTime="0.00" timeLoss="10.18" rerouteNo="0" devices="tripinfo_flow_route_83_duration_20250327_2140.0" vType="car" speedFactor="1.01" vaporized=""/>
    <tripinfo id="flow_route_62_duration_20250327_2140.0" depart="0.00" departLane="409155823_0" departPos="65.43" departSpeed="0.00" departDelay="0.00" arrival="23.00" arrivalLane="1091883842_0" arrivalPos="165.47" arrivalSpeed="16.29" duration="23.00" routeLength="205.45" waitingTime="0.00" waitingCount="0" stopTime="0.00" timeLoss="10.50" rerouteNo="0" devices="tripinfo_flow_route_62_duration_20250327_2140.0" vType="car" speedFactor="1.06" vaporized=""/>
    <tripinfo id="flow_route_82_duration_20250327_2140.0" depart="0.00" departLane="423956929_0" departPos="45.92" departSpeed="0.00" departDelay="0.00" arrival="24.00" arrivalLane="186407684#0_0" arrivalPos="62.79" arrivalSpeed="15.18" duration="24.00" routeLength="219.95" waitingTime="0.00" waitingCount="0" stopTime="0.00" timeLoss="8.99" rerouteNo="0" devices="tripinfo_flow_route_82_duration_20250327_2140.0" vType="car" speedFactor="0.94" vaporized=""/>
    <tripinfo id="flow_route_87_duration_20250327_2140.1" depart="12.00" departLane="430416184_0" departPos="253.21" departSpeed="0.00" departDelay="0.00" arrival="25.00" arrivalLane="1091883842_0" arrivalPos="11.19" arrivalSpeed="7.47" duration="13.00" routeLength="58.43" waitingTime="0.00" waitingCount="0" stopTime="0.00" timeLoss="8.12" rerouteNo="0" devices="tripinfo_flow_route_87_duration_20250327_2140.1" vType="car" speedFactor="0.94" vaporized=""/>
    <tripinfo id="flow_route_62_duration_20250327_2140.1" depart="20.00" departLane="409155823_0" departPos="55.77" departSpeed="0.00" departDelay="0.00" arrival="33.00" arrivalLane="1091883842_0" arrivalPos="8.58" arrivalSpeed="9.18" duration="13.00" routeLength="58.22" waitingTime="0.00" waitingCount="0" stopTime="0.00" timeLoss="9.13" rerouteNo="0" devices="tripinfo_flow_route_62_duration_20250327_2140.1" vType="car" speedFactor="1.09" vaporized=""/>
    <tripinfo id="flow_route_88_duration_20250327_2140.0" depart="0.00" departLane="430416184_0" departPos="194.63" departSpeed="0.00" departDelay="0.00" arrival="48.00" arrivalLane="186407684#0_1" arrivalPos="3.84" arrivalSpeed="7.44" duration="48.00" routeLength="126.85" waitingTime="19.00" waitingCount="1" stopTime="0.00" timeLoss="38.54" rerouteNo="0" devices="tripinfo_flow_route_88_duration_20250327_2140.0" vType="car" speedFactor="0.83" vaporized=""/>
    <tripinfo id="flow_route_87_duration_20250327_2140.0" depart="0.00" departLane="430416184_0" departPos="1.75" departSpeed="0.00" departDelay="0.00" arrival="49.00" arrivalLane="1091883842_0" arrivalPos="109.56" arrivalSpeed="14.85" duration="49.00" routeLength="408.27" waitingTime="0.00" waitingCount="0" stopTime="0.00" timeLoss="23.61" rerouteNo="0" devices="tripinfo_flow_route_87_duration_20250327_2140.0" vType="car" speedFactor="1.03" vaporized=""/>
    <tripinfo id="flow_route_86_duration_20250327_2140.0" depart="0.00" departLane="430416184_0" departPos="215.48" departSpeed="0.00" departDelay="0.00" arrival="54.00" arrivalLane="186407685_1" arrivalPos="87.02" arrivalSpeed="12.75" duration="54.00" routeLength="195.42" waitingTime="21.00" waitingCount="1" stopTime="0.00" timeLoss="42.15" rerouteNo="0" devices="tripinfo_flow_route_86_duration_20250327_2140.0" vType="car" speedFactor="1.08" vaporized=""/>
    <tripinfo id="flow_route_88_duration_20250327_2140.1" depart="5.00" departLane="430416184_0" departPos="130.75" departSpeed="0.00" departDelay="0.00" arrival="56.00" arrivalLane="186407684#0_1" arrivalPos="41.08" arrivalSpeed="11.70" duration="51.00" routeLength="227.97" waitingTime="14.00" waitingCount="1" stopTime="0.00" timeLoss="36.09" rerouteNo="0" devices="tripinfo_flow_route_88_duration_20250327_2140.1" vType="car" speedFactor="1.05" vaporized=""/>
    <tripinfo id="flow_route_88_duration_20250327_2140.4" depart="20.00" departLane="430416184_0" departPos="238.38" departSpeed="0.00" departDelay="0.00" arrival="56.00" arrivalLane="186407684#0_1" arrivalPos="27.06" arrivalSpeed="10.97" duration="36.00" routeLength="106.31" waitingTime="12.00" waitingCount="1" stopTime="0.00" timeLoss="28.69" rerouteNo="0" devices="tripinfo_flow_route_88_duration_20250327_2140.4" vType="car" speedFactor="1.05" vaporized=""/>
    <tripinfo id="flow_route_86_duration_20250327_2140.1" depart="20.00" departLane="430416184_0" departPos="271.56" departSpeed="0.00" departDelay="0.00" arrival="58.00" arrivalLane="186407685_1" arrivalPos="90.83" arrivalSpeed="15.28" duration="38.00" routeLength="143.15" waitingTime="15.00" waitingCount="1" stopTime="0.00" timeLoss="28.79" rerouteNo="0" devices="tripinfo_flow_route_86_duration_20250327_2140.1" vType="car" speedFactor="1.03" vaporized=""/>
    <tripinfo id="flow_route_88_duration_20250327_2140.3" depart="15.00" departLane="430416184_0" departPos="197.69" departSpeed="0.00" departDelay="0.00" arrival="59.00" arrivalLane="186407684#0_1" arrivalPos="28.37" arrivalSpeed="10.87" duration="44.00" routeLength="148.31" waitingTime="12.00" waitingCount="1" stopTime="0.00" timeLoss="32.55" rerouteNo="0" devices="tripinfo_flow_route_88_duration_20250327_2140.3" vType="car" speedFactor="0.86" vaporized=""/>
    <tripinfo id="flow_route_87_duration_20250327_2140.2" depart="24.00" departLane="430416184_0" departPos="114.69" departSpeed="0.00" departDelay="0.00" arrival="61.00" arrivalLane="1091883842_0" arrivalPos="164.84" arrivalSpeed="16.36" duration="37.00" routeLength="350.60" waitingTime="0.00" waitingCount="0" stopTime="0.00" timeLoss="15.27" rerouteNo="0" devices="tripinfo_flow_route_87_duration_20250327_2140.2" vType="car" speedFactor="1.12" vaporized=""/>
    <tripinfo id="flow_route_88_duration_20250327_2140.2" depart="10.00" departLane="430416184_0" departPos="76.50" departSpeed="0.00" departDelay="0.00" arrival="62.00" arrivalLane="186407684#0_1" arrivalPos="49.91" arrivalSpeed="12.25" duration="52.00" routeLength="291.04" waitingTime="8.00" waitingCount="1" stopTime="0.00" timeLoss="32.72" rerouteNo="0" devices="tripinfo_flow_route_88_duration_20250327_2140.2" vType="car" speedFactor="0.89" vaporized=""/>
    <tripinfo id="flow_route_87_duration_20250327_2140.4" depart="48.00" departLane="430416184_0" departPos="193.22" departSpeed="0.00" departDelay="0.00" arrival="69.00" arrivalLane="1091883842_0" arrivalPos="16.53" arrivalSpeed="8.48" duration="21.00" routeLength="123.77" waitingTime="0.00" waitingCount="0" stopTime="0.00" timeLoss="12.27" rerouteNo="0" devices="tripinfo_flow_route_87_duration_20250327_2140.4" vType="car" speedFactor="0.97" vaporized=""/>
    <tripinfo id="flow_route_88_duration_20250327_2140.10" depart="52.00" departLane="430416184_0" departPos="270.41" departSpeed="0.00" departDelay="2.00" arrival="69.00" arrivalLane="186407684#0_1" arrivalPos="63.06" arrivalSpeed="12.63" duration="17.00" routeLength="110.28" waitingTime="0.00" waitingCount="0" stopTime="0.00" timeLoss="8.57" rerouteNo="0" devices="tripinfo_flow_route_88_duration_20250327_2140.10" vType="car" speedFactor="0.89" vaporized=""/>
    <tripinfo id="flow_route_88_duration_20250327_2140.5" depart="25.00" departLane="430416184_0" departPos="68.46" departSpeed="0.00" departDelay="0.00" arrival="72.00" arrivalLane="186407684#0_1" arrivalPos="47.97" arrivalSpeed="12.05" duration="47.00" routeLength="297.14" waitingTime="2.00" waitingCount="1" stopTime="0.00" timeLoss="27.70" rerouteNo="0" devices="tripinfo_flow_route_88_duration_20250327_2140.5" vType="car" speedFactor="0.99" vaporized=""/>
    <tripinfo id="flow_route_88_duration_20250327_2140.6" depart="32.00" departLane="430416184_0" departPos="46.01" departSpeed="0.00" departDelay="2.00" arrival="72.00" arrivalLane="186407684#0_1" arrivalPos="2.86" arrivalSpeed="10.07" duration="40.00" routeLength="274.47" waitingTime="0.00" waitingCount="0" stopTime="0.00" timeLoss="21.99" rerouteNo="0" devices="tripinfo_flow_route_88_duration_20250327_2140.6" vType="car" speedFactor="0.93" vaporized=""/>
    <tripinfo id="flow_route_88_duration_20250327_2140.9" depart="46.00" departLane="430416184_0" departPos="234.74" departSpeed="0.00" departDelay="1.00" arrival="74.00" arrivalLane="186407684#0_1" arrivalPos="50.38" arrivalSpeed="12.64" duration="28.00" routeLength="133.27" waitingTime="1.00" waitingCount="1" stopTime="0.00" timeLoss="18.81" rerouteNo="0" devices="tripinfo_flow_route_88_duration_20250327_2140.9" vType="car" speedFactor="1.01" vaporized=""/>
    <tripinfo id="flow_route_86_duration_20250327_2140.2" depart="41.00" departLane="430416184_0" departPos="64.53" departSpeed="0.00" departDelay="1.00" arrival="76.00" arrivalLane="186407685_1" arrivalPos="22.20" arrivalSpeed="12.53" duration="35.00" routeLength="281.55" waitingTime="0.00" waitingCount="0" stopTime="0.00" timeLoss="17.46" rerouteNo="0" devices="tripinfo_flow_route_86_duration_20250327_2140.2" vType="car" speedFactor="1.16" vaporized=""/>
    <tripinfo id="flow_route_87_duration_20250327_2140.3" depart="36.00" departLane="430416184_0" departPos="95.81" departSpeed="0.00" departDelay="0.00" arrival="81.00" arrivalLane="1091883842_0" arrivalPos="127.22" arrivalSpeed="15.48" duration="45.00" routeLength="331.86" waitingTime="0.00" waitingCount="0" stopTime="0.00" timeLoss="22.55" rerouteNo="0" devices="tripinfo_flow_route_87_duration_20250327_2140.3" vType="car" speedFactor="0.94" vaporized=""/>
    <tripinfo id="flow_route_62_duration_20250327_2140.2" depart="40.00" departLane="409155823_0" departPos="84.91" departSpeed="0.00" departDelay="0.00" arrival="84.00" arrivalLane="1091883842_0" arrivalPos="24.03" arrivalSpeed="8.32" duration="44.00" routeLength="44.53" waitingTime="30.00" waitingCount="1" stopTime="0.00" timeLoss="40.97" rerouteNo="0" devices="tripinfo_flow_route_62_duration_20250327_2140.2" vType="car" speedFactor="0.94" vaporized=""/>
    <tripinfo id="flow_route_88_duration_20250327_2140.8" depart="41.00" departLane="430416184_0" departPos="48.57" departSpeed="0.00" departDelay="1.00" arrival="126.00" arrivalLane="186407684#0_1" arrivalPos="36.25" arrivalSpeed="9.77" duration="85.00" routeLength="305.31" waitingTime="36.00" waitingCount="1" stopTime="0.00" timeLoss="65.76" rerouteNo="0" devices="tripinfo_flow_route_88_duration_20250327_2140.8" vType="car" speedFactor="1.02" vaporized=""/>
    <tripinfo id="flow_route_88_duration_20250327_2140.7" depart="35.00" departLane="430416184_0" departPos="8.62" departSpeed="0.00" departDelay="0.00" arrival="129.00" arrivalLane="186407684#0_1" arrivalPos="84.30" arrivalSpeed="13.05" duration="94.00" routeLength="393.31" waitingTime="36.00" waitingCount="1" stopTime="0.00" timeLoss="67.64" rerouteNo="0" devices="tripinfo_flow_route_88_duration_20250327_2140.7" vType="car" speedFactor="0.88" vaporized=""/>
    <tripinfo id="flow_route_88_duration_20250327_2140.11" depart="55.00" departLane="430416184_0" departPos="89.01" departSpeed="0.00" departDelay="0.00" arrival="132.00" arrivalLane="186407684#0_1" arrivalPos="84.60" arrivalSpeed="13.01" duration="77.00" routeLength="313.22" waitingTime="34.00" waitingCount="1" stopTime="0.00" timeLoss="55.75" rerouteNo="0" devices="tripinfo_flow_route_88_duration_20250327_2140.11" vType="car" speedFactor="0.83" vaporized=""/>
</tripinfos>
