<?xml version="1.0" encoding="UTF-8"?>

<!-- generated on 2025-05-06 21:07:45 by Eclipse SUMO sumo Version 1.20.0
<configuration xmlns:xsi="http://www.w3.org/2001/XMLSchema-instance" xsi:noNamespaceSchemaLocation="http://sumo.dlr.de/xsd/sumoConfiguration.xsd">

    <input>
        <net-file value="osm.net.xml"/>
        <route-files value="xml/route_static_cluster3839130731_cluster_11644940326_11644940327_11648561426_0.rou.xml"/>
    </input>

    <output>
        <tripinfo-output value="xml/tripinfo_static_cluster3839130731_cluster_11644940326_11644940327_11648561426_0.xml"/>
    </output>

    <traci_server>
        <remote-port value="54891"/>
    </traci_server>

</configuration>
-->

<tripinfos xmlns:xsi="http://www.w3.org/2001/XMLSchema-instance" xsi:noNamespaceSchemaLocation="http://sumo.dlr.de/xsd/tripinfo_file.xsd">
    <tripinfo id="flow_route_96_duration_20250327_2110.0" depart="0.00" departLane="1341093416#0_0" departPos="184.53" departSpeed="0.00" departDelay="0.00" arrival="20.00" arrivalLane="1254519229#0_1" arrivalPos="3.62" arrivalSpeed="5.63" duration="20.00" routeLength="114.10" waitingTime="0.00" waitingCount="0" stopTime="0.00" timeLoss="11.88" rerouteNo="0" devices="tripinfo_flow_route_96_duration_20250327_2110.0" vType="car" speedFactor="1.01" vaporized=""/>
    <tripinfo id="flow_route_123_duration_20250327_2110.0" depart="0.00" departLane="189240000#0-AddedOnRampEdge_0" departPos="5.69" departSpeed="0.00" departDelay="0.00" arrival="22.00" arrivalLane="1254519229#0_0" arrivalPos="19.69" arrivalSpeed="11.80" duration="22.00" routeLength="156.33" waitingTime="0.00" waitingCount="0" stopTime="0.00" timeLoss="10.52" rerouteNo="0" devices="tripinfo_flow_route_123_duration_20250327_2110.0" vType="car" speedFactor="0.89" vaporized=""/>
    <tripinfo id="flow_route_111_duration_20250327_2110.0" depart="0.00" departLane="1253188486#8_0" departPos="138.93" departSpeed="0.00" departDelay="0.00" arrival="33.00" arrivalLane="1254519229#0_1" arrivalPos="3.47" arrivalSpeed="7.76" duration="33.00" routeLength="140.76" waitingTime="5.00" waitingCount="1" stopTime="0.00" timeLoss="24.08" rerouteNo="0" devices="tripinfo_flow_route_111_duration_20250327_2110.0" vType="car" speedFactor="0.83" vaporized=""/>
    <tripinfo id="flow_route_111_duration_20250327_2110.2" depart="12.00" departLane="1253188486#8_0" departPos="234.69" departSpeed="0.00" departDelay="0.00" arrival="33.00" arrivalLane="1254519229#0_0" arrivalPos="2.58" arrivalSpeed="6.76" duration="21.00" routeLength="44.11" waitingTime="4.00" waitingCount="1" stopTime="0.00" timeLoss="18.04" rerouteNo="0" devices="tripinfo_flow_route_111_duration_20250327_2110.2" vType="car" speedFactor="0.99" vaporized=""/>
    <tripinfo id="flow_route_124_duration_20250327_2110.0" depart="0.00" departLane="189240000#0-AddedOnRampEdge_0" departPos="82.66" departSpeed="0.00" departDelay="0.00" arrival="34.00" arrivalLane="1254519225#0.109_3" arrivalPos="34.02" arrivalSpeed="15.04" duration="34.00" routeLength="196.39" waitingTime="3.00" waitingCount="1" stopTime="0.00" timeLoss="20.23" rerouteNo="0" devices="tripinfo_flow_route_124_duration_20250327_2110.0" vType="car" speedFactor="0.94" vaporized=""/>
    <tripinfo id="flow_route_94_duration_20250327_2110.0" depart="0.00" departLane="1341093416#0_0" departPos="204.30" departSpeed="0.00" departDelay="0.00" arrival="37.00" arrivalLane="799091563#0_0" arrivalPos="338.33" arrivalSpeed="16.37" duration="37.00" routeLength="440.38" waitingTime="0.00" waitingCount="0" stopTime="0.00" timeLoss="10.06" rerouteNo="0" devices="tripinfo_flow_route_94_duration_20250327_2110.0" vType="car" speedFactor="1.06" vaporized=""/>
    <tripinfo id="flow_route_111_duration_20250327_2110.1" depart="7.00" departLane="1253188486#8_0" departPos="155.42" departSpeed="0.00" departDelay="1.00" arrival="40.00" arrivalLane="1254519229#0_0" arrivalPos="40.82" arrivalSpeed="10.19" duration="33.00" routeLength="161.62" waitingTime="1.00" waitingCount="1" stopTime="0.00" timeLoss="23.05" rerouteNo="0" devices="tripinfo_flow_route_111_duration_20250327_2110.1" vType="car" speedFactor="1.09" vaporized=""/>
    <tripinfo id="flow_route_111_duration_20250327_2110.3" depart="18.00" departLane="1253188486#8_0" departPos="100.92" departSpeed="0.00" departDelay="0.00" arrival="42.00" arrivalLane="1254519229#0_1" arrivalPos="9.98" arrivalSpeed="15.87" duration="24.00" routeLength="185.28" waitingTime="0.00" waitingCount="0" stopTime="0.00" timeLoss="12.06" rerouteNo="0" devices="tripinfo_flow_route_111_duration_20250327_2110.3" vType="car" speedFactor="0.94" vaporized=""/>
    <tripinfo id="flow_route_104_duration_20250327_2110.0" depart="0.00" departLane="189240001_0" departPos="36.52" departSpeed="0.00" departDelay="0.00" arrival="43.00" arrivalLane="1254519225#0.109_0" arrivalPos="30.66" arrivalSpeed="15.08" duration="43.00" routeLength="198.30" waitingTime="11.00" waitingCount="1" stopTime="0.00" timeLoss="30.81" rerouteNo="0" devices="tripinfo_flow_route_104_duration_20250327_2110.0" vType="car" speedFactor="1.08" vaporized=""/>
    <tripinfo id="flow_route_111_duration_20250327_2110.4" depart="24.00" departLane="1253188486#8_0" departPos="175.56" departSpeed="0.00" departDelay="0.00" arrival="43.00" arrivalLane="1254519229#0_0" arrivalPos="19.21" arrivalSpeed="13.19" duration="19.00" routeLength="119.87" waitingTime="0.00" waitingCount="0" stopTime="0.00" timeLoss="11.34" rerouteNo="0" devices="tripinfo_flow_route_111_duration_20250327_2110.4" vType="car" speedFactor="0.97" vaporized=""/>
    <tripinfo id="flow_route_112_duration_20250327_2110.0" depart="0.00" departLane="1253188486#8_0" departPos="64.90" departSpeed="0.00" departDelay="0.00" arrival="50.00" arrivalLane="799091563#0_0" arrivalPos="282.23" arrivalSpeed="16.40" duration="50.00" routeLength="472.04" waitingTime="0.00" waitingCount="0" stopTime="0.00" timeLoss="20.36" rerouteNo="0" devices="tripinfo_flow_route_112_duration_20250327_2110.0" vType="car" speedFactor="1.05" vaporized=""/>
    <tripinfo id="flow_route_104_duration_20250327_2110.1" depart="30.00" departLane="189240001_0" departPos="14.37" departSpeed="0.00" departDelay="0.00" arrival="54.00" arrivalLane="1254519225#0.109_0" arrivalPos="30.73" arrivalSpeed="15.61" duration="24.00" routeLength="220.53" waitingTime="0.00" waitingCount="0" stopTime="0.00" timeLoss="9.89" rerouteNo="0" devices="tripinfo_flow_route_104_duration_20250327_2110.1" vType="car" speedFactor="0.95" vaporized=""/>
    <tripinfo id="flow_route_112_duration_20250327_2110.1" depart="12.00" departLane="1253188486#8_0" departPos="7.32" departSpeed="0.00" departDelay="0.00" arrival="57.00" arrivalLane="799091563#0_0" arrivalPos="114.59" arrivalSpeed="14.98" duration="45.00" routeLength="361.98" waitingTime="0.00" waitingCount="0" stopTime="0.00" timeLoss="20.50" rerouteNo="0" devices="tripinfo_flow_route_112_duration_20250327_2110.1" vType="car" speedFactor="0.93" vaporized=""/>
    <tripinfo id="flow_route_111_duration_20250327_2110.5" depart="31.00" departLane="1253188486#8_0" departPos="68.41" departSpeed="0.00" departDelay="1.00" arrival="57.00" arrivalLane="1254519229#0_0" arrivalPos="46.16" arrivalSpeed="16.19" duration="26.00" routeLength="253.97" waitingTime="0.00" waitingCount="0" stopTime="0.00" timeLoss="10.51" rerouteNo="0" devices="tripinfo_flow_route_111_duration_20250327_2110.5" vType="car" speedFactor="1.13" vaporized=""/>
    <tripinfo id="flow_route_123_duration_20250327_2110.2" depart="24.00" departLane="189240000#0-AddedOnRampEdge_0" departPos="65.29" departSpeed="0.00" departDelay="0.00" arrival="64.00" arrivalLane="1254519229#0_1" arrivalPos="7.08" arrivalSpeed="7.20" duration="40.00" routeLength="87.63" waitingTime="17.00" waitingCount="1" stopTime="0.00" timeLoss="32.73" rerouteNo="0" devices="tripinfo_flow_route_123_duration_20250327_2110.2" vType="car" speedFactor="0.83" vaporized=""/>
    <tripinfo id="flow_route_94_duration_20250327_2110.3" depart="36.00" departLane="1341093416#0_0" departPos="92.95" departSpeed="0.00" departDelay="0.00" arrival="66.00" arrivalLane="799091563#0_2" arrivalPos="25.43" arrivalSpeed="13.03" duration="30.00" routeLength="238.83" waitingTime="0.00" waitingCount="0" stopTime="0.00" timeLoss="15.35" rerouteNo="0" devices="tripinfo_flow_route_94_duration_20250327_2110.3" vType="car" speedFactor="1.15" vaporized=""/>
    <tripinfo id="flow_route_105_duration_20250327_2110.0" depart="1.00" departLane="189240001_0" departPos="25.23" departSpeed="0.00" departDelay="1.00" arrival="68.00" arrivalLane="799091563#0_2" arrivalPos="224.02" arrivalSpeed="16.25" duration="67.00" routeLength="308.35" waitingTime="21.00" waitingCount="2" stopTime="0.00" timeLoss="47.55" rerouteNo="0" devices="tripinfo_flow_route_105_duration_20250327_2110.0" vType="car" speedFactor="1.03" vaporized=""/>
    <tripinfo id="flow_route_112_duration_20250327_2110.2" depart="24.00" departLane="1253188486#8_0" departPos="146.28" departSpeed="0.00" departDelay="0.00" arrival="68.00" arrivalLane="799091563#0_0" arrivalPos="308.22" arrivalSpeed="14.80" duration="44.00" routeLength="416.65" waitingTime="0.00" waitingCount="0" stopTime="0.00" timeLoss="14.66" rerouteNo="0" devices="tripinfo_flow_route_112_duration_20250327_2110.2" vType="car" speedFactor="0.89" vaporized=""/>
    <tripinfo id="flow_route_123_duration_20250327_2110.3" depart="36.00" departLane="189240000#0-AddedOnRampEdge_0" departPos="19.56" departSpeed="0.00" departDelay="0.00" arrival="68.00" arrivalLane="1254519229#0_0" arrivalPos="24.97" arrivalSpeed="9.55" duration="32.00" routeLength="147.75" waitingTime="0.00" waitingCount="0" stopTime="0.00" timeLoss="22.15" rerouteNo="0" devices="tripinfo_flow_route_123_duration_20250327_2110.3" vType="car" speedFactor="0.99" vaporized=""/>
    <tripinfo id="flow_route_123_duration_20250327_2110.1" depart="12.00" departLane="189240000#0-AddedOnRampEdge_0" departPos="64.68" departSpeed="0.00" departDelay="0.00" arrival="69.00" arrivalLane="1254519229#0_0" arrivalPos="60.83" arrivalSpeed="10.81" duration="57.00" routeLength="138.48" waitingTime="29.00" waitingCount="1" stopTime="0.00" timeLoss="47.16" rerouteNo="0" devices="tripinfo_flow_route_123_duration_20250327_2110.1" vType="car" speedFactor="0.88" vaporized=""/>
    <tripinfo id="flow_route_123_duration_20250327_2110.4" depart="48.00" departLane="189240000#0-AddedOnRampEdge_0" departPos="34.48" departSpeed="0.00" departDelay="0.00" arrival="71.00" arrivalLane="1254519229#0_0" arrivalPos="40.81" arrivalSpeed="10.37" duration="23.00" routeLength="148.66" waitingTime="0.00" waitingCount="0" stopTime="0.00" timeLoss="13.37" rerouteNo="0" devices="tripinfo_flow_route_123_duration_20250327_2110.4" vType="car" speedFactor="1.09" vaporized=""/>
    <tripinfo id="flow_route_94_duration_20250327_2110.1" depart="12.00" departLane="1341093416#0_0" departPos="43.63" departSpeed="0.00" departDelay="0.00" arrival="73.00" arrivalLane="799091563#0_0" arrivalPos="89.89" arrivalSpeed="13.78" duration="61.00" routeLength="352.61" waitingTime="15.00" waitingCount="1" stopTime="0.00" timeLoss="39.05" rerouteNo="0" devices="tripinfo_flow_route_94_duration_20250327_2110.1" vType="car" speedFactor="1.12" vaporized=""/>
    <tripinfo id="flow_route_95_duration_20250327_2110.1" depart="11.00" departLane="1341093416#0_0" departPos="149.25" departSpeed="0.00" departDelay="1.00" arrival="74.00" arrivalLane="1254519225#0.109_0" arrivalPos="58.59" arrivalSpeed="16.26" duration="63.00" routeLength="291.71" waitingTime="23.00" waitingCount="1" stopTime="0.00" timeLoss="44.46" rerouteNo="0" devices="tripinfo_flow_route_95_duration_20250327_2110.1" vType="car" speedFactor="1.03" vaporized=""/>
    <tripinfo id="flow_route_95_duration_20250327_2110.0" depart="0.00" departLane="1341093416#0_0" departPos="1.65" departSpeed="0.00" departDelay="0.00" arrival="76.00" arrivalLane="1254519225#0.109_0" arrivalPos="44.45" arrivalSpeed="15.57" duration="76.00" routeLength="425.17" waitingTime="21.00" waitingCount="1" stopTime="0.00" timeLoss="48.29" rerouteNo="0" devices="tripinfo_flow_route_95_duration_20250327_2110.0" vType="car" speedFactor="0.94" vaporized=""/>
    <tripinfo id="flow_route_94_duration_20250327_2110.4" depart="48.00" departLane="1341093416#0_0" departPos="226.35" departSpeed="0.00" departDelay="0.00" arrival="78.00" arrivalLane="799091563#0_1" arrivalPos="160.71" arrivalSpeed="14.51" duration="30.00" routeLength="240.70" waitingTime="0.00" waitingCount="0" stopTime="0.00" timeLoss="14.28" rerouteNo="0" devices="tripinfo_flow_route_94_duration_20250327_2110.4" vType="car" speedFactor="0.90" vaporized=""/>
    <tripinfo id="flow_route_95_duration_20250327_2110.2" depart="20.00" departLane="1341093416#0_0" departPos="61.18" departSpeed="0.00" departDelay="0.00" arrival="79.00" arrivalLane="1254519225#0.109_0" arrivalPos="60.18" arrivalSpeed="16.19" duration="59.00" routeLength="381.37" waitingTime="11.00" waitingCount="1" stopTime="0.00" timeLoss="34.77" rerouteNo="0" devices="tripinfo_flow_route_95_duration_20250327_2110.2" vType="car" speedFactor="1.16" vaporized=""/>
    <tripinfo id="flow_route_94_duration_20250327_2110.2" depart="24.00" departLane="1341093416#0_0" departPos="183.19" departSpeed="0.00" departDelay="0.00" arrival="80.00" arrivalLane="799091563#0_1" arrivalPos="217.05" arrivalSpeed="16.60" duration="56.00" routeLength="340.21" waitingTime="14.00" waitingCount="1" stopTime="0.00" timeLoss="34.91" rerouteNo="0" devices="tripinfo_flow_route_94_duration_20250327_2110.2" vType="car" speedFactor="1.01" vaporized=""/>
    <tripinfo id="flow_route_95_duration_20250327_2110.5" depart="51.00" departLane="1341093416#0_0" departPos="240.06" departSpeed="0.00" departDelay="1.00" arrival="80.00" arrivalLane="1254519225#0.109_0" arrivalPos="60.94" arrivalSpeed="16.38" duration="29.00" routeLength="203.25" waitingTime="0.00" waitingCount="0" stopTime="0.00" timeLoss="15.81" rerouteNo="0" devices="tripinfo_flow_route_95_duration_20250327_2110.5" vType="car" speedFactor="1.04" vaporized=""/>
    <tripinfo id="flow_route_95_duration_20250327_2110.3" depart="31.00" departLane="1341093416#0_0" departPos="7.63" departSpeed="0.00" departDelay="1.00" arrival="81.00" arrivalLane="1254519225#0.109_0" arrivalPos="19.20" arrivalSpeed="14.90" duration="50.00" routeLength="393.94" waitingTime="0.00" waitingCount="0" stopTime="0.00" timeLoss="23.89" rerouteNo="0" devices="tripinfo_flow_route_95_duration_20250327_2110.3" vType="car" speedFactor="0.92" vaporized=""/>
    <tripinfo id="flow_route_112_duration_20250327_2110.3" depart="36.00" departLane="1253188486#8_0" departPos="139.14" departSpeed="0.00" departDelay="0.00" arrival="81.00" arrivalLane="799091563#0_0" arrivalPos="376.78" arrivalSpeed="16.27" duration="45.00" routeLength="492.35" waitingTime="0.00" waitingCount="0" stopTime="0.00" timeLoss="14.26" rerouteNo="0" devices="tripinfo_flow_route_112_duration_20250327_2110.3" vType="car" speedFactor="1.17" vaporized=""/>
    <tripinfo id="flow_route_95_duration_20250327_2110.4" depart="40.00" departLane="1341093416#0_0" departPos="21.94" departSpeed="0.00" departDelay="0.00" arrival="82.00" arrivalLane="1254519225#0.109_0" arrivalPos="11.27" arrivalSpeed="14.55" duration="42.00" routeLength="371.71" waitingTime="0.00" waitingCount="0" stopTime="0.00" timeLoss="18.66" rerouteNo="0" devices="tripinfo_flow_route_95_duration_20250327_2110.4" vType="car" speedFactor="1.02" vaporized=""/>
    <tripinfo id="flow_route_124_duration_20250327_2110.2" depart="10.00" departLane="189240000#0-AddedOnRampEdge_0" departPos="37.44" departSpeed="0.00" departDelay="0.00" arrival="86.00" arrivalLane="1254519225#0.109_3" arrivalPos="51.43" arrivalSpeed="15.59" duration="76.00" routeLength="259.02" waitingTime="33.00" waitingCount="2" stopTime="0.00" timeLoss="59.33" rerouteNo="0" devices="tripinfo_flow_route_124_duration_20250327_2110.2" vType="car" speedFactor="1.05" vaporized=""/>
    <tripinfo id="flow_route_124_duration_20250327_2110.1" depart="5.00" departLane="189240000#0-AddedOnRampEdge_0" departPos="4.36" departSpeed="0.00" departDelay="0.00" arrival="87.00" arrivalLane="1254519225#0.109_3" arrivalPos="42.65" arrivalSpeed="14.14" duration="82.00" routeLength="283.32" waitingTime="31.00" waitingCount="2" stopTime="0.00" timeLoss="60.90" rerouteNo="0" devices="tripinfo_flow_route_124_duration_20250327_2110.1" vType="car" speedFactor="0.86" vaporized=""/>
    <tripinfo id="flow_route_124_duration_20250327_2110.3" depart="15.00" departLane="189240000#0-AddedOnRampEdge_0" departPos="12.21" departSpeed="0.00" departDelay="0.00" arrival="88.00" arrivalLane="1254519225#0.109_3" arrivalPos="20.67" arrivalSpeed="15.03" duration="73.00" routeLength="253.49" waitingTime="29.00" waitingCount="2" stopTime="0.00" timeLoss="54.91" rerouteNo="0" devices="tripinfo_flow_route_124_duration_20250327_2110.3" vType="car" speedFactor="0.94" vaporized=""/>
    <tripinfo id="flow_route_111_duration_20250327_2110.6" depart="36.00" departLane="1253188486#8_0" departPos="21.10" departSpeed="0.00" departDelay="0.00" arrival="89.00" arrivalLane="1254519229#0_1" arrivalPos="14.24" arrivalSpeed="8.23" duration="53.00" routeLength="269.36" waitingTime="14.00" waitingCount="1" stopTime="0.00" timeLoss="36.61" rerouteNo="0" devices="tripinfo_flow_route_111_duration_20250327_2110.6" vType="car" speedFactor="1.01" vaporized=""/>
    <tripinfo id="flow_route_111_duration_20250327_2110.9" depart="54.00" departLane="1253188486#8_0" departPos="226.92" departSpeed="0.00" departDelay="0.00" arrival="92.00" arrivalLane="1254519229#0_0" arrivalPos="49.75" arrivalSpeed="10.83" duration="38.00" routeLength="99.05" waitingTime="16.00" waitingCount="1" stopTime="0.00" timeLoss="31.98" rerouteNo="0" devices="tripinfo_flow_route_111_duration_20250327_2110.9" vType="car" speedFactor="1.09" vaporized=""/>
    <tripinfo id="flow_route_124_duration_20250327_2110.5" depart="25.00" departLane="189240000#0-AddedOnRampEdge_0" departPos="90.63" departSpeed="0.00" departDelay="0.00" arrival="93.00" arrivalLane="1254519225#0.109_3" arrivalPos="58.34" arrivalSpeed="14.14" duration="68.00" routeLength="212.74" waitingTime="33.00" waitingCount="2" stopTime="0.00" timeLoss="51.28" rerouteNo="0" devices="tripinfo_flow_route_124_duration_20250327_2110.5" vType="car" speedFactor="0.87" vaporized=""/>
    <tripinfo id="flow_route_111_duration_20250327_2110.7" depart="42.00" departLane="1253188486#8_0" departPos="71.16" departSpeed="0.00" departDelay="0.00" arrival="93.00" arrivalLane="1254519229#0_1" arrivalPos="28.00" arrivalSpeed="10.30" duration="51.00" routeLength="233.06" waitingTime="9.00" waitingCount="1" stopTime="0.00" timeLoss="36.47" rerouteNo="0" devices="tripinfo_flow_route_111_duration_20250327_2110.7" vType="car" speedFactor="1.18" vaporized=""/>
    <tripinfo id="flow_route_111_duration_20250327_2110.8" depart="48.00" departLane="1253188486#8_0" departPos="143.53" departSpeed="0.00" departDelay="0.00" arrival="95.00" arrivalLane="1254519229#0_0" arrivalPos="48.94" arrivalSpeed="11.59" duration="47.00" routeLength="181.64" waitingTime="12.00" waitingCount="1" stopTime="0.00" timeLoss="35.50" rerouteNo="0" devices="tripinfo_flow_route_111_duration_20250327_2110.8" vType="car" speedFactor="1.03" vaporized=""/>
    <tripinfo id="flow_route_112_duration_20250327_2110.4" depart="48.00" departLane="1253188486#8_0" departPos="102.35" departSpeed="0.00" departDelay="0.00" arrival="98.00" arrivalLane="799091563#0_0" arrivalPos="148.00" arrivalSpeed="14.81" duration="50.00" routeLength="300.36" waitingTime="9.00" waitingCount="1" stopTime="0.00" timeLoss="30.17" rerouteNo="0" devices="tripinfo_flow_route_112_duration_20250327_2110.4" vType="car" speedFactor="0.96" vaporized=""/>
    <tripinfo id="flow_route_124_duration_20250327_2110.4" depart="20.00" departLane="189240000#0-AddedOnRampEdge_0" departPos="15.86" departSpeed="0.00" departDelay="0.00" arrival="128.00" arrivalLane="1254519225#0.109_3" arrivalPos="16.48" arrivalSpeed="15.11" duration="108.00" routeLength="245.65" waitingTime="52.00" waitingCount="5" stopTime="0.00" timeLoss="91.49" rerouteNo="0" devices="tripinfo_flow_route_124_duration_20250327_2110.4" vType="car" speedFactor="1.02" vaporized=""/>
    <tripinfo id="flow_route_124_duration_20250327_2110.6" depart="30.00" departLane="189240000#0-AddedOnRampEdge_0" departPos="14.33" departSpeed="0.00" departDelay="0.00" arrival="133.00" arrivalLane="1254519225#0.109_3" arrivalPos="10.51" arrivalSpeed="13.89" duration="103.00" routeLength="241.20" waitingTime="50.00" waitingCount="5" stopTime="0.00" timeLoss="85.66" rerouteNo="0" devices="tripinfo_flow_route_124_duration_20250327_2110.6" vType="car" speedFactor="0.93" vaporized=""/>
    <tripinfo id="flow_route_124_duration_20250327_2110.7" depart="35.00" departLane="189240000#0-AddedOnRampEdge_0" departPos="87.62" departSpeed="0.00" departDelay="0.00" arrival="133.00" arrivalLane="1254519225#0.109_3" arrivalPos="34.11" arrivalSpeed="14.94" duration="98.00" routeLength="191.52" waitingTime="55.00" waitingCount="4" stopTime="0.00" timeLoss="85.21" rerouteNo="0" devices="tripinfo_flow_route_124_duration_20250327_2110.7" vType="car" speedFactor="1.18" vaporized=""/>
    <tripinfo id="flow_route_124_duration_20250327_2110.8" depart="40.00" departLane="189240000#0-AddedOnRampEdge_0" departPos="68.15" departSpeed="0.00" departDelay="0.00" arrival="135.00" arrivalLane="1254519225#0.109_3" arrivalPos="2.92" arrivalSpeed="14.17" duration="95.00" routeLength="179.80" waitingTime="47.00" waitingCount="4" stopTime="0.00" timeLoss="82.27" rerouteNo="0" devices="tripinfo_flow_route_124_duration_20250327_2110.8" vType="car" speedFactor="0.97" vaporized=""/>
    <tripinfo id="flow_route_124_duration_20250327_2110.9" depart="45.00" departLane="189240000#0-AddedOnRampEdge_0" departPos="64.07" departSpeed="0.00" departDelay="0.00" arrival="137.00" arrivalLane="1254519225#0.109_3" arrivalPos="13.25" arrivalSpeed="14.57" duration="92.00" routeLength="194.21" waitingTime="39.00" waitingCount="4" stopTime="0.00" timeLoss="79.46" rerouteNo="0" devices="tripinfo_flow_route_124_duration_20250327_2110.9" vType="car" speedFactor="1.10" vaporized=""/>
    <tripinfo id="flow_route_124_duration_20250327_2110.10" depart="50.00" departLane="189240000#0-AddedOnRampEdge_0" departPos="9.89" departSpeed="0.00" departDelay="0.00" arrival="141.00" arrivalLane="1254519225#0.109_3" arrivalPos="1.49" arrivalSpeed="14.33" duration="91.00" routeLength="236.63" waitingTime="26.00" waitingCount="2" stopTime="0.00" timeLoss="75.73" rerouteNo="0" devices="tripinfo_flow_route_124_duration_20250327_2110.10" vType="car" speedFactor="1.04" vaporized=""/>
    <tripinfo id="flow_route_124_duration_20250327_2110.11" depart="55.00" departLane="189240000#0-AddedOnRampEdge_0" departPos="40.13" departSpeed="0.00" departDelay="0.00" arrival="142.00" arrivalLane="1254519225#0.109_3" arrivalPos="30.74" arrivalSpeed="15.64" duration="87.00" routeLength="235.63" waitingTime="28.00" waitingCount="3" stopTime="0.00" timeLoss="70.93" rerouteNo="0" devices="tripinfo_flow_route_124_duration_20250327_2110.11" vType="car" speedFactor="1.00" vaporized=""/>
</tripinfos>
