<?xml version="1.0" encoding="UTF-8"?>

<!-- generated on 2025-05-06 21:08:31 by Eclipse SUMO sumo Version 1.20.0
<configuration xmlns:xsi="http://www.w3.org/2001/XMLSchema-instance" xsi:noNamespaceSchemaLocation="http://sumo.dlr.de/xsd/sumoConfiguration.xsd">

    <input>
        <net-file value="osm.net.xml"/>
        <route-files value="xml/route_rl_GS_cluster_4854142864_4854142865_5.rou.xml"/>
    </input>

    <output>
        <tripinfo-output value="xml/tripinfo_rl_GS_cluster_4854142864_4854142865_5.xml"/>
    </output>

    <traci_server>
        <remote-port value="44891"/>
    </traci_server>

</configuration>
-->

<tripinfos xmlns:xsi="http://www.w3.org/2001/XMLSchema-instance" xsi:noNamespaceSchemaLocation="http://sumo.dlr.de/xsd/tripinfo_file.xsd">
    <tripinfo id="flow_route_38_duration_20250327_1910.1" depart="5.00" departLane="133126030#0_0" departPos="173.99" departSpeed="0.00" departDelay="0.72" arrival="24.00" arrivalLane="134193294#0_0" arrivalPos="117.27" arrivalSpeed="13.72" duration="19.00" routeLength="138.15" waitingTime="0.00" waitingCount="0" stopTime="0.00" timeLoss="8.22" rerouteNo="0" devices="tripinfo_flow_route_38_duration_20250327_1910.1" vType="car" speedFactor="0.86" vaporized=""/>
    <tripinfo id="flow_route_39_duration_20250327_1910.0" depart="0.00" departLane="133126030#0_0" departPos="101.03" departSpeed="0.00" departDelay="0.00" arrival="29.00" arrivalLane="1328664748#0_0" arrivalPos="158.52" arrivalSpeed="15.14" duration="29.00" routeLength="263.70" waitingTime="0.00" waitingCount="0" stopTime="0.00" timeLoss="11.60" rerouteNo="0" devices="tripinfo_flow_route_39_duration_20250327_1910.0" vType="car" speedFactor="0.94" vaporized=""/>
    <tripinfo id="flow_route_38_duration_20250327_1910.3" depart="15.00" departLane="133126030#0_0" departPos="171.97" departSpeed="0.00" departDelay="2.15" arrival="35.00" arrivalLane="134193294#0_0" arrivalPos="122.75" arrivalSpeed="14.42" duration="20.00" routeLength="145.66" waitingTime="0.00" waitingCount="0" stopTime="0.00" timeLoss="8.78" rerouteNo="0" devices="tripinfo_flow_route_38_duration_20250327_1910.3" vType="car" speedFactor="0.89" vaporized=""/>
    <tripinfo id="flow_route_38_duration_20250327_1910.0" depart="0.00" departLane="133126030#0_0" departPos="45.86" departSpeed="0.00" departDelay="0.00" arrival="39.00" arrivalLane="134193294#0_0" arrivalPos="152.84" arrivalSpeed="16.47" duration="39.00" routeLength="301.86" waitingTime="0.00" waitingCount="0" stopTime="0.00" timeLoss="19.42" rerouteNo="0" devices="tripinfo_flow_route_38_duration_20250327_1910.0" vType="car" speedFactor="1.06" vaporized=""/>
    <tripinfo id="flow_route_38_duration_20250327_1910.2" depart="9.00" departLane="133126030#0_0" departPos="23.23" departSpeed="0.00" departDelay="0.43" arrival="39.00" arrivalLane="134193294#0_0" arrivalPos="56.83" arrivalSpeed="11.26" duration="30.00" routeLength="228.48" waitingTime="0.00" waitingCount="0" stopTime="0.00" timeLoss="13.37" rerouteNo="0" devices="tripinfo_flow_route_38_duration_20250327_1910.2" vType="car" speedFactor="0.88" vaporized=""/>
    <tripinfo id="flow_route_43_duration_20250327_1910.1" depart="6.00" departLane="1328664744#0_0" departPos="87.98" departSpeed="0.00" departDelay="1.39" arrival="44.00" arrivalLane="134193294#0_3" arrivalPos="7.92" arrivalSpeed="6.17" duration="38.00" routeLength="160.01" waitingTime="8.00" waitingCount="1" stopTime="0.00" timeLoss="27.41" rerouteNo="0" devices="tripinfo_flow_route_43_duration_20250327_1910.1" vType="car" speedFactor="1.09" vaporized=""/>
    <tripinfo id="flow_route_43_duration_20250327_1910.0" depart="0.00" departLane="1328664744#0_0" departPos="1.34" departSpeed="0.00" departDelay="0.00" arrival="54.00" arrivalLane="134193294#0_3" arrivalPos="84.30" arrivalSpeed="12.38" duration="54.00" routeLength="323.03" waitingTime="8.00" waitingCount="1" stopTime="0.00" timeLoss="33.70" rerouteNo="0" devices="tripinfo_flow_route_43_duration_20250327_1910.0" vType="car" speedFactor="1.08" vaporized=""/>
    <tripinfo id="flow_route_43_duration_20250327_1910.5" depart="24.00" departLane="1328664744#0_0" departPos="109.30" departSpeed="0.00" departDelay="0.93" arrival="54.00" arrivalLane="134193294#0_3" arrivalPos="17.96" arrivalSpeed="9.38" duration="30.00" routeLength="148.73" waitingTime="0.00" waitingCount="0" stopTime="0.00" timeLoss="20.33" rerouteNo="0" devices="tripinfo_flow_route_43_duration_20250327_1910.5" vType="car" speedFactor="1.03" vaporized=""/>
    <tripinfo id="flow_route_43_duration_20250327_1910.4" depart="19.00" departLane="1328664744#0_0" departPos="64.34" departSpeed="0.00" departDelay="0.54" arrival="57.00" arrivalLane="134193294#0_3" arrivalPos="8.04" arrivalSpeed="7.79" duration="38.00" routeLength="183.76" waitingTime="0.00" waitingCount="0" stopTime="0.00" timeLoss="25.72" rerouteNo="0" devices="tripinfo_flow_route_43_duration_20250327_1910.4" vType="car" speedFactor="1.01" vaporized=""/>
    <tripinfo id="flow_route_43_duration_20250327_1910.2" depart="10.00" departLane="1328664744#0_0" departPos="37.26" departSpeed="0.00" departDelay="0.77" arrival="62.00" arrivalLane="134193294#0_3" arrivalPos="165.46" arrivalSpeed="15.56" duration="52.00" routeLength="368.27" waitingTime="4.00" waitingCount="1" stopTime="0.00" timeLoss="26.63" rerouteNo="0" devices="tripinfo_flow_route_43_duration_20250327_1910.2" vType="car" speedFactor="0.94" vaporized=""/>
    <tripinfo id="flow_route_43_duration_20250327_1910.3" depart="14.00" departLane="1328664744#0_0" departPos="33.68" departSpeed="0.00" departDelay="0.16" arrival="64.00" arrivalLane="134193294#0_3" arrivalPos="164.67" arrivalSpeed="14.19" duration="50.00" routeLength="371.05" waitingTime="2.00" waitingCount="1" stopTime="0.00" timeLoss="23.36" rerouteNo="0" devices="tripinfo_flow_route_43_duration_20250327_1910.3" vType="car" speedFactor="0.87" vaporized=""/>
    <tripinfo id="flow_route_43_duration_20250327_1910.11" depart="51.00" departLane="1328664744#0_0" departPos="208.70" departSpeed="0.00" departDelay="0.24" arrival="73.00" arrivalLane="134193294#0_3" arrivalPos="145.94" arrivalSpeed="16.30" duration="22.00" routeLength="177.32" waitingTime="0.00" waitingCount="0" stopTime="0.00" timeLoss="10.20" rerouteNo="0" devices="tripinfo_flow_route_43_duration_20250327_1910.11" vType="car" speedFactor="1.15" vaporized=""/>
    <tripinfo id="flow_route_43_duration_20250327_1910.9" depart="42.00" departLane="1328664744#0_0" departPos="181.77" departSpeed="0.00" departDelay="0.47" arrival="74.00" arrivalLane="134193294#0_3" arrivalPos="70.65" arrivalSpeed="11.59" duration="32.00" routeLength="128.95" waitingTime="4.00" waitingCount="2" stopTime="0.00" timeLoss="22.64" rerouteNo="0" devices="tripinfo_flow_route_43_duration_20250327_1910.9" vType="car" speedFactor="1.02" vaporized=""/>
    <tripinfo id="flow_route_43_duration_20250327_1910.8" depart="37.00" departLane="1328664744#0_0" departPos="107.08" departSpeed="0.00" departDelay="0.08" arrival="79.00" arrivalLane="134193294#0_3" arrivalPos="94.22" arrivalSpeed="13.51" duration="42.00" routeLength="227.20" waitingTime="0.00" waitingCount="0" stopTime="0.00" timeLoss="27.61" rerouteNo="0" devices="tripinfo_flow_route_43_duration_20250327_1910.8" vType="car" speedFactor="1.12" vaporized=""/>
    <tripinfo id="flow_route_43_duration_20250327_1910.10" depart="47.00" departLane="1328664744#0_0" departPos="177.87" departSpeed="0.00" departDelay="0.85" arrival="80.00" arrivalLane="134193294#0_3" arrivalPos="124.05" arrivalSpeed="15.00" duration="33.00" routeLength="186.25" waitingTime="1.00" waitingCount="1" stopTime="0.00" timeLoss="19.99" rerouteNo="0" devices="tripinfo_flow_route_43_duration_20250327_1910.10" vType="car" speedFactor="0.98" vaporized=""/>
    <tripinfo id="flow_route_45_duration_20250327_1910.5" depart="14.00" departLane="791826085_0" departPos="311.42" departSpeed="0.00" departDelay="2.47" arrival="83.00" arrivalLane="485211947#0_0" arrivalPos="16.49" arrivalSpeed="7.25" duration="69.00" routeLength="40.83" waitingTime="54.00" waitingCount="1" stopTime="0.00" timeLoss="65.24" rerouteNo="0" devices="tripinfo_flow_route_45_duration_20250327_1910.5" vType="car" speedFactor="0.97" vaporized=""/>
    <tripinfo id="flow_route_45_duration_20250327_1910.3" depart="8.00" departLane="791826085_0" departPos="223.42" departSpeed="0.00" departDelay="1.08" arrival="84.00" arrivalLane="485211947#0_0" arrivalPos="6.01" arrivalSpeed="6.60" duration="76.00" routeLength="118.34" waitingTime="50.00" waitingCount="1" stopTime="0.00" timeLoss="67.72" rerouteNo="0" devices="tripinfo_flow_route_45_duration_20250327_1910.3" vType="car" speedFactor="0.93" vaporized=""/>
    <tripinfo id="flow_route_44_duration_20250327_1910.1" depart="3.00" departLane="791826085_0" departPos="285.55" departSpeed="0.00" departDelay="0.86" arrival="86.00" arrivalLane="134193294#0_0" arrivalPos="45.37" arrivalSpeed="11.03" duration="83.00" routeLength="114.19" waitingTime="57.00" waitingCount="1" stopTime="0.00" timeLoss="74.74" rerouteNo="0" devices="tripinfo_flow_route_44_duration_20250327_1910.1" vType="car" speedFactor="0.89" vaporized=""/>
    <tripinfo id="flow_route_45_duration_20250327_1910.0" depart="0.00" departLane="791826085_0" departPos="152.03" departSpeed="0.00" departDelay="0.00" arrival="87.00" arrivalLane="485211947#0_0" arrivalPos="8.08" arrivalSpeed="6.17" duration="87.00" routeLength="191.81" waitingTime="50.00" waitingCount="1" stopTime="0.00" timeLoss="71.90" rerouteNo="0" devices="tripinfo_flow_route_45_duration_20250327_1910.0" vType="car" speedFactor="0.83" vaporized=""/>
    <tripinfo id="flow_route_44_duration_20250327_1910.4" depart="9.00" departLane="791826085_0" departPos="134.15" departSpeed="0.00" departDelay="0.43" arrival="88.00" arrivalLane="134193294#0_1" arrivalPos="22.19" arrivalSpeed="10.30" duration="79.00" routeLength="242.41" waitingTime="36.00" waitingCount="1" stopTime="0.00" timeLoss="63.29" rerouteNo="0" devices="tripinfo_flow_route_44_duration_20250327_1910.4" vType="car" speedFactor="0.94" vaporized=""/>
    <tripinfo id="flow_route_44_duration_20250327_1910.0" depart="0.00" departLane="791826085_0" departPos="219.49" departSpeed="0.00" departDelay="0.00" arrival="91.00" arrivalLane="134193294#0_0" arrivalPos="101.20" arrivalSpeed="15.17" duration="91.00" routeLength="236.08" waitingTime="54.00" waitingCount="1" stopTime="0.00" timeLoss="75.92" rerouteNo="0" devices="tripinfo_flow_route_44_duration_20250327_1910.0" vType="car" speedFactor="1.03" vaporized=""/>
    <tripinfo id="flow_route_46_duration_20250327_1910.1" depart="8.00" departLane="791826085_0" departPos="311.97" departSpeed="0.00" departDelay="3.00" arrival="93.00" arrivalLane="1328664748#0_1" arrivalPos="140.94" arrivalSpeed="16.06" duration="85.00" routeLength="177.76" waitingTime="57.00" waitingCount="1" stopTime="0.00" timeLoss="72.91" rerouteNo="0" devices="tripinfo_flow_route_46_duration_20250327_1910.1" vType="car" speedFactor="1.12" vaporized=""/>
    <tripinfo id="flow_route_44_duration_20250327_1910.7" depart="18.00" departLane="791826085_0" departPos="184.96" departSpeed="0.00" departDelay="3.01" arrival="93.00" arrivalLane="134193294#0_1" arrivalPos="47.83" arrivalSpeed="11.99" duration="75.00" routeLength="217.24" waitingTime="34.00" waitingCount="1" stopTime="0.00" timeLoss="60.67" rerouteNo="0" devices="tripinfo_flow_route_44_duration_20250327_1910.7" vType="car" speedFactor="0.95" vaporized=""/>
    <tripinfo id="flow_route_44_duration_20250327_1910.9" depart="25.00" departLane="791826085_0" departPos="284.98" departSpeed="0.00" departDelay="5.72" arrival="93.00" arrivalLane="134193294#0_1" arrivalPos="116.42" arrivalSpeed="15.20" duration="68.00" routeLength="185.81" waitingTime="37.00" waitingCount="1" stopTime="0.00" timeLoss="56.61" rerouteNo="0" devices="tripinfo_flow_route_44_duration_20250327_1910.9" vType="car" speedFactor="1.02" vaporized=""/>
    <tripinfo id="flow_route_44_duration_20250327_1910.3" depart="8.00" departLane="791826085_0" departPos="9.73" departSpeed="0.00" departDelay="1.57" arrival="94.00" arrivalLane="134193294#0_1" arrivalPos="40.61" arrivalSpeed="12.49" duration="86.00" routeLength="385.25" waitingTime="34.00" waitingCount="1" stopTime="0.00" timeLoss="62.27" rerouteNo="0" devices="tripinfo_flow_route_44_duration_20250327_1910.3" vType="car" speedFactor="0.99" vaporized=""/>
    <tripinfo id="flow_route_46_duration_20250327_1910.2" depart="14.00" departLane="791826085_0" departPos="189.18" departSpeed="0.00" departDelay="4.00" arrival="94.00" arrivalLane="1328664748#0_1" arrivalPos="49.64" arrivalSpeed="12.16" duration="80.00" routeLength="209.26" waitingTime="34.00" waitingCount="1" stopTime="0.00" timeLoss="66.39" rerouteNo="0" devices="tripinfo_flow_route_46_duration_20250327_1910.2" vType="car" speedFactor="1.02" vaporized=""/>
    <tripinfo id="flow_route_44_duration_20250327_1910.8" depart="25.00" departLane="791826085_0" departPos="231.80" departSpeed="0.00" departDelay="7.86" arrival="94.00" arrivalLane="134193294#0_0" arrivalPos="14.76" arrivalSpeed="11.21" duration="69.00" routeLength="137.33" waitingTime="37.00" waitingCount="1" stopTime="0.00" timeLoss="60.16" rerouteNo="0" devices="tripinfo_flow_route_44_duration_20250327_1910.8" vType="car" speedFactor="1.15" vaporized=""/>
    <tripinfo id="flow_route_46_duration_20250327_1910.0" depart="1.00" departLane="791826085_0" departPos="184.68" departSpeed="0.00" departDelay="1.00" arrival="96.00" arrivalLane="1328664748#0_1" arrivalPos="165.37" arrivalSpeed="16.49" duration="95.00" routeLength="329.48" waitingTime="52.00" waitingCount="1" stopTime="0.00" timeLoss="74.28" rerouteNo="0" devices="tripinfo_flow_route_46_duration_20250327_1910.0" vType="car" speedFactor="1.05" vaporized=""/>
    <tripinfo id="flow_route_44_duration_20250327_1910.5" depart="14.00" departLane="791826085_0" departPos="54.92" departSpeed="0.00" departDelay="3.29" arrival="96.00" arrivalLane="134193294#0_1" arrivalPos="41.41" arrivalSpeed="12.03" duration="82.00" routeLength="340.86" waitingTime="34.00" waitingCount="1" stopTime="0.00" timeLoss="61.47" rerouteNo="0" devices="tripinfo_flow_route_44_duration_20250327_1910.5" vType="car" speedFactor="1.01" vaporized=""/>
    <tripinfo id="flow_route_46_duration_20250327_1910.3" depart="19.00" departLane="791826085_0" departPos="235.43" departSpeed="0.00" departDelay="4.00" arrival="96.00" arrivalLane="1328664748#0_1" arrivalPos="121.65" arrivalSpeed="15.98" duration="77.00" routeLength="235.02" waitingTime="40.00" waitingCount="1" stopTime="0.00" timeLoss="61.52" rerouteNo="0" devices="tripinfo_flow_route_46_duration_20250327_1910.3" vType="car" speedFactor="1.13" vaporized=""/>
    <tripinfo id="flow_route_44_duration_20250327_1910.10" depart="32.00" departLane="791826085_0" departPos="275.74" departSpeed="0.00" departDelay="10.58" arrival="96.00" arrivalLane="134193294#0_0" arrivalPos="62.64" arrivalSpeed="13.05" duration="64.00" routeLength="141.27" waitingTime="37.00" waitingCount="1" stopTime="0.00" timeLoss="54.11" rerouteNo="0" devices="tripinfo_flow_route_44_duration_20250327_1910.10" vType="car" speedFactor="0.90" vaporized=""/>
    <tripinfo id="flow_route_44_duration_20250327_1910.6" depart="14.00" departLane="791826085_0" departPos="209.26" departSpeed="0.00" departDelay="1.15" arrival="97.00" arrivalLane="134193294#0_2" arrivalPos="102.28" arrivalSpeed="13.53" duration="83.00" routeLength="247.39" waitingTime="37.00" waitingCount="2" stopTime="0.00" timeLoss="64.18" rerouteNo="0" devices="tripinfo_flow_route_44_duration_20250327_1910.6" vType="car" speedFactor="0.83" vaporized=""/>
    <tripinfo id="flow_route_45_duration_20250327_1910.1" depart="3.00" departLane="791826085_0" departPos="105.00" departSpeed="0.00" departDelay="0.69" arrival="99.00" arrivalLane="485211947#0_0" arrivalPos="11.17" arrivalSpeed="7.32" duration="96.00" routeLength="241.92" waitingTime="35.00" waitingCount="1" stopTime="0.00" timeLoss="79.71" rerouteNo="0" devices="tripinfo_flow_route_45_duration_20250327_1910.1" vType="car" speedFactor="0.94" vaporized=""/>
    <tripinfo id="flow_route_44_duration_20250327_1910.2" depart="7.00" departLane="791826085_0" departPos="98.41" departSpeed="0.00" departDelay="2.72" arrival="99.00" arrivalLane="134193294#0_2" arrivalPos="87.99" arrivalSpeed="15.85" duration="92.00" routeLength="343.95" waitingTime="33.00" waitingCount="1" stopTime="0.00" timeLoss="70.94" rerouteNo="0" devices="tripinfo_flow_route_44_duration_20250327_1910.2" vType="car" speedFactor="1.03" vaporized=""/>
    <tripinfo id="flow_route_45_duration_20250327_1910.4" depart="14.00" departLane="791826085_0" departPos="160.64" departSpeed="0.00" departDelay="4.77" arrival="101.00" arrivalLane="485211947#0_0" arrivalPos="48.93" arrivalSpeed="10.60" duration="87.00" routeLength="224.05" waitingTime="35.00" waitingCount="1" stopTime="0.00" timeLoss="72.13" rerouteNo="0" devices="tripinfo_flow_route_45_duration_20250327_1910.4" vType="car" speedFactor="1.16" vaporized=""/>
    <tripinfo id="flow_route_46_duration_20250327_1910.4" depart="27.00" departLane="791826085_0" departPos="33.11" departSpeed="0.00" departDelay="7.00" arrival="101.00" arrivalLane="1328664748#0_1" arrivalPos="94.16" arrivalSpeed="15.33" duration="74.00" routeLength="409.84" waitingTime="23.00" waitingCount="1" stopTime="0.00" timeLoss="47.85" rerouteNo="0" devices="tripinfo_flow_route_46_duration_20250327_1910.4" vType="car" speedFactor="0.97" vaporized=""/>
    <tripinfo id="flow_route_46_duration_20250327_1910.5" depart="44.00" departLane="791826085_0" departPos="150.96" departSpeed="0.00" departDelay="19.00" arrival="103.00" arrivalLane="1328664748#0_1" arrivalPos="94.58" arrivalSpeed="15.60" duration="59.00" routeLength="292.41" waitingTime="14.00" waitingCount="1" stopTime="0.00" timeLoss="40.59" rerouteNo="0" devices="tripinfo_flow_route_46_duration_20250327_1910.5" vType="car" speedFactor="1.04" vaporized=""/>
    <tripinfo id="flow_route_45_duration_20250327_1910.8" depart="25.00" departLane="791826085_0" departPos="148.64" departSpeed="0.00" departDelay="6.54" arrival="104.00" arrivalLane="485211947#0_0" arrivalPos="14.82" arrivalSpeed="8.45" duration="79.00" routeLength="201.94" waitingTime="34.00" waitingCount="1" stopTime="0.00" timeLoss="65.53" rerouteNo="0" devices="tripinfo_flow_route_45_duration_20250327_1910.8" vType="car" speedFactor="1.17" vaporized=""/>
    <tripinfo id="flow_route_44_duration_20250327_1910.17" depart="60.00" departLane="791826085_0" departPos="72.38" departSpeed="0.00" departDelay="23.59" arrival="104.00" arrivalLane="134193294#0_1" arrivalPos="2.51" arrivalSpeed="12.76" duration="44.00" routeLength="284.50" waitingTime="0.00" waitingCount="0" stopTime="0.00" timeLoss="26.48" rerouteNo="0" devices="tripinfo_flow_route_44_duration_20250327_1910.17" vType="car" speedFactor="1.02" vaporized=""/>
    <tripinfo id="flow_route_44_duration_20250327_1910.15" depart="53.00" departLane="791826085_0" departPos="11.29" departSpeed="0.00" departDelay="20.87" arrival="105.00" arrivalLane="134193294#0_1" arrivalPos="59.11" arrivalSpeed="14.60" duration="52.00" routeLength="402.18" waitingTime="0.00" waitingCount="0" stopTime="0.00" timeLoss="27.07" rerouteNo="0" devices="tripinfo_flow_route_44_duration_20250327_1910.15" vType="car" speedFactor="1.00" vaporized=""/>
    <tripinfo id="flow_route_45_duration_20250327_1910.2" depart="8.00" departLane="791826085_0" departPos="51.89" departSpeed="0.00" departDelay="3.39" arrival="106.00" arrivalLane="485211947#0_0" arrivalPos="56.90" arrivalSpeed="11.35" duration="98.00" routeLength="340.77" waitingTime="34.00" waitingCount="1" stopTime="0.00" timeLoss="76.14" rerouteNo="0" devices="tripinfo_flow_route_45_duration_20250327_1910.2" vType="car" speedFactor="1.05" vaporized=""/>
    <tripinfo id="flow_route_44_duration_20250327_1910.11" depart="33.00" departLane="791826085_0" departPos="140.52" departSpeed="0.00" departDelay="9.44" arrival="106.00" arrivalLane="134193294#0_1" arrivalPos="150.19" arrivalSpeed="15.48" duration="73.00" routeLength="364.04" waitingTime="23.00" waitingCount="1" stopTime="0.00" timeLoss="49.29" rerouteNo="0" devices="tripinfo_flow_route_44_duration_20250327_1910.11" vType="car" speedFactor="0.96" vaporized=""/>
    <tripinfo id="flow_route_44_duration_20250327_1910.12" depart="48.00" departLane="791826085_0" departPos="42.23" departSpeed="0.00" departDelay="22.30" arrival="106.00" arrivalLane="134193294#0_2" arrivalPos="50.83" arrivalSpeed="14.25" duration="58.00" routeLength="362.97" waitingTime="7.00" waitingCount="1" stopTime="0.00" timeLoss="35.90" rerouteNo="0" devices="tripinfo_flow_route_44_duration_20250327_1910.12" vType="car" speedFactor="1.09" vaporized=""/>
    <tripinfo id="flow_route_46_duration_20250327_1910.6" depart="53.00" departLane="791826085_0" departPos="185.76" departSpeed="0.00" departDelay="23.00" arrival="106.00" arrivalLane="1328664748#0_1" arrivalPos="106.80" arrivalSpeed="16.37" duration="53.00" routeLength="269.83" waitingTime="11.00" waitingCount="1" stopTime="0.00" timeLoss="35.30" rerouteNo="0" devices="tripinfo_flow_route_46_duration_20250327_1910.6" vType="car" speedFactor="1.10" vaporized=""/>
    <tripinfo id="flow_route_44_duration_20250327_1910.13" depart="50.00" departLane="791826085_0" departPos="104.63" departSpeed="0.00" departDelay="22.15" arrival="107.00" arrivalLane="134193294#0_1" arrivalPos="133.97" arrivalSpeed="14.35" duration="57.00" routeLength="383.71" waitingTime="5.00" waitingCount="1" stopTime="0.00" timeLoss="29.88" rerouteNo="0" devices="tripinfo_flow_route_44_duration_20250327_1910.13" vType="car" speedFactor="0.88" vaporized=""/>
    <tripinfo id="flow_route_45_duration_20250327_1910.7" depart="20.00" departLane="791826085_0" departPos="200.61" departSpeed="0.00" departDelay="3.85" arrival="109.00" arrivalLane="485211947#0_0" arrivalPos="183.86" arrivalSpeed="15.08" duration="89.00" routeLength="319.01" waitingTime="36.00" waitingCount="1" stopTime="0.00" timeLoss="67.00" rerouteNo="0" devices="tripinfo_flow_route_45_duration_20250327_1910.7" vType="car" speedFactor="0.93" vaporized=""/>
    <tripinfo id="flow_route_44_duration_20250327_1910.14" depart="53.00" departLane="791826085_0" departPos="131.53" departSpeed="0.00" departDelay="23.01" arrival="109.00" arrivalLane="134193294#0_1" arrivalPos="151.30" arrivalSpeed="15.75" duration="56.00" routeLength="374.13" waitingTime="3.00" waitingCount="1" stopTime="0.00" timeLoss="33.26" rerouteNo="0" devices="tripinfo_flow_route_44_duration_20250327_1910.14" vType="car" speedFactor="1.17" vaporized=""/>
    <tripinfo id="flow_route_44_duration_20250327_1910.16" depart="54.00" departLane="791826085_0" departPos="2.39" departSpeed="0.00" departDelay="19.73" arrival="109.00" arrivalLane="134193294#0_1" arrivalPos="98.35" arrivalSpeed="16.48" duration="55.00" routeLength="450.33" waitingTime="0.00" waitingCount="0" stopTime="0.00" timeLoss="27.31" rerouteNo="0" devices="tripinfo_flow_route_44_duration_20250327_1910.16" vType="car" speedFactor="1.02" vaporized=""/>
    <tripinfo id="flow_route_44_duration_20250327_1910.18" depart="65.00" departLane="791826085_0" departPos="98.61" departSpeed="0.00" departDelay="26.44" arrival="110.00" arrivalLane="134193294#0_1" arrivalPos="59.32" arrivalSpeed="14.37" duration="45.00" routeLength="315.09" waitingTime="0.00" waitingCount="0" stopTime="0.00" timeLoss="23.40" rerouteNo="0" devices="tripinfo_flow_route_44_duration_20250327_1910.18" vType="car" speedFactor="0.88" vaporized=""/>
    <tripinfo id="flow_route_44_duration_20250327_1910.19" depart="69.00" departLane="791826085_0" departPos="69.04" departSpeed="0.00" departDelay="28.30" arrival="110.00" arrivalLane="134193294#0_2" arrivalPos="83.44" arrivalSpeed="16.48" duration="41.00" routeLength="368.77" waitingTime="0.00" waitingCount="0" stopTime="0.00" timeLoss="18.24" rerouteNo="0" devices="tripinfo_flow_route_44_duration_20250327_1910.19" vType="car" speedFactor="1.02" vaporized=""/>
    <tripinfo id="flow_route_44_duration_20250327_1910.21" depart="83.00" departLane="791826085_0" departPos="125.54" departSpeed="0.00" departDelay="38.02" arrival="110.00" arrivalLane="134193294#0_1" arrivalPos="35.60" arrivalSpeed="15.89" duration="27.00" routeLength="264.42" waitingTime="0.00" waitingCount="0" stopTime="0.00" timeLoss="10.88" rerouteNo="0" devices="tripinfo_flow_route_44_duration_20250327_1910.21" vType="car" speedFactor="0.98" vaporized=""/>
    <tripinfo id="flow_route_45_duration_20250327_1910.6" depart="14.00" departLane="791826085_0" departPos="9.08" departSpeed="0.00" departDelay="0.16" arrival="111.00" arrivalLane="485211947#0_0" arrivalPos="57.03" arrivalSpeed="10.23" duration="97.00" routeLength="383.71" waitingTime="34.00" waitingCount="1" stopTime="0.00" timeLoss="71.11" rerouteNo="0" devices="tripinfo_flow_route_45_duration_20250327_1910.6" vType="car" speedFactor="0.92" vaporized=""/>
    <tripinfo id="flow_route_46_duration_20250327_1910.7" depart="58.00" departLane="791826085_0" departPos="177.97" departSpeed="0.00" departDelay="23.00" arrival="113.00" arrivalLane="1328664748#0_1" arrivalPos="190.58" arrivalSpeed="16.41" duration="55.00" routeLength="361.40" waitingTime="7.00" waitingCount="1" stopTime="0.00" timeLoss="32.06" rerouteNo="0" devices="tripinfo_flow_route_46_duration_20250327_1910.7" vType="car" speedFactor="1.08" vaporized=""/>
    <tripinfo id="flow_route_46_duration_20250327_1910.8" depart="69.00" departLane="791826085_0" departPos="4.34" departSpeed="0.00" departDelay="29.00" arrival="116.00" arrivalLane="1328664748#0_1" arrivalPos="146.54" arrivalSpeed="16.40" duration="47.00" routeLength="490.99" waitingTime="0.00" waitingCount="0" stopTime="0.00" timeLoss="15.87" rerouteNo="0" devices="tripinfo_flow_route_46_duration_20250327_1910.8" vType="car" speedFactor="1.04" vaporized=""/>
    <tripinfo id="flow_route_45_duration_20250327_1910.10" depart="34.00" departLane="791826085_0" departPos="123.75" departSpeed="0.00" departDelay="10.93" arrival="118.00" arrivalLane="485211947#0_0" arrivalPos="115.85" arrivalSpeed="14.53" duration="84.00" routeLength="327.86" waitingTime="34.00" waitingCount="1" stopTime="0.00" timeLoss="63.06" rerouteNo="0" devices="tripinfo_flow_route_45_duration_20250327_1910.10" vType="car" speedFactor="1.09" vaporized=""/>
    <tripinfo id="flow_route_44_duration_20250327_1910.20" depart="73.00" departLane="791826085_0" departPos="65.86" departSpeed="0.00" departDelay="30.16" arrival="119.00" arrivalLane="134193294#0_2" arrivalPos="170.98" arrivalSpeed="16.29" duration="46.00" routeLength="459.49" waitingTime="0.00" waitingCount="0" stopTime="0.00" timeLoss="17.72" rerouteNo="0" devices="tripinfo_flow_route_44_duration_20250327_1910.20" vType="car" speedFactor="1.06" vaporized=""/>
    <tripinfo id="flow_route_45_duration_20250327_1910.9" depart="30.00" departLane="791826085_0" departPos="13.89" departSpeed="0.00" departDelay="9.24" arrival="122.00" arrivalLane="485211947#0_0" arrivalPos="152.96" arrivalSpeed="16.37" duration="92.00" routeLength="474.83" waitingTime="30.00" waitingCount="1" stopTime="0.00" timeLoss="61.69" rerouteNo="0" devices="tripinfo_flow_route_45_duration_20250327_1910.9" vType="car" speedFactor="1.18" vaporized=""/>
    <tripinfo id="flow_route_38_duration_20250327_1910.7" depart="30.00" departLane="133126030#0_0" departPos="125.13" departSpeed="0.00" departDelay="0.01" arrival="126.00" arrivalLane="134193294#0_0" arrivalPos="24.21" arrivalSpeed="8.45" duration="96.00" routeLength="93.96" waitingTime="67.00" waitingCount="1" stopTime="0.00" timeLoss="87.81" rerouteNo="0" devices="tripinfo_flow_route_38_duration_20250327_1910.7" vType="car" speedFactor="0.85" vaporized=""/>
    <tripinfo id="flow_route_38_duration_20250327_1910.4" depart="18.00" departLane="133126030#0_0" departPos="33.48" departSpeed="0.00" departDelay="0.86" arrival="131.00" arrivalLane="134193294#0_0" arrivalPos="58.15" arrivalSpeed="11.50" duration="113.00" routeLength="219.56" waitingTime="67.00" waitingCount="1" stopTime="0.00" timeLoss="99.01" rerouteNo="0" devices="tripinfo_flow_route_38_duration_20250327_1910.4" vType="car" speedFactor="1.18" vaporized=""/>
    <tripinfo id="flow_route_38_duration_20250327_1910.8" depart="35.00" departLane="133126030#0_0" departPos="152.14" departSpeed="0.00" departDelay="0.72" arrival="131.00" arrivalLane="134193294#0_0" arrivalPos="101.67" arrivalSpeed="13.07" duration="96.00" routeLength="144.41" waitingTime="68.00" waitingCount="1" stopTime="0.00" timeLoss="86.36" rerouteNo="0" devices="tripinfo_flow_route_38_duration_20250327_1910.8" vType="car" speedFactor="1.14" vaporized=""/>
    <tripinfo id="flow_route_38_duration_20250327_1910.6" depart="26.00" departLane="133126030#0_0" departPos="129.61" departSpeed="0.00" departDelay="0.29" arrival="133.00" arrivalLane="134193294#0_0" arrivalPos="166.65" arrivalSpeed="16.27" duration="107.00" routeLength="231.92" waitingTime="71.00" waitingCount="1" stopTime="0.00" timeLoss="91.45" rerouteNo="0" devices="tripinfo_flow_route_38_duration_20250327_1910.6" vType="car" speedFactor="1.04" vaporized=""/>
    <tripinfo id="flow_route_38_duration_20250327_1910.9" depart="39.00" departLane="133126030#0_0" departPos="87.14" departSpeed="0.00" departDelay="0.44" arrival="133.00" arrivalLane="134193294#0_0" arrivalPos="28.73" arrivalSpeed="8.93" duration="94.00" routeLength="136.47" waitingTime="63.00" waitingCount="1" stopTime="0.00" timeLoss="83.79" rerouteNo="0" devices="tripinfo_flow_route_38_duration_20250327_1910.9" vType="car" speedFactor="0.94" vaporized=""/>