<?xml version="1.0" encoding="UTF-8"?>

<!-- generated on 2025-05-06 21:08:33 by Eclipse SUMO sumo Version 1.20.0
<configuration xmlns:xsi="http://www.w3.org/2001/XMLSchema-instance" xsi:noNamespaceSchemaLocation="http://sumo.dlr.de/xsd/sumoConfiguration.xsd">

    <input>
        <net-file value="osm.net.xml"/>
        <route-files value="xml/route_rl_632031937_5.rou.xml"/>
    </input>

    <output>
        <tripinfo-output value="xml/tripinfo_rl_632031937_5.xml"/>
    </output>

    <traci_server>
        <remote-port value="36965"/>
    </traci_server>

</configuration>
-->

<tripinfos xmlns:xsi="http://www.w3.org/2001/XMLSchema-instance" xsi:noNamespaceSchemaLocation="http://sumo.dlr.de/xsd/tripinfo_file.xsd">
    <tripinfo id="flow_route_53_duration_20250327_1930.1" depart="3.00" departLane="138002006#0_0" departPos="77.73" departSpeed="0.00" departDelay="0.69" arrival="18.00" arrivalLane="1369578052#0_0" arrivalPos="48.76" arrivalSpeed="10.90" duration="15.00" routeLength="78.95" waitingTime="0.00" waitingCount="0" stopTime="0.00" timeLoss="9.07" rerouteNo="0" devices="tripinfo_flow_route_53_duration_20250327_1930.1" vType="car" speedFactor="0.89" vaporized=""/>
    <tripinfo id="flow_route_66_duration_20250327_1930.0" depart="0.00" departLane="-138002002#2_0" departPos="85.87" departSpeed="0.00" departDelay="0.00" arrival="20.00" arrivalLane="-138002006#3_1" arrivalPos="3.87" arrivalSpeed="12.76" duration="20.00" routeLength="121.39" waitingTime="0.00" waitingCount="0" stopTime="0.00" timeLoss="10.86" rerouteNo="0" devices="tripinfo_flow_route_66_duration_20250327_1930.0" vType="car" speedFactor="0.83" vaporized=""/>
    <tripinfo id="flow_route_53_duration_20250327_1930.0" depart="0.00" departLane="138002006#0_0" departPos="48.40" departSpeed="0.00" departDelay="0.00" arrival="22.00" arrivalLane="1369578052#0_1" arrivalPos="131.33" arrivalSpeed="15.42" duration="22.00" routeLength="190.85" waitingTime="0.00" waitingCount="0" stopTime="0.00" timeLoss="9.45" rerouteNo="0" devices="tripinfo_flow_route_53_duration_20250327_1930.0" vType="car" speedFactor="0.94" vaporized=""/>
    <tripinfo id="flow_route_66_duration_20250327_1930.1" depart="12.00" departLane="-138002002#2_0" departPos="177.68" departSpeed="0.00" departDelay="0.00" arrival="24.00" arrivalLane="-138002006#3_0" arrivalPos="29.41" arrivalSpeed="9.04" duration="12.00" routeLength="55.13" waitingTime="0.00" waitingCount="0" stopTime="0.00" timeLoss="8.40" rerouteNo="0" devices="tripinfo_flow_route_66_duration_20250327_1930.1" vType="car" speedFactor="0.94" vaporized=""/>
    <tripinfo id="flow_route_53_duration_20250327_1930.3" depart="7.00" departLane="138002006#0_0" departPos="73.17" departSpeed="0.00" departDelay="0.08" arrival="27.00" arrivalLane="1369578052#0_0" arrivalPos="116.77" arrivalSpeed="14.78" duration="20.00" routeLength="151.51" waitingTime="0.00" waitingCount="0" stopTime="0.00" timeLoss="10.68" rerouteNo="0" devices="tripinfo_flow_route_53_duration_20250327_1930.3" vType="car" speedFactor="1.03" vaporized=""/>
    <tripinfo id="flow_route_53_duration_20250327_1930.2" depart="5.00" departLane="138002006#0_0" departPos="4.10" departSpeed="0.00" departDelay="0.39" arrival="31.00" arrivalLane="1369578052#0_0" arrivalPos="126.01" arrivalSpeed="14.01" duration="26.00" routeLength="229.83" waitingTime="0.00" waitingCount="0" stopTime="0.00" timeLoss="9.57" rerouteNo="0" devices="tripinfo_flow_route_53_duration_20250327_1930.2" vType="car" speedFactor="0.86" vaporized=""/>
    <tripinfo id="flow_route_53_duration_20250327_1930.5" depart="16.00" departLane="138002006#0_0" departPos="7.90" departSpeed="0.00" departDelay="4.47" arrival="32.00" arrivalLane="1369578052#0_0" arrivalPos="5.50" arrivalSpeed="12.82" duration="16.00" routeLength="105.51" waitingTime="0.00" waitingCount="0" stopTime="0.00" timeLoss="8.81" rerouteNo="0" devices="tripinfo_flow_route_53_duration_20250327_1930.5" vType="car" speedFactor="0.93" vaporized=""/>
    <tripinfo id="flow_route_67_duration_20250327_1930.0" depart="1.00" departLane="-138002002#2_0" departPos="104.31" departSpeed="0.00" departDelay="1.00" arrival="36.00" arrivalLane="380351865#0_0" arrivalPos="12.69" arrivalSpeed="11.37" duration="35.00" routeLength="241.42" waitingTime="0.00" waitingCount="0" stopTime="0.00" timeLoss="15.47" rerouteNo="0" devices="tripinfo_flow_route_67_duration_20250327_1930.0" vType="car" speedFactor="1.05" vaporized=""/>
    <tripinfo id="flow_route_53_duration_20250327_1930.4" depart="12.00" departLane="138002006#0_0" departPos="11.48" departSpeed="0.00" departDelay="2.77" arrival="36.00" arrivalLane="1369578052#0_0" arrivalPos="140.92" arrivalSpeed="16.13" duration="24.00" routeLength="237.36" waitingTime="0.00" waitingCount="0" stopTime="0.00" timeLoss="9.57" rerouteNo="0" devices="tripinfo_flow_route_53_duration_20250327_1930.4" vType="car" speedFactor="0.99" vaporized=""/>
    <tripinfo id="flow_route_53_duration_20250327_1930.6" depart="21.00" departLane="138002006#0_0" departPos="5.95" departSpeed="0.00" departDelay="7.16" arrival="41.00" arrivalLane="1369578052#0_1" arrivalPos="41.13" arrivalSpeed="14.55" duration="20.00" routeLength="143.10" waitingTime="0.00" waitingCount="0" stopTime="0.00" timeLoss="9.97" rerouteNo="0" devices="tripinfo_flow_route_53_duration_20250327_1930.6" vType="car" speedFactor="0.94" vaporized=""/>
    <tripinfo id="flow_route_67_duration_20250327_1930.1" depart="9.00" departLane="-138002002#2_0" departPos="55.59" departSpeed="0.00" departDelay="0.43" arrival="42.00" arrivalLane="380351865#0_0" arrivalPos="9.29" arrivalSpeed="12.43" duration="33.00" routeLength="286.75" waitingTime="0.00" waitingCount="0" stopTime="0.00" timeLoss="11.43" rerouteNo="0" devices="tripinfo_flow_route_67_duration_20250327_1930.1" vType="car" speedFactor="1.12" vaporized=""/>
    <tripinfo id="flow_route_52_duration_20250327_1930.0" depart="0.00" departLane="138002006#0_0" departPos="21.97" departSpeed="0.00" departDelay="0.00" arrival="44.00" arrivalLane="380351865#0_1" arrivalPos="15.21" arrivalSpeed="11.62" duration="44.00" routeLength="234.80" waitingTime="7.00" waitingCount="1" stopTime="0.00" timeLoss="24.32" rerouteNo="0" devices="tripinfo_flow_route_52_duration_20250327_1930.0" vType="car" speedFactor="1.06" vaporized=""/>
    <tripinfo id="flow_route_53_duration_20250327_1930.10" depart="31.00" departLane="138002006#0_0" departPos="26.30" departSpeed="0.00" departDelay="7.93" arrival="48.00" arrivalLane="1369578052#0_0" arrivalPos="38.19" arrivalSpeed="13.16" duration="17.00" routeLength="119.80" waitingTime="0.00" waitingCount="0" stopTime="0.00" timeLoss="9.38" rerouteNo="0" devices="tripinfo_flow_route_53_duration_20250327_1930.10" vType="car" speedFactor="0.95" vaporized=""/>
    <tripinfo id="flow_route_53_duration_20250327_1930.7" depart="25.00" departLane="138002006#0_0" departPos="25.75" departSpeed="0.00" departDelay="8.85" arrival="49.00" arrivalLane="1369578052#0_1" arrivalPos="131.90" arrivalSpeed="16.57" duration="24.00" routeLength="214.07" waitingTime="0.00" waitingCount="0" stopTime="0.00" timeLoss="10.83" rerouteNo="0" devices="tripinfo_flow_route_53_duration_20250327_1930.7" vType="car" speedFactor="1.02" vaporized=""/>
    <tripinfo id="flow_route_53_duration_20250327_1930.9" depart="30.00" departLane="138002006#0_0" departPos="77.57" departSpeed="0.00" departDelay="9.24" arrival="49.00" arrivalLane="1369578052#0_0" arrivalPos="100.79" arrivalSpeed="13.72" duration="19.00" routeLength="131.14" waitingTime="0.00" waitingCount="0" stopTime="0.00" timeLoss="9.60" rerouteNo="0" devices="tripinfo_flow_route_53_duration_20250327_1930.9" vType="car" speedFactor="0.87" vaporized=""/>
    <tripinfo id="flow_route_53_duration_20250327_1930.8" depart="29.00" departLane="138002006#0_0" departPos="55.50" departSpeed="0.00" departDelay="10.54" arrival="51.00" arrivalLane="1369578052#0_0" arrivalPos="106.92" arrivalSpeed="13.94" duration="22.00" routeLength="159.34" waitingTime="0.00" waitingCount="0" stopTime="0.00" timeLoss="10.99" rerouteNo="0" devices="tripinfo_flow_route_53_duration_20250327_1930.8" vType="car" speedFactor="0.89" vaporized=""/>
    <tripinfo id="flow_route_53_duration_20250327_1930.12" depart="38.00" departLane="138002006#0_0" departPos="30.59" departSpeed="0.00" departDelay="10.32" arrival="54.00" arrivalLane="1369578052#0_0" arrivalPos="4.40" arrivalSpeed="7.97" duration="16.00" routeLength="81.73" waitingTime="0.00" waitingCount="0" stopTime="0.00" timeLoss="11.01" rerouteNo="0" devices="tripinfo_flow_route_53_duration_20250327_1930.12" vType="car" speedFactor="1.17" vaporized=""/>
    <tripinfo id="flow_route_53_duration_20250327_1930.14" depart="43.00" departLane="138002006#0_0" departPos="80.19" departSpeed="0.00" departDelay="10.70" arrival="61.00" arrivalLane="1369578052#0_0" arrivalPos="85.96" arrivalSpeed="12.89" duration="18.00" routeLength="113.69" waitingTime="0.00" waitingCount="0" stopTime="0.00" timeLoss="10.39" rerouteNo="0" devices="tripinfo_flow_route_53_duration_20250327_1930.14" vType="car" speedFactor="1.18" vaporized=""/>
    <tripinfo id="flow_route_53_duration_20250327_1930.11" depart="35.00" departLane="138002006#0_0" departPos="12.53" departSpeed="0.00" departDelay="9.62" arrival="63.00" arrivalLane="1369578052#0_1" arrivalPos="78.01" arrivalSpeed="13.47" duration="28.00" routeLength="173.40" waitingTime="0.00" waitingCount="0" stopTime="0.00" timeLoss="16.92" rerouteNo="0" devices="tripinfo_flow_route_53_duration_20250327_1930.11" vType="car" speedFactor="1.18" vaporized=""/>
    <tripinfo id="flow_route_53_duration_20250327_1930.15" depart="44.00" departLane="138002006#0_0" departPos="30.08" departSpeed="0.00" departDelay="9.40" arrival="65.00" arrivalLane="1369578052#0_1" arrivalPos="22.91" arrivalSpeed="11.08" duration="21.00" routeLength="100.75" waitingTime="0.00" waitingCount="0" stopTime="0.00" timeLoss="13.65" rerouteNo="0" devices="tripinfo_flow_route_53_duration_20250327_1930.15" vType="car" speedFactor="0.90" vaporized=""/>
    <tripinfo id="flow_route_52_duration_20250327_1930.1" depart="40.00" departLane="138002006#0_0" departPos="50.90" departSpeed="0.00" departDelay="10.00" arrival="67.00" arrivalLane="380351865#0_1" arrivalPos="7.26" arrivalSpeed="10.83" duration="27.00" routeLength="197.92" waitingTime="0.00" waitingCount="0" stopTime="0.00" timeLoss="8.90" rerouteNo="0" devices="tripinfo_flow_route_52_duration_20250327_1930.1" vType="car" speedFactor="0.99" vaporized=""/>
    <tripinfo id="flow_route_53_duration_20250327_1930.13" depart="40.00" departLane="138002006#0_0" departPos="9.13" departSpeed="0.00" departDelay="10.01" arrival="68.00" arrivalLane="1369578052#0_1" arrivalPos="131.01" arrivalSpeed="16.22" duration="28.00" routeLength="229.80" waitingTime="0.00" waitingCount="0" stopTime="0.00" timeLoss="13.55" rerouteNo="0" devices="tripinfo_flow_route_53_duration_20250327_1930.13" vType="car" speedFactor="1.02" vaporized=""/>
    <tripinfo id="flow_route_53_duration_20250327_1930.18" depart="50.00" departLane="138002006#0_0" departPos="64.19" departSpeed="0.00" departDelay="8.47" arrival="70.00" arrivalLane="1369578052#0_0" arrivalPos="101.24" arrivalSpeed="13.96" duration="20.00" routeLength="144.97" waitingTime="0.00" waitingCount="0" stopTime="0.00" timeLoss="10.22" rerouteNo="0" devices="tripinfo_flow_route_53_duration_20250327_1930.18" vType="car" speedFactor="0.90" vaporized=""/>
    <tripinfo id="flow_route_53_duration_20250327_1930.19" depart="51.00" departLane="138002006#0_0" departPos="11.50" departSpeed="0.00" departDelay="7.17" arrival="73.00" arrivalLane="1369578052#0_1" arrivalPos="86.69" arrivalSpeed="14.09" duration="22.00" routeLength="183.11" waitingTime="0.00" waitingCount="0" stopTime="0.00" timeLoss="9.14" rerouteNo="0" devices="tripinfo_flow_route_53_duration_20250327_1930.19" vType="car" speedFactor="0.85" vaporized=""/>
    <tripinfo id="flow_route_53_duration_20250327_1930.17" depart="50.00" departLane="138002006#0_0" departPos="28.71" departSpeed="0.00" departDelay="10.78" arrival="74.00" arrivalLane="1369578052#0_0" arrivalPos="125.50" arrivalSpeed="16.11" duration="24.00" routeLength="204.71" waitingTime="0.00" waitingCount="0" stopTime="0.00" timeLoss="11.58" rerouteNo="0" devices="tripinfo_flow_route_53_duration_20250327_1930.17" vType="car" speedFactor="1.09" vaporized=""/>
    <tripinfo id="flow_route_53_duration_20250327_1930.16" depart="44.00" departLane="138002006#0_0" departPos="0.08" departSpeed="0.00" departDelay="7.09" arrival="76.00" arrivalLane="1369578052#0_1" arrivalPos="155.85" arrivalSpeed="16.35" duration="32.00" routeLength="263.69" waitingTime="0.00" waitingCount="0" stopTime="0.00" timeLoss="15.35" rerouteNo="0" devices="tripinfo_flow_route_53_duration_20250327_1930.16" vType="car" speedFactor="1.04" vaporized=""/>
    <tripinfo id="flow_route_58_duration_20250327_1930.0" depart="0.00" departLane="186407685_0" departPos="1.07" departSpeed="0.00" departDelay="0.00" arrival="84.00" arrivalLane="-138002006#3_1" arrivalPos="43.63" arrivalSpeed="9.91" duration="84.00" routeLength="235.82" waitingTime="48.00" waitingCount="1" stopTime="0.00" timeLoss="68.94" rerouteNo="0" devices="tripinfo_flow_route_58_duration_20250327_1930.0" vType="car" speedFactor="1.08" vaporized=""/>
    <tripinfo id="flow_route_59_duration_20250327_1930.1" depart="3.00" departLane="186407685_0" departPos="57.01" departSpeed="0.00" departDelay="0.00" arrival="85.00" arrivalLane="1369578052#0_0" arrivalPos="11.11" arrivalSpeed="6.42" duration="82.00" routeLength="140.21" waitingTime="42.00" waitingCount="2" stopTime="0.00" timeLoss="72.23" rerouteNo="0" devices="tripinfo_flow_route_59_duration_20250327_1930.1" vType="car" speedFactor="0.94" vaporized=""/>
    <tripinfo id="flow_route_59_duration_20250327_1930.0" depart="0.00" departLane="186407685_0" departPos="119.17" departSpeed="0.00" departDelay="0.00" arrival="90.00" arrivalLane="1369578052#0_0" arrivalPos="108.75" arrivalSpeed="13.42" duration="90.00" routeLength="175.69" waitingTime="54.00" waitingCount="2" stopTime="0.00" timeLoss="78.30" rerouteNo="0" devices="tripinfo_flow_route_59_duration_20250327_1930.0" vType="car" speedFactor="1.03" vaporized=""/>
    <tripinfo id="flow_route_59_duration_20250327_1930.5" depart="15.00" departLane="186407685_0" departPos="143.73" departSpeed="0.00" departDelay="0.00" arrival="92.00" arrivalLane="1369578052#0_0" arrivalPos="105.36" arrivalSpeed="13.38" duration="77.00" routeLength="147.75" waitingTime="44.00" waitingCount="2" stopTime="0.00" timeLoss="66.80" rerouteNo="0" devices="tripinfo_flow_route_59_duration_20250327_1930.5" vType="car" speedFactor="1.16" vaporized=""/>
    <tripinfo id="flow_route_57_duration_20250327_1930.0" depart="0.00" departLane="186407685_0" departPos="131.94" departSpeed="0.00" departDelay="0.00" arrival="94.00" arrivalLane="380351865#0_0" arrivalPos="0.78" arrivalSpeed="10.77" duration="94.00" routeLength="205.45" waitingTime="60.00" waitingCount="1" stopTime="0.00" timeLoss="76.86" rerouteNo="0" devices="tripinfo_flow_route_57_duration_20250327_1930.0" vType="car" speedFactor="1.01" vaporized=""/>
    <tripinfo id="flow_route_59_duration_20250327_1930.2" depart="9.00" departLane="186407685_0" departPos="41.92" departSpeed="0.00" departDelay="3.00" arrival="98.00" arrivalLane="1369578052#0_0" arrivalPos="94.56" arrivalSpeed="13.03" duration="89.00" routeLength="238.75" waitingTime="40.00" waitingCount="3" stopTime="0.00" timeLoss="73.68" rerouteNo="0" devices="tripinfo_flow_route_59_duration_20250327_1930.2" vType="car" speedFactor="1.09" vaporized=""/>
    <tripinfo id="flow_route_59_duration_20250327_1930.4" depart="12.00" departLane="186407685_0" departPos="72.84" departSpeed="0.00" departDelay="0.00" arrival="98.00" arrivalLane="1369578052#0_0" arrivalPos="126.28" arrivalSpeed="14.55" duration="86.00" routeLength="239.55" waitingTime="41.00" waitingCount="2" stopTime="0.00" timeLoss="69.16" rerouteNo="0" devices="tripinfo_flow_route_59_duration_20250327_1930.4" vType="car" speedFactor="0.88" vaporized=""/>
    <tripinfo id="flow_route_59_duration_20250327_1930.3" depart="9.00" departLane="186407685_0" departPos="5.74" departSpeed="0.00" departDelay="0.00" arrival="99.00" arrivalLane="1369578052#0_0" arrivalPos="73.10" arrivalSpeed="12.65" duration="90.00" routeLength="253.47" waitingTime="39.00" waitingCount="2" stopTime="0.00" timeLoss="72.95" rerouteNo="0" devices="tripinfo_flow_route_59_duration_20250327_1930.3" vType="car" speedFactor="1.05" vaporized=""/>
    <tripinfo id="flow_route_57_duration_20250327_1930.1" depart="20.00" departLane="186407685_0" departPos="49.37" departSpeed="0.00" departDelay="0.00" arrival="99.00" arrivalLane="380351865#0_1" arrivalPos="10.95" arrivalSpeed="9.17" duration="79.00" routeLength="298.19" waitingTime="32.00" waitingCount="1" stopTime="0.00" timeLoss="52.89" rerouteNo="0" devices="tripinfo_flow_route_57_duration_20250327_1930.1" vType="car" speedFactor="0.83" vaporized=""/>
    <tripinfo id="flow_route_57_duration_20250327_1930.2" depart="49.00" departLane="186407685_0" departPos="27.15" departSpeed="0.00" departDelay="9.00" arrival="101.00" arrivalLane="380351865#0_1" arrivalPos="10.12" arrivalSpeed="10.34" duration="52.00" routeLength="319.57" waitingTime="4.00" waitingCount="1" stopTime="0.00" timeLoss="27.44" rerouteNo="0" devices="tripinfo_flow_route_57_duration_20250327_1930.2" vType="car" speedFactor="1.00" vaporized=""/>
    <tripinfo id="flow_route_59_duration_20250327_1930.9" depart="29.00" departLane="186407685_0" departPos="87.24" departSpeed="0.00" departDelay="2.00" arrival="104.00" arrivalLane="1369578052#0_0" arrivalPos="76.90" arrivalSpeed="11.80" duration="75.00" routeLength="175.77" waitingTime="34.00" waitingCount="1" stopTime="0.00" timeLoss="63.48" rerouteNo="0" devices="tripinfo_flow_route_59_duration_20250327_1930.9" vType="car" speedFactor="1.01" vaporized=""/>
    <tripinfo id="flow_route_59_duration_20250327_1930.7" depart="26.00" departLane="186407685_0" departPos="90.81" departSpeed="0.00" departDelay="5.00" arrival="108.00" arrivalLane="1369578052#0_0" arrivalPos="171.08" arrivalSpeed="14.89" duration="82.00" routeLength="266.38" waitingTime="35.00" waitingCount="1" stopTime="0.00" timeLoss="64.31" rerouteNo="0" devices="tripinfo_flow_route_59_duration_20250327_1930.7" vType="car" speedFactor="0.92" vaporized=""/>
    <tripinfo id="flow_route_59_duration_20250327_1930.8" depart="28.00" departLane="186407685_0" departPos="18.54" departSpeed="0.00" departDelay="4.00" arrival="109.00" arrivalLane="1369578052#0_0" arrivalPos="33.30" arrivalSpeed="9.88" duration="81.00" routeLength="200.87" waitingTime="32.00" waitingCount="1" stopTime="0.00" timeLoss="67.39" rerouteNo="0" devices="tripinfo_flow_route_59_duration_20250327_1930.8" vType="car" speedFactor="1.13" vaporized=""/>
    <tripinfo id="flow_route_59_duration_20250327_1930.6" depart="20.00" departLane="186407685_0" departPos="4.93" departSpeed="0.00" departDelay="2.00" arrival="110.00" arrivalLane="1369578052#0_0" arrivalPos="127.48" arrivalSpeed="14.92" duration="90.00" routeLength="308.66" waitingTime="34.00" waitingCount="1" stopTime="0.00" timeLoss="69.73" rerouteNo="0" devices="tripinfo_flow_route_59_duration_20250327_1930.6" vType="car" speedFactor="1.01" vaporized=""/>
    <tripinfo id="flow_route_59_duration_20250327_1930.12" depart="38.00" departLane="186407685_0" departPos="76.29" departSpeed="0.00" departDelay="2.00" arrival="110.00" arrivalLane="1369578052#0_0" arrivalPos="88.48" arrivalSpeed="13.12" duration="72.00" routeLength="198.30" waitingTime="32.00" waitingCount="1" stopTime="0.00" timeLoss="58.40" rerouteNo="0" devices="tripinfo_flow_route_59_duration_20250327_1930.12" vType="car" speedFactor="0.96" vaporized=""/>
    <tripinfo id="flow_route_59_duration_20250327_1930.11" depart="33.00" departLane="186407685_0" departPos="49.79" departSpeed="0.00" departDelay="0.00" arrival="114.00" arrivalLane="1369578052#0_0" arrivalPos="121.99" arrivalSpeed="15.18" duration="81.00" routeLength="258.31" waitingTime="32.00" waitingCount="1" stopTime="0.00" timeLoss="64.25" rerouteNo="0" devices="tripinfo_flow_route_59_duration_20250327_1930.11" vType="car" speedFactor="1.10" vaporized=""/>
    <tripinfo id="flow_route_59_duration_20250327_1930.10" depart="32.00" departLane="186407685_0" departPos="17.98" departSpeed="0.00" departDelay="2.00" arrival="116.00" arrivalLane="1369578052#0_0" arrivalPos="84.01" arrivalSpeed="13.03" duration="84.00" routeLength="252.15" waitingTime="31.00" waitingCount="1" stopTime="0.00" timeLoss="67.59" rerouteNo="0" devices="tripinfo_flow_route_59_duration_20250327_1930.10" vType="car" speedFactor="0.97" vaporized=""/>
    <tripinfo id="flow_route_66_duration_20250327_1930.2" depart="24.00" departLane="-138002002#2_0" departPos="64.81" departSpeed="0.00" departDelay="0.00" arrival="117.00" arrivalLane="-138002006#3_1" arrivalPos="4.16" arrivalSpeed="6.77" duration="93.00" routeLength="142.74" waitingTime="65.00" waitingCount="1" stopTime="0.00" timeLoss="83.40" rerouteNo="0" devices="tripinfo_flow_route_66_duration_20250327_1930.2" vType="car" speedFactor="0.93" vaporized=""/>
    <tripinfo id="flow_route_66_duration_20250327_1930.3" depart="36.00" departLane="-138002002#2_0" departPos="180.20" departSpeed="0.00" departDelay="0.00" arrival="117.00" arrivalLane="-138002006#3_0" arrivalPos="3.78" arrivalSpeed="6.28" duration="81.00" routeLength="26.97" waitingTime="70.00" waitingCount="1" stopTime="0.00" timeLoss="79.10" rerouteNo="0" devices="tripinfo_flow_route_66_duration_20250327_1930.3" vType="car" speedFactor="1.09" vaporized=""/>
    <tripinfo id="flow_route_53_duration_20250327_1930.24" depart="66.00" departLane="138002006#0_0" departPos="83.63" departSpeed="0.00" departDelay="10.63" arrival="122.00" arrivalLane="1369578052#0_0" arrivalPos="40.67" arrivalSpeed="9.90" duration="56.00" routeLength="64.96" waitingTime="38.00" waitingCount="1" stopTime="0.00" timeLoss="51.51" rerouteNo="0" devices="tripinfo_flow_route_53_duration_20250327_1930.24" vType="car" speedFactor="1.12" vaporized=""/>
    <tripinfo id="flow_route_53_duration_20250327_1930.25" depart="68.00" departLane="138002006#0_0" departPos="16.69" departSpeed="0.00" departDelay="10.33" arrival="122.00" arrivalLane="1369578052#0_1" arrivalPos="6.38" arrivalSpeed="7.12" duration="54.00" routeLength="97.62" waitingTime="29.00" waitingCount="1" stopTime="0.00" timeLoss="47.99" rerouteNo="0" devices="tripinfo_flow_route_53_duration_20250327_1930.25" vType="car" speedFactor="0.99" vaporized=""/>
    <tripinfo id="flow_route_66_duration_20250327_1930.4" depart="48.00" departLane="-138002002#2_0" departPos="85.27" departSpeed="0.00" departDelay="0.00" arrival="123.00" arrivalLane="-138002006#3_1" arrivalPos="43.28" arrivalSpeed="10.70" duration="75.00" routeLength="161.40" waitingTime="45.00" waitingCount="1" stopTime="0.00" timeLoss="65.07" rerouteNo="0" devices="tripinfo_flow_route_66_duration_20250327_1930.4" vType="car" speedFactor="1.00" vaporized=""/>
    <tripinfo id="flow_route_53_duration_20250327_1930.23" depart="64.00" departLane="138002006#0_0" departPos="46.90" departSpeed="0.00" departDelay="10.94" arrival="124.00" arrivalLane="1369578052#0_0" arrivalPos="46.18" arrivalSpeed="9.96" duration="60.00" routeLength="107.20" waitingTime="37.00" waitingCount="1" stopTime="0.00" timeLoss="53.33" rerouteNo="0" devices="tripinfo_flow_route_53_duration_20250327_1930.23" vType="car" speedFactor="0.97" vaporized=""/>
    <tripinfo id="flow_route_53_duration_20250327_1930.22" depart="62.00" departLane="138002006#0_0" departPos="53.67" departSpeed="0.00" departDelay="11.25" arrival="130.00" arrivalLane="1369578052#0_0" arrivalPos="147.79" arrivalSpeed="14.90" duration="68.00" routeLength="202.04" waitingTime="37.00" waitingCount="1" stopTime="0.00" timeLoss="54.28" rerouteNo="0" devices="tripinfo_flow_route_53_duration_20250327_1930.22" vType="car" speedFactor="0.90" vaporized=""/>
    <tripinfo id="flow_route_67_duration_20250327_1930.3" depart="26.00" departLane="-138002002#2_0" departPos="107.77" departSpeed="0.00" departDelay="0.29" arrival="132.00" arrivalLane="380351865#0_0" arrivalPos="10.50" arrivalSpeed="12.36" duration="106.00" routeLength="235.78" waitingTime="68.00" waitingCount="1" stopTime="0.00" timeLoss="88.01" rerouteNo="0" devices="tripinfo_flow_route_67_duration_20250327_1930.3" vType="car" speedFactor="1.15" vaporized=""/>
    <tripinfo id="flow_route_53_duration_20250327_1930.20" depart="57.00" departLane="138002006#0_0" departPos="7.51" departSpeed="0.00" departDelay="10.86" arrival="133.00" arrivalLane="1369578052#0_1" arrivalPos="156.92" arrivalSpeed="16.53" duration="76.00" routeLength="257.33" waitingTime="37.00" waitingCount="1" stopTime="0.00" timeLoss="59.79" rerouteNo="0" devices="tripinfo_flow_route_53_duration_20250327_1930.20" vType="car" speedFactor="1.02" vaporized=""/>
    <tripinfo id="flow_route_53_duration_20250327_1930.21" depart="60.00" departLane="138002006#0_0" departPos="0.65" departSpeed="0.00" departDelay="11.55" arrival="135.00" arrivalLane="1369578052#0_0" arrivalPos="155.51" arrivalSpeed="16.29" duration="75.00" routeLength="262.78" waitingTime="35.00" waitingCount="1" stopTime="0.00" timeLoss="58.64" rerouteNo="0" devices="tripinfo_flow_route_53_duration_20250327_1930.21" vType="car" speedFactor="1.00" vaporized=""/>
    <tripinfo id="flow_route_67_duration_20250327_1930.2" depart="19.00" departLane="-138002002#2_0" departPos="33.78" departSpeed="0.00" departDelay="1.86" arrival="136.00" arrivalLane="380351865#0_0" arrivalPos="15.96" arrivalSpeed="10.39" duration="117.00" routeLength="315.24" waitingTime="66.00" waitingCount="1" stopTime="0.00" timeLoss="91.33" rerouteNo="0" devices="tripinfo_flow_route_67_duration_20250327_1930.2" vType="car" speedFactor="0.97" vaporized=""/>
    <tripinfo id="flow_route_67_duration_20250327_1930.5" depart="43.00" departLane="-138002002#2_0" departPos="146.99" departSpeed="0.00" departDelay="0.15" arrival="139.00" arrivalLane="380351865#0_0" arrivalPos="8.24" arrivalSpeed="8.99" duration="96.00" routeLength="194.30" waitingTime="63.00" waitingCount="1" stopTime="0.00" timeLoss="75.95" rerouteNo="0" devices="tripinfo_flow_route_67_duration_20250327_1930.5" vType="car" speedFactor="0.85" vaporized=""/>
    <tripinfo id="flow_route_67_duration_20250327_1930.4" depart="35.00" departLane="-138002002#2_0" departPos="68.45" departSpeed="0.00" departDelay="0.72" arrival="141.00" arrivalLane="380351865#0_0" arrivalPos="12.18" arrivalSpeed="10.60" duration="106.00" routeLength="276.77" waitingTime="63.00" waitingCount="1" stopTime="0.00" timeLoss="84.22" rerouteNo="0" devices="tripinfo_flow_route_67_duration_20250327_1930.4" vType="car" speedFactor="1.03" vaporized=""/>
    <tripinfo id="flow_route_67_duration_20250327_1930.6" depart="52.00" departLane="-138002002#2_0" departPos="35.98" departSpeed="0.00" departDelay="0.57" arrival="142.00" arrivalLane="380351865#0_0" arrivalPos="1.96" arrivalSpeed="10.51" duration="90.00" routeLength="299.02" waitingTime="43.00" waitingCount="1" stopTime="0.00" timeLoss="67.28" rerouteNo="0" devices="tripinfo_flow_route_67_duration_20250327_1930.6" vType="car" speedFactor="1.02" vaporized=""/>
    <tripinfo id="flow_route_59_duration_20250327_1930.14" depart="52.00" departLane="186407685_0" departPos="17.30" departSpeed="0.00" departDelay="10.00" arrival="191.00" arrivalLane="1369578052#0_0" arrivalPos="2.70" arrivalSpeed="5.30" duration="139.00" routeLength="171.51" waitingTime="96.00" waitingCount="2" stopTime="0.00" timeLoss="127.48" rerouteNo="0" devices="tripinfo_flow_route_59_duration_20250327_1930.14" vType="car" speedFactor="0.88" vaporized=""/>
    <tripinfo id="flow_route_59_duration_20250327_1930.15" depart="61.00" departLane="186407685_0" departPos="15.06" departSpeed="0.00" departDelay="16.00" arrival="195.00" arrivalLane="1369578052#0_0" arrivalPos="2.15" arrivalSpeed="6.66" duration="134.00" routeLength="173.20" waitingTime="89.00" waitingCount="2" stopTime="0.00" timeLoss="123.10" rerouteNo="0" devices="tripinfo_flow_route_59_duration_20250327_1930.15" vType="car" speedFactor="1.17" vaporized=""/>
    <tripinfo id="flow_route_59_duration_20250327_1930.13" depart="49.00" departLane="186407685_0" departPos="58.93" departSpeed="0.00" departDelay="10.00" arrival="199.00" arrivalLane="1369578052#0_0" arrivalPos="108.59" arrivalSpeed="12.79" duration="150.00" routeLength="235.76" waitingTime="102.00" waitingCount="2" stopTime="0.00" timeLoss="135.07" rerouteNo="0" devices="tripinfo_flow_route_59_duration_20250327_1930.13" vType="car" speedFactor="1.04" vaporized=""/>
    <tripinfo id="flow_route_59_duration_20250327_1930.17" depart="77.00" departLane="186407685_0" departPos="2.35" departSpeed="0.00" departDelay="26.00" arrival="206.00" arrivalLane="1369578052#0_0" arrivalPos="29.05" arrivalSpeed="9.02" duration="129.00" routeLength="212.81" waitingTime="76.00" waitingCount="2" stopTime="0.00" timeLoss="115.04" rerouteNo="0" devices="tripinfo_flow_route_59_duration_20250327_1930.17" vType="car" speedFactor="1.14" vaporized=""/>
    <tripinfo id="flow_route_59_duration_20250327_1930.16" depart="69.00" departLane="186407685_0" departPos="61.39" departSpeed="0.00" departDelay="21.00" arrival="209.00" arrivalLane="1369578052#0_0" arrivalPos="183.73" arrivalSpeed="16.55" duration="140.00" routeLength="308.45" waitingTime="89.00" waitingCount="2" stopTime="0.00" timeLoss="120.41" rerouteNo="0" devices="tripinfo_flow_route_59_duration_20250327_1930.16" vType="car" speedFactor="1.10" vaporized=""/>