<?xml version="1.0" encoding="UTF-8"?>

<!-- generated on 2025-05-06 21:09:16 by Eclipse SUMO sumo Version 1.20.0
<configuration xmlns:xsi="http://www.w3.org/2001/XMLSchema-instance" xsi:noNamespaceSchemaLocation="http://sumo.dlr.de/xsd/sumoConfiguration.xsd">

    <input>
        <net-file value="osm.net.xml"/>
        <route-files value="xml/route_static_cluster_3839031475_3839031476_4110471700_4234582615_9.rou.xml"/>
    </input>

    <output>
        <tripinfo-output value="xml/tripinfo_static_cluster_3839031475_3839031476_4110471700_4234582615_9.xml"/>
    </output>

    <traci_server>
        <remote-port value="54709"/>
    </traci_server>

</configuration>
-->

<tripinfos xmlns:xsi="http://www.w3.org/2001/XMLSchema-instance" xsi:noNamespaceSchemaLocation="http://sumo.dlr.de/xsd/tripinfo_file.xsd">
    <tripinfo id="flow_route_85_duration_20250327_2010.0" depart="0.00" departLane="1091883842_0" departPos="162.60" departSpeed="0.00" departDelay="0.00" arrival="16.00" arrivalLane="133000063_0" arrivalPos="42.63" arrivalSpeed="9.42" duration="16.00" routeLength="74.77" waitingTime="0.00" waitingCount="0" stopTime="0.00" timeLoss="9.23" rerouteNo="0" devices="tripinfo_flow_route_85_duration_20250327_2010.0" vType="car" speedFactor="0.89" vaporized=""/>
    <tripinfo id="flow_route_81_duration_20250327_2010.1" depart="3.00" departLane="380344611#0_0" departPos="145.46" departSpeed="0.00" departDelay="0.00" arrival="27.00" arrivalLane="133000063_2" arrivalPos="7.96" arrivalSpeed="9.60" duration="24.00" routeLength="178.37" waitingTime="0.00" waitingCount="0" stopTime="0.00" timeLoss="12.55" rerouteNo="0" devices="tripinfo_flow_route_81_duration_20250327_2010.1" vType="car" speedFactor="1.09" vaporized=""/>
    <tripinfo id="flow_route_84_duration_20250327_2010.1" depart="4.00" departLane="1091883842_0" departPos="117.64" departSpeed="0.00" departDelay="0.67" arrival="28.00" arrivalLane="136617981_1" arrivalPos="87.03" arrivalSpeed="16.24" duration="24.00" routeLength="187.68" waitingTime="0.00" waitingCount="0" stopTime="0.00" timeLoss="11.81" rerouteNo="0" devices="tripinfo_flow_route_84_duration_20250327_2010.1" vType="car" speedFactor="1.03" vaporized=""/>
    <tripinfo id="flow_route_81_duration_20250327_2010.0" depart="0.00" departLane="380344611#0_0" departPos="75.01" departSpeed="0.00" departDelay="0.00" arrival="30.00" arrivalLane="133000063_2" arrivalPos="7.51" arrivalSpeed="9.38" duration="30.00" routeLength="248.37" waitingTime="0.00" waitingCount="0" stopTime="0.00" timeLoss="10.94" rerouteNo="0" devices="tripinfo_flow_route_81_duration_20250327_2010.0" vType="car" speedFactor="0.83" vaporized=""/>
    <tripinfo id="flow_route_80_duration_20250327_2010.0" depart="0.00" departLane="380344611#0_0" departPos="160.58" departSpeed="0.00" departDelay="0.00" arrival="31.00" arrivalLane="380593307#0_0" arrivalPos="102.42" arrivalSpeed="13.92" duration="31.00" routeLength="234.46" waitingTime="0.00" waitingCount="0" stopTime="0.00" timeLoss="16.04" rerouteNo="0" devices="tripinfo_flow_route_80_duration_20250327_2010.0" vType="car" speedFactor="1.03" vaporized=""/>
    <tripinfo id="flow_route_79_duration_20250327_2010.0" depart="0.00" departLane="380344611#0_0" departPos="128.21" departSpeed="0.00" departDelay="0.00" arrival="33.00" arrivalLane="423956929_1" arrivalPos="91.18" arrivalSpeed="16.55" duration="33.00" routeLength="278.79" waitingTime="0.00" waitingCount="0" stopTime="0.00" timeLoss="15.98" rerouteNo="0" devices="tripinfo_flow_route_79_duration_20250327_2010.0" vType="car" speedFactor="1.08" vaporized=""/>
    <tripinfo id="flow_route_80_duration_20250327_2010.1" depart="12.00" departLane="380344611#0_0" departPos="202.91" departSpeed="0.00" departDelay="0.00" arrival="34.00" arrivalLane="380593307#0_0" arrivalPos="41.91" arrivalSpeed="9.74" duration="22.00" routeLength="131.62" waitingTime="0.00" waitingCount="0" stopTime="0.00" timeLoss="13.38" rerouteNo="0" devices="tripinfo_flow_route_80_duration_20250327_2010.1" vType="car" speedFactor="0.97" vaporized=""/>
    <tripinfo id="flow_route_84_duration_20250327_2010.2" depart="8.00" departLane="1091883842_0" departPos="177.65" departSpeed="0.00" departDelay="1.33" arrival="36.00" arrivalLane="136617981_0" arrivalPos="216.68" arrivalSpeed="14.19" duration="28.00" routeLength="257.32" waitingTime="0.00" waitingCount="0" stopTime="0.00" timeLoss="9.63" rerouteNo="0" devices="tripinfo_flow_route_84_duration_20250327_2010.2" vType="car" speedFactor="0.88" vaporized=""/>
    <tripinfo id="flow_route_84_duration_20250327_2010.0" depart="0.00" departLane="1091883842_0" departPos="11.19" departSpeed="0.00" departDelay="0.00" arrival="37.00" arrivalLane="136617981_0" arrivalPos="210.65" arrivalSpeed="15.27" duration="37.00" routeLength="417.75" waitingTime="0.00" waitingCount="0" stopTime="0.00" timeLoss="11.26" rerouteNo="0" devices="tripinfo_flow_route_84_duration_20250327_2010.0" vType="car" speedFactor="1.05" vaporized=""/>
    <tripinfo id="flow_route_81_duration_20250327_2010.4" depart="12.00" departLane="380344611#0_0" departPos="169.07" departSpeed="0.00" departDelay="0.00" arrival="44.00" arrivalLane="133000063_2" arrivalPos="139.81" arrivalSpeed="14.50" duration="32.00" routeLength="286.61" waitingTime="0.00" waitingCount="0" stopTime="0.00" timeLoss="11.80" rerouteNo="0" devices="tripinfo_flow_route_81_duration_20250327_2010.4" vType="car" speedFactor="0.89" vaporized=""/>
    <tripinfo id="flow_route_81_duration_20250327_2010.2" depart="6.00" departLane="380344611#0_0" departPos="67.13" departSpeed="0.00" departDelay="0.00" arrival="47.00" arrivalLane="133000063_2" arrivalPos="152.88" arrivalSpeed="16.57" duration="41.00" routeLength="401.63" waitingTime="0.00" waitingCount="0" stopTime="0.00" timeLoss="15.80" rerouteNo="0" devices="tripinfo_flow_route_81_duration_20250327_2010.2" vType="car" speedFactor="1.12" vaporized=""/>
    <tripinfo id="flow_route_81_duration_20250327_2010.3" depart="9.00" departLane="380344611#0_0" departPos="36.69" departSpeed="0.00" departDelay="0.00" arrival="47.00" arrivalLane="133000063_2" arrivalPos="118.00" arrivalSpeed="15.36" duration="38.00" routeLength="397.18" waitingTime="0.00" waitingCount="0" stopTime="0.00" timeLoss="11.35" rerouteNo="0" devices="tripinfo_flow_route_81_duration_20250327_2010.3" vType="car" speedFactor="0.94" vaporized=""/>
    <tripinfo id="flow_route_90_duration_20250327_2010.0" depart="0.00" departLane="380585338#0_0" departPos="118.71" departSpeed="0.00" departDelay="0.00" arrival="52.00" arrivalLane="136617981_0" arrivalPos="211.18" arrivalSpeed="13.90" duration="52.00" routeLength="279.54" waitingTime="13.00" waitingCount="1" stopTime="0.00" timeLoss="30.92" rerouteNo="0" devices="tripinfo_flow_route_90_duration_20250327_2010.0" vType="car" speedFactor="0.86" vaporized=""/>
    <tripinfo id="flow_route_90_duration_20250327_2010.2" depart="14.00" departLane="380585338#0_0" departPos="100.73" departSpeed="0.00" departDelay="2.00" arrival="52.00" arrivalLane="136617981_0" arrivalPos="25.23" arrivalSpeed="7.83" duration="38.00" routeLength="111.57" waitingTime="6.00" waitingCount="1" stopTime="0.00" timeLoss="28.64" rerouteNo="0" devices="tripinfo_flow_route_90_duration_20250327_2010.2" vType="car" speedFactor="0.83" vaporized=""/>
    <tripinfo id="flow_route_89_duration_20250327_2010.2" depart="13.00" departLane="380585338#0_0" departPos="162.37" departSpeed="0.00" departDelay="2.09" arrival="53.00" arrivalLane="380593307#0_1" arrivalPos="38.74" arrivalSpeed="10.75" duration="40.00" routeLength="86.64" waitingTime="20.00" waitingCount="1" stopTime="0.00" timeLoss="34.64" rerouteNo="0" devices="tripinfo_flow_route_89_duration_20250327_2010.2" vType="car" speedFactor="1.01" vaporized=""/>
    <tripinfo id="flow_route_76_duration_20250327_2010.1" depart="11.00" departLane="133342692#0_0" departPos="28.80" departSpeed="0.00" departDelay="1.00" arrival="54.00" arrivalLane="133000063_1" arrivalPos="21.60" arrivalSpeed="10.66" duration="43.00" routeLength="199.72" waitingTime="9.00" waitingCount="1" stopTime="0.00" timeLoss="30.52" rerouteNo="0" devices="tripinfo_flow_route_76_duration_20250327_2010.1" vType="car" speedFactor="1.16" vaporized=""/>
    <tripinfo id="flow_route_89_duration_20250327_2010.1" depart="6.00" departLane="380585338#0_0" departPos="5.63" departSpeed="0.00" departDelay="0.55" arrival="56.00" arrivalLane="380593307#0_2" arrivalPos="68.85" arrivalSpeed="12.03" duration="50.00" routeLength="273.49" waitingTime="10.00" waitingCount="1" stopTime="0.00" timeLoss="33.27" rerouteNo="0" devices="tripinfo_flow_route_89_duration_20250327_2010.1" vType="car" speedFactor="0.99" vaporized=""/>
    <tripinfo id="flow_route_77_duration_20250327_2010.2" depart="32.00" departLane="133342692#0_0" departPos="101.00" departSpeed="0.00" departDelay="2.00" arrival="56.00" arrivalLane="423956929_0" arrivalPos="26.19" arrivalSpeed="8.21" duration="24.00" routeLength="107.72" waitingTime="0.00" waitingCount="0" stopTime="0.00" timeLoss="15.51" rerouteNo="0" devices="tripinfo_flow_route_77_duration_20250327_2010.2" vType="car" speedFactor="0.88" vaporized=""/>
    <tripinfo id="flow_route_89_duration_20250327_2010.3" depart="20.00" departLane="380585338#0_0" departPos="13.89" departSpeed="0.00" departDelay="3.64" arrival="57.00" arrivalLane="380593307#0_2" arrivalPos="48.41" arrivalSpeed="11.46" duration="37.00" routeLength="244.79" waitingTime="0.00" waitingCount="0" stopTime="0.00" timeLoss="21.74" rerouteNo="0" devices="tripinfo_flow_route_89_duration_20250327_2010.3" vType="car" speedFactor="1.18" vaporized=""/>
    <tripinfo id="flow_route_76_duration_20250327_2010.2" depart="23.00" departLane="133342692#0_0" departPos="4.09" departSpeed="0.00" departDelay="3.00" arrival="57.00" arrivalLane="133000063_1" arrivalPos="31.12" arrivalSpeed="10.68" duration="34.00" routeLength="233.95" waitingTime="0.00" waitingCount="0" stopTime="0.00" timeLoss="19.60" rerouteNo="0" devices="tripinfo_flow_route_76_duration_20250327_2010.2" vType="car" speedFactor="0.99" vaporized=""/>
    <tripinfo id="flow_route_77_duration_20250327_2010.0" depart="0.00" departLane="133342692#0_0" departPos="115.39" departSpeed="0.00" departDelay="0.00" arrival="58.00" arrivalLane="423956929_0" arrivalPos="132.19" arrivalSpeed="15.19" duration="58.00" routeLength="199.33" waitingTime="27.00" waitingCount="1" stopTime="0.00" timeLoss="43.90" rerouteNo="0" devices="tripinfo_flow_route_77_duration_20250327_2010.0" vType="car" speedFactor="0.94" vaporized=""/>
    <tripinfo id="flow_route_89_duration_20250327_2010.0" depart="0.00" departLane="380585338#0_0" departPos="55.91" departSpeed="0.00" departDelay="0.00" arrival="59.00" arrivalLane="380593307#0_0" arrivalPos="94.67" arrivalSpeed="14.17" duration="59.00" routeLength="249.03" waitingTime="14.00" waitingCount="2" stopTime="0.00" timeLoss="42.22" rerouteNo="0" devices="tripinfo_flow_route_89_duration_20250327_2010.0" vType="car" speedFactor="0.94" vaporized=""/>
    <tripinfo id="flow_route_76_duration_20250327_2010.0" depart="0.00" departLane="133342692#0_0" departPos="1.03" departSpeed="0.00" departDelay="0.00" arrival="61.00" arrivalLane="133000063_0" arrivalPos="153.47" arrivalSpeed="16.59" duration="61.00" routeLength="359.35" waitingTime="13.00" waitingCount="1" stopTime="0.00" timeLoss="38.96" rerouteNo="0" devices="tripinfo_flow_route_76_duration_20250327_2010.0" vType="car" speedFactor="1.06" vaporized=""/>
    <tripinfo id="flow_route_77_duration_20250327_2010.1" depart="15.00" departLane="133342692#0_0" departPos="110.01" departSpeed="0.00" departDelay="0.00" arrival="63.00" arrivalLane="423956929_0" arrivalPos="177.16" arrivalSpeed="15.45" duration="48.00" routeLength="249.68" waitingTime="12.00" waitingCount="1" stopTime="0.00" timeLoss="30.77" rerouteNo="0" devices="tripinfo_flow_route_77_duration_20250327_2010.1" vType="car" speedFactor="0.95" vaporized=""/>
    <tripinfo id="flow_route_89_duration_20250327_2010.4" depart="23.00" departLane="380585338#0_0" departPos="152.04" departSpeed="0.00" departDelay="1.18" arrival="63.00" arrivalLane="380593307#0_1" arrivalPos="143.32" arrivalSpeed="16.16" duration="40.00" routeLength="201.55" waitingTime="10.00" waitingCount="1" stopTime="0.00" timeLoss="26.98" rerouteNo="0" devices="tripinfo_flow_route_89_duration_20250327_2010.4" vType="car" speedFactor="1.10" vaporized=""/>
    <tripinfo id="flow_route_89_duration_20250327_2010.5" depart="29.00" departLane="380585338#0_0" departPos="21.58" departSpeed="0.00" departDelay="1.73" arrival="64.00" arrivalLane="380593307#0_1" arrivalPos="135.59" arrivalSpeed="16.58" duration="35.00" routeLength="324.28" waitingTime="0.00" waitingCount="0" stopTime="0.00" timeLoss="14.77" rerouteNo="0" devices="tripinfo_flow_route_89_duration_20250327_2010.5" vType="car" speedFactor="1.00" vaporized=""/>
    <tripinfo id="flow_route_76_duration_20250327_2010.3" depart="30.00" departLane="133342692#0_0" departPos="115.79" departSpeed="0.00" departDelay="0.00" arrival="64.00" arrivalLane="133000063_0" arrivalPos="122.85" arrivalSpeed="14.93" duration="34.00" routeLength="213.99" waitingTime="1.00" waitingCount="1" stopTime="0.00" timeLoss="18.76" rerouteNo="0" devices="tripinfo_flow_route_76_duration_20250327_2010.3" vType="car" speedFactor="0.90" vaporized=""/>
    <tripinfo id="flow_route_89_duration_20250327_2010.6" depart="34.00" departLane="380585338#0_0" departPos="2.54" departSpeed="0.00" departDelay="1.28" arrival="64.00" arrivalLane="380593307#0_1" arrivalPos="102.90" arrivalSpeed="16.31" duration="30.00" routeLength="310.63" waitingTime="0.00" waitingCount="0" stopTime="0.00" timeLoss="11.27" rerouteNo="0" devices="tripinfo_flow_route_89_duration_20250327_2010.6" vType="car" speedFactor="1.00" vaporized=""/>
    <tripinfo id="flow_route_90_duration_20250327_2010.1" depart="6.00" departLane="380585338#0_0" departPos="52.40" departSpeed="0.00" departDelay="0.00" arrival="65.00" arrivalLane="136617981_0" arrivalPos="154.27" arrivalSpeed="15.18" duration="59.00" routeLength="288.94" waitingTime="4.00" waitingCount="1" stopTime="0.00" timeLoss="39.09" rerouteNo="0" devices="tripinfo_flow_route_90_duration_20250327_2010.1" vType="car" speedFactor="0.93" vaporized=""/>
    <tripinfo id="flow_route_90_duration_20250327_2010.4" depart="26.00" departLane="380585338#0_0" departPos="71.38" departSpeed="0.00" departDelay="2.00" arrival="67.00" arrivalLane="136617981_0" arrivalPos="120.48" arrivalSpeed="14.42" duration="41.00" routeLength="236.17" waitingTime="2.00" waitingCount="1" stopTime="0.00" timeLoss="26.07" rerouteNo="0" devices="tripinfo_flow_route_90_duration_20250327_2010.4" vType="car" speedFactor="1.09" vaporized=""/>
    <tripinfo id="flow_route_76_duration_20250327_2010.4" depart="40.00" departLane="133342692#0_0" departPos="76.56" departSpeed="0.00" departDelay="0.00" arrival="69.00" arrivalLane="133000063_0" arrivalPos="145.31" arrivalSpeed="14.65" duration="29.00" routeLength="275.68" waitingTime="0.00" waitingCount="0" stopTime="0.00" timeLoss="9.31" rerouteNo="0" devices="tripinfo_flow_route_76_duration_20250327_2010.4" vType="car" speedFactor="0.88" vaporized=""/>
    <tripinfo id="flow_route_78_duration_20250327_2010.0" depart="0.00" departLane="133342692#0_0" departPos="79.92" departSpeed="0.00" departDelay="0.00" arrival="71.00" arrivalLane="136617981_2" arrivalPos="12.89" arrivalSpeed="7.19" duration="71.00" routeLength="138.43" waitingTime="35.00" waitingCount="2" stopTime="0.00" timeLoss="61.54" rerouteNo="0" devices="tripinfo_flow_route_78_duration_20250327_2010.0" vType="car" speedFactor="1.01" vaporized=""/>
    <tripinfo id="flow_route_78_duration_20250327_2010.2" depart="9.00" departLane="133342692#0_0" departPos="56.80" departSpeed="0.00" departDelay="0.43" arrival="72.00" arrivalLane="136617981_2" arrivalPos="8.45" arrivalSpeed="7.76" duration="63.00" routeLength="157.11" waitingTime="25.00" waitingCount="2" stopTime="0.00" timeLoss="52.03" rerouteNo="0" devices="tripinfo_flow_route_78_duration_20250327_2010.2" vType="car" speedFactor="0.94" vaporized=""/>
    <tripinfo id="flow_route_90_duration_20250327_2010.5" depart="33.00" departLane="380585338#0_0" departPos="17.86" departSpeed="0.00" departDelay="3.00" arrival="73.00" arrivalLane="136617981_0" arrivalPos="110.72" arrivalSpeed="14.43" duration="40.00" routeLength="279.93" waitingTime="0.00" waitingCount="0" stopTime="0.00" timeLoss="22.27" rerouteNo="0" devices="tripinfo_flow_route_90_duration_20250327_2010.5" vType="car" speedFactor="1.10" vaporized=""/>
    <tripinfo id="flow_route_89_duration_20250327_2010.7" depart="41.00" departLane="380585338#0_0" departPos="125.57" departSpeed="0.00" departDelay="2.82" arrival="73.00" arrivalLane="380593307#0_0" arrivalPos="173.05" arrivalSpeed="15.61" duration="32.00" routeLength="257.74" waitingTime="0.00" waitingCount="0" stopTime="0.00" timeLoss="14.91" rerouteNo="0" devices="tripinfo_flow_route_89_duration_20250327_2010.7" vType="car" speedFactor="0.94" vaporized=""/>
    <tripinfo id="flow_route_90_duration_20250327_2010.3" depart="22.00" departLane="380585338#0_0" departPos="101.59" departSpeed="0.00" departDelay="4.00" arrival="75.00" arrivalLane="136617981_0" arrivalPos="281.23" arrivalSpeed="16.46" duration="53.00" routeLength="366.71" waitingTime="3.00" waitingCount="1" stopTime="0.00" timeLoss="29.50" rerouteNo="0" devices="tripinfo_flow_route_90_duration_20250327_2010.3" vType="car" speedFactor="1.17" vaporized=""/>
    <tripinfo id="flow_route_77_duration_20250327_2010.3" depart="45.00" departLane="133342692#0_0" departPos="42.95" departSpeed="0.00" departDelay="0.00" arrival="75.00" arrivalLane="423956929_0" arrivalPos="36.24" arrivalSpeed="9.81" duration="30.00" routeLength="175.82" waitingTime="0.00" waitingCount="0" stopTime="0.00" timeLoss="17.63" rerouteNo="0" devices="tripinfo_flow_route_77_duration_20250327_2010.3" vType="car" speedFactor="0.94" vaporized=""/>
    <tripinfo id="flow_route_76_duration_20250327_2010.5" depart="50.00" departLane="133342692#0_0" departPos="78.13" departSpeed="0.00" departDelay="0.00" arrival="77.00" arrivalLane="133000063_0" arrivalPos="127.64" arrivalSpeed="16.45" duration="27.00" routeLength="256.43" waitingTime="0.00" waitingCount="0" stopTime="0.00" timeLoss="10.88" rerouteNo="0" devices="tripinfo_flow_route_76_duration_20250327_2010.5" vType="car" speedFactor="1.09" vaporized=""/>
    <tripinfo id="flow_route_90_duration_20250327_2010.6" depart="39.00" departLane="380585338#0_0" departPos="84.64" departSpeed="0.00" departDelay="3.00" arrival="78.00" arrivalLane="136617981_0" arrivalPos="226.16" arrivalSpeed="16.59" duration="39.00" routeLength="328.58" waitingTime="0.00" waitingCount="0" stopTime="0.00" timeLoss="18.32" rerouteNo="0" devices="tripinfo_flow_route_90_duration_20250327_2010.6" vType="car" speedFactor="1.08" vaporized=""/>
    <tripinfo id="flow_route_78_duration_20250327_2010.4" depart="19.00" departLane="133342692#0_0" departPos="35.52" departSpeed="0.00" departDelay="1.86" arrival="86.00" arrivalLane="136617981_2" arrivalPos="18.98" arrivalSpeed="8.38" duration="67.00" routeLength="188.92" waitingTime="19.00" waitingCount="4" stopTime="0.00" timeLoss="55.12" rerouteNo="0" devices="tripinfo_flow_route_78_duration_20250327_2010.4" vType="car" speedFactor="1.15" vaporized=""/>
    <tripinfo id="flow_route_78_duration_20250327_2010.13" depart="56.00" departLane="133342692#0_0" departPos="161.52" departSpeed="0.00" departDelay="0.30" arrival="87.00" arrivalLane="136617981_2" arrivalPos="65.28" arrivalSpeed="12.28" duration="31.00" routeLength="109.23" waitingTime="10.00" waitingCount="2" stopTime="0.00" timeLoss="23.43" rerouteNo="0" devices="tripinfo_flow_route_78_duration_20250327_2010.13" vType="car" speedFactor="1.01" vaporized=""/>
    <tripinfo id="flow_route_78_duration_20250327_2010.1" depart="5.00" departLane="133342692#0_0" departPos="141.33" departSpeed="0.00" departDelay="0.72" arrival="88.00" arrivalLane="136617981_2" arrivalPos="266.14" arrivalSpeed="16.59" duration="83.00" routeLength="330.27" waitingTime="35.00" waitingCount="2" stopTime="0.00" timeLoss="62.06" rerouteNo="0" devices="tripinfo_flow_route_78_duration_20250327_2010.1" vType="car" speedFactor="1.05" vaporized=""/>
    <tripinfo id="flow_route_78_duration_20250327_2010.3" depart="13.00" departLane="133342692#0_0" departPos="52.77" departSpeed="0.00" departDelay="0.15" arrival="89.00" arrivalLane="136617981_2" arrivalPos="196.02" arrivalSpeed="14.20" duration="76.00" routeLength="348.71" waitingTime="21.00" waitingCount="2" stopTime="0.00" timeLoss="50.65" rerouteNo="0" devices="tripinfo_flow_route_78_duration_20250327_2010.3" vType="car" speedFactor="0.87" vaporized=""/>
    <tripinfo id="flow_route_78_duration_20250327_2010.10" depart="43.00" departLane="133342692#0_0" departPos="135.36" departSpeed="0.00" departDelay="0.15" arrival="89.00" arrivalLane="136617981_2" arrivalPos="164.26" arrivalSpeed="14.82" duration="46.00" routeLength="234.36" waitingTime="10.00" waitingCount="1" stopTime="0.00" timeLoss="30.26" rerouteNo="0" devices="tripinfo_flow_route_78_duration_20250327_2010.10" vType="car" speedFactor="1.02" vaporized=""/>
    <tripinfo id="flow_route_78_duration_20250327_2010.6" depart="26.00" departLane="133342692#0_0" departPos="58.79" departSpeed="0.00" departDelay="0.29" arrival="94.00" arrivalLane="136617981_2" arrivalPos="83.98" arrivalSpeed="13.66" duration="68.00" routeLength="230.66" waitingTime="13.00" waitingCount="3" stopTime="0.00" timeLoss="53.06" rerouteNo="0" devices="tripinfo_flow_route_78_duration_20250327_2010.6" vType="car" speedFactor="1.04" vaporized=""/>
    <tripinfo id="flow_route_84_duration_20250327_2010.5" depart="17.00" departLane="1091883842_0" departPos="101.54" departSpeed="0.00" departDelay="0.34" arrival="97.00" arrivalLane="136617981_2" arrivalPos="7.89" arrivalSpeed="7.67" duration="80.00" routeLength="124.64" waitingTime="55.00" waitingCount="1" stopTime="0.00" timeLoss="71.92" rerouteNo="0" devices="tripinfo_flow_route_84_duration_20250327_2010.5" vType="car" speedFactor="0.93" vaporized=""/>
    <tripinfo id="flow_route_84_duration_20250327_2010.6" depart="23.00" departLane="1091883842_0" departPos="56.22" departSpeed="0.00" departDelay="3.00" arrival="100.00" arrivalLane="136617981_2" arrivalPos="13.28" arrivalSpeed="8.84" duration="77.00" routeLength="175.34" waitingTime="44.00" waitingCount="1" stopTime="0.00" timeLoss="66.21" rerouteNo="0" devices="tripinfo_flow_route_84_duration_20250327_2010.6" vType="car" speedFactor="1.02" vaporized=""/>
    <tripinfo id="flow_route_84_duration_20250327_2010.9" depart="30.00" departLane="1091883842_0" departPos="167.96" departSpeed="0.00" departDelay="0.00" arrival="100.00" arrivalLane="136617981_0" arrivalPos="12.07" arrivalSpeed="8.88" duration="70.00" routeLength="62.40" waitingTime="51.00" waitingCount="1" stopTime="0.00" timeLoss="65.92" rerouteNo="0" devices="tripinfo_flow_route_84_duration_20250327_2010.9" vType="car" speedFactor="1.02" vaporized=""/>
    <tripinfo id="flow_route_80_duration_20250327_2010.3" depart="36.00" departLane="380344611#0_0" departPos="96.09" departSpeed="0.00" departDelay="0.00" arrival="103.00" arrivalLane="380593307#0_0" arrivalPos="29.08" arrivalSpeed="9.26" duration="67.00" routeLength="225.61" waitingTime="30.00" waitingCount="1" stopTime="0.00" timeLoss="52.43" rerouteNo="0" devices="tripinfo_flow_route_80_duration_20250327_2010.3" vType="car" speedFactor="1.02" vaporized=""/>
    <tripinfo id="flow_route_84_duration_20250327_2010.8" depart="28.00" departLane="1091883842_0" departPos="52.22" departSpeed="0.00" departDelay="1.34" arrival="104.00" arrivalLane="136617981_1" arrivalPos="28.77" arrivalSpeed="10.57" duration="76.00" routeLength="194.84" waitingTime="42.00" waitingCount="1" stopTime="0.00" timeLoss="63.88" rerouteNo="0" devices="tripinfo_flow_route_84_duration_20250327_2010.8" vType="car" speedFactor="1.09" vaporized=""/>
    <tripinfo id="flow_route_79_duration_20250327_2010.1" depart="30.00" departLane="380344611#0_0" departPos="239.75" departSpeed="0.00" departDelay="0.00" arrival="104.00" arrivalLane="423956929_0" arrivalPos="68.95" arrivalSpeed="12.27" duration="74.00" routeLength="145.01" waitingTime="44.00" waitingCount="1" stopTime="0.00" timeLoss="63.44" rerouteNo="0" devices="tripinfo_flow_route_79_duration_20250327_2010.1" vType="car" speedFactor="0.85" vaporized=""/>
    <tripinfo id="flow_route_80_duration_20250327_2010.4" depart="48.00" departLane="380344611#0_0" departPos="23.99" departSpeed="0.00" departDelay="0.00" arrival="105.00" arrivalLane="380593307#0_0" arrivalPos="38.30" arrivalSpeed="10.01" duration="57.00" routeLength="306.94" waitingTime="15.00" waitingCount="1" stopTime="0.00" timeLoss="37.39" rerouteNo="0" devices="tripinfo_flow_route_80_duration_20250327_2010.4" vType="car" speedFactor="1.03" vaporized=""/>
    <tripinfo id="flow_route_78_duration_20250327_2010.12" depart="52.00" departLane="133342692#0_0" departPos="126.71" departSpeed="0.00" departDelay="0.58" arrival="105.00" arrivalLane="136617981_2" arrivalPos="224.71" arrivalSpeed="15.79" duration="53.00" routeLength="303.46" waitingTime="15.00" waitingCount="1" stopTime="0.00" timeLoss="32.76" rerouteNo="0" devices="tripinfo_flow_route_78_duration_20250327_2010.12" vType="car" speedFactor="0.97" vaporized=""/>
    <tripinfo id="flow_route_84_duration_20250327_2010.3" depart="10.00" departLane="1091883842_0" departPos="49.04" departSpeed="0.00" departDelay="0.00" arrival="106.00" arrivalLane="136617981_1" arrivalPos="116.58" arrivalSpeed="15.34" duration="96.00" routeLength="285.83" waitingTime="56.00" waitingCount="1" stopTime="0.00" timeLoss="78.66" rerouteNo="0" devices="tripinfo_flow_route_84_duration_20250327_2010.3" vType="car" speedFactor="1.02" vaporized=""/>
    <tripinfo id="flow_route_80_duration_20250327_2010.2" depart="24.00" departLane="380344611#0_0" departPos="201.55" departSpeed="0.00" departDelay="0.00" arrival="107.00" arrivalLane="380593307#0_0" arrivalPos="108.55" arrivalSpeed="13.14" duration="83.00" routeLength="199.62" waitingTime="43.00" waitingCount="1" stopTime="0.00" timeLoss="68.35" rerouteNo="0" devices="tripinfo_flow_route_80_duration_20250327_2010.2" vType="car" speedFactor="0.90" vaporized=""/>
    <tripinfo id="flow_route_84_duration_20250327_2010.13" depart="44.00" departLane="1091883842_0" departPos="41.97" departSpeed="0.00" departDelay="0.67" arrival="108.00" arrivalLane="136617981_0" arrivalPos="32.50" arrivalSpeed="12.28" duration="64.00" routeLength="208.82" waitingTime="27.00" waitingCount="1" stopTime="0.00" timeLoss="51.23" rerouteNo="0" devices="tripinfo_flow_route_84_duration_20250327_2010.13" vType="car" speedFactor="1.02" vaporized=""/>
    <tripinfo id="flow_route_84_duration_20250327_2010.14" depart="48.00" departLane="1091883842_0" departPos="147.27" departSpeed="0.00" departDelay="1.34" arrival="108.00" arrivalLane="136617981_0" arrivalPos="54.00" arrivalSpeed="12.88" duration="60.00" routeLength="125.02" waitingTime="35.00" waitingCount="1" stopTime="0.00" timeLoss="51.36" rerouteNo="0" devices="tripinfo_flow_route_84_duration_20250327_2010.14" vType="car" speedFactor="0.96" vaporized=""/>
    <tripinfo id="flow_route_84_duration_20250327_2010.7" depart="24.00" departLane="1091883842_0" departPos="162.28" departSpeed="0.00" departDelay="0.67" arrival="109.00" arrivalLane="136617981_0" arrivalPos="139.64" arrivalSpeed="15.47" duration="85.00" routeLength="195.65" waitingTime="54.00" waitingCount="1" stopTime="0.00" timeLoss="71.81" rerouteNo="0" devices="tripinfo_flow_route_84_duration_20250327_2010.7" vType="car" speedFactor="0.96" vaporized=""/>
    <tripinfo id="flow_route_84_duration_20250327_2010.4" depart="14.00" departLane="1091883842_0" departPos="31.27" departSpeed="0.00" departDelay="0.67" arrival="110.00" arrivalLane="136617981_1" arrivalPos="139.60" arrivalSpeed="15.13" duration="96.00" routeLength="326.62" waitingTime="52.00" waitingCount="1" stopTime="0.00" timeLoss="74.11" rerouteNo="0" devices="tripinfo_flow_route_84_duration_20250327_2010.4" vType="car" speedFactor="0.92" vaporized=""/>
    <tripinfo id="flow_route_84_duration_20250327_2010.12" depart="40.00" departLane="1091883842_0" departPos="60.06" departSpeed="0.00" departDelay="0.00" arrival="110.00" arrivalLane="136617981_1" arrivalPos="94.33" arrivalSpeed="14.64" duration="70.00" routeLength="252.56" waitingTime="31.00" waitingCount="1" stopTime="0.00" timeLoss="53.27" rerouteNo="0" devices="tripinfo_flow_route_84_duration_20250327_2010.12" vType="car" speedFactor="0.91" vaporized=""/>
    <tripinfo id="flow_route_84_duration_20250327_2010.16" depart="54.00" departLane="1091883842_0" departPos="20.37" departSpeed="0.00" departDelay="0.67" arrival="110.00" arrivalLane="136617981_1" arrivalPos="54.02" arrivalSpeed="13.29" duration="56.00" routeLength="251.94" waitingTime="16.00" waitingCount="1" stopTime="0.00" timeLoss="40.09" rerouteNo="0" devices="tripinfo_flow_route_84_duration_20250327_2010.16" vType="car" speedFactor="0.98" vaporized=""/>
    <tripinfo id="flow_route_84_duration_20250327_2010.17" depart="58.00" departLane="1091883842_0" departPos="83.00" departSpeed="0.00" departDelay="1.34" arrival="113.00" arrivalLane="136617981_0" arrivalPos="62.90" arrivalSpeed="14.54" duration="55.00" routeLength="198.18" waitingTime="20.00" waitingCount="1" stopTime="0.00" timeLoss="42.25" rerouteNo="0" devices="tripinfo_flow_route_84_duration_20250327_2010.17" vType="car" speedFactor="1.02" vaporized=""/>