<?xml version="1.0" encoding="UTF-8"?>

<!-- generated on 2025-05-06 21:08:46 by Eclipse SUMO sumo Version 1.20.0
<configuration xmlns:xsi="http://www.w3.org/2001/XMLSchema-instance" xsi:noNamespaceSchemaLocation="http://sumo.dlr.de/xsd/sumoConfiguration.xsd">

    <input>
        <net-file value="osm.net.xml"/>
        <route-files value="xml/route_static_cluster_11648561419_11648561420_2271142975_4854142869_6.rou.xml"/>
    </input>

    <output>
        <tripinfo-output value="xml/tripinfo_static_cluster_11648561419_11648561420_2271142975_4854142869_6.xml"/>
    </output>

    <traci_server>
        <remote-port value="32827"/>
    </traci_server>

</configuration>
-->

<tripinfos xmlns:xsi="http://www.w3.org/2001/XMLSchema-instance" xsi:noNamespaceSchemaLocation="http://sumo.dlr.de/xsd/tripinfo_file.xsd">
    <tripinfo id="flow_route_119_duration_20250327_2110.0" depart="0.00" departLane="134194079#0_0" departPos="151.34" departSpeed="0.00" departDelay="0.00" arrival="26.00" arrivalLane="1253188486#8_0" arrivalPos="1.48" arrivalSpeed="7.80" duration="26.00" routeLength="161.10" waitingTime="0.00" waitingCount="0" stopTime="0.00" timeLoss="14.82" rerouteNo="0" devices="tripinfo_flow_route_119_duration_20250327_2110.0" vType="car" speedFactor="1.09" vaporized=""/>
    <tripinfo id="flow_route_97_duration_20250327_2110.0" depart="0.00" departLane="1328664748#0_0" departPos="149.74" departSpeed="0.00" departDelay="0.00" arrival="27.00" arrivalLane="135474719#0_0" arrivalPos="137.46" arrivalSpeed="16.21" duration="27.00" routeLength="222.45" waitingTime="0.00" waitingCount="0" stopTime="0.00" timeLoss="12.42" rerouteNo="0" devices="tripinfo_flow_route_97_duration_20250327_2110.0" vType="car" speedFactor="1.06" vaporized=""/>
    <tripinfo id="flow_route_98_duration_20250327_2110.0" depart="0.00" departLane="1328664748#0_0" departPos="103.72" departSpeed="0.00" departDelay="0.00" arrival="27.00" arrivalLane="177211987#1_0" arrivalPos="104.29" arrivalSpeed="15.20" duration="27.00" routeLength="249.04" waitingTime="0.00" waitingCount="0" stopTime="0.00" timeLoss="11.05" rerouteNo="0" devices="tripinfo_flow_route_98_duration_20250327_2110.0" vType="car" speedFactor="0.94" vaporized=""/>
    <tripinfo id="flow_route_118_duration_20250327_2110.3" depart="10.00" departLane="134194079#0_0" departPos="275.86" departSpeed="0.00" departDelay="2.50" arrival="27.00" arrivalLane="1328664744#0_0" arrivalPos="49.50" arrivalSpeed="12.10" duration="17.00" routeLength="94.79" waitingTime="0.00" waitingCount="0" stopTime="0.00" timeLoss="10.57" rerouteNo="0" devices="tripinfo_flow_route_118_duration_20250327_2110.3" vType="car" speedFactor="1.02" vaporized=""/>
    <tripinfo id="flow_route_118_duration_20250327_2110.2" depart="5.00" departLane="134194079#0_0" departPos="282.21" departSpeed="0.00" departDelay="0.00" arrival="29.00" arrivalLane="1328664744#0_0" arrivalPos="169.60" arrivalSpeed="15.24" duration="24.00" routeLength="208.54" waitingTime="0.00" waitingCount="0" stopTime="0.00" timeLoss="9.88" rerouteNo="0" devices="tripinfo_flow_route_118_duration_20250327_2110.2" vType="car" speedFactor="0.93" vaporized=""/>
    <tripinfo id="flow_route_97_duration_20250327_2110.1" depart="6.00" departLane="1328664748#0_0" departPos="73.71" departSpeed="0.00" departDelay="0.00" arrival="30.00" arrivalLane="135474719#0_0" arrivalPos="4.60" arrivalSpeed="6.16" duration="24.00" routeLength="165.61" waitingTime="0.00" waitingCount="0" stopTime="0.00" timeLoss="11.50" rerouteNo="0" devices="tripinfo_flow_route_97_duration_20250327_2110.1" vType="car" speedFactor="0.88" vaporized=""/>
    <tripinfo id="flow_route_119_duration_20250327_2110.3" depart="12.00" departLane="134194079#0_0" departPos="189.30" departSpeed="0.00" departDelay="3.82" arrival="36.00" arrivalLane="1253188486#8_0" arrivalPos="59.22" arrivalSpeed="12.68" duration="24.00" routeLength="180.88" waitingTime="0.00" waitingCount="0" stopTime="0.00" timeLoss="12.25" rerouteNo="0" devices="tripinfo_flow_route_119_duration_20250327_2110.3" vType="car" speedFactor="1.01" vaporized=""/>
    <tripinfo id="flow_route_119_duration_20250327_2110.2" depart="9.00" departLane="134194079#0_0" departPos="239.47" departSpeed="0.00" departDelay="3.55" arrival="37.00" arrivalLane="1253188486#8_0" arrivalPos="168.08" arrivalSpeed="16.27" duration="28.00" routeLength="239.56" waitingTime="0.00" waitingCount="0" stopTime="0.00" timeLoss="11.78" rerouteNo="0" devices="tripinfo_flow_route_119_duration_20250327_2110.2" vType="car" speedFactor="0.94" vaporized=""/>
    <tripinfo id="flow_route_118_duration_20250327_2110.1" depart="3.00" departLane="134194079#0_0" departPos="117.00" departSpeed="0.00" departDelay="0.50" arrival="39.00" arrivalLane="1328664744#0_1" arrivalPos="208.33" arrivalSpeed="16.16" duration="36.00" routeLength="412.48" waitingTime="0.00" waitingCount="0" stopTime="0.00" timeLoss="10.86" rerouteNo="0" devices="tripinfo_flow_route_118_duration_20250327_2110.1" vType="car" speedFactor="1.05" vaporized=""/>
    <tripinfo id="flow_route_118_duration_20250327_2110.0" depart="0.00" departLane="134194079#0_0" departPos="13.63" departSpeed="0.00" departDelay="0.00" arrival="44.00" arrivalLane="1328664744#0_1" arrivalPos="165.30" arrivalSpeed="14.23" duration="44.00" routeLength="472.83" waitingTime="0.00" waitingCount="0" stopTime="0.00" timeLoss="10.87" rerouteNo="0" devices="tripinfo_flow_route_118_duration_20250327_2110.0" vType="car" speedFactor="0.86" vaporized=""/>
    <tripinfo id="flow_route_99_duration_20250327_2110.0" depart="1.00" departLane="1328664748#0_0" departPos="68.32" departSpeed="0.00" departDelay="1.00" arrival="50.00" arrivalLane="1253188486#8_2" arrivalPos="11.16" arrivalSpeed="7.34" duration="49.00" routeLength="200.71" waitingTime="15.00" waitingCount="1" stopTime="0.00" timeLoss="36.03" rerouteNo="0" devices="tripinfo_flow_route_99_duration_20250327_2110.0" vType="car" speedFactor="1.01" vaporized=""/>
    <tripinfo id="flow_route_97_duration_20250327_2110.4" depart="25.00" departLane="1328664748#0_0" departPos="131.07" departSpeed="0.00" departDelay="1.00" arrival="51.00" arrivalLane="135474719#0_0" arrivalPos="74.06" arrivalSpeed="12.25" duration="26.00" routeLength="177.71" waitingTime="0.00" waitingCount="0" stopTime="0.00" timeLoss="12.20" rerouteNo="0" devices="tripinfo_flow_route_97_duration_20250327_2110.4" vType="car" speedFactor="0.88" vaporized=""/>
    <tripinfo id="flow_route_97_duration_20250327_2110.3" depart="18.00" departLane="1328664748#0_0" departPos="81.25" departSpeed="0.00" departDelay="0.00" arrival="53.00" arrivalLane="135474719#0_0" arrivalPos="79.12" arrivalSpeed="12.87" duration="35.00" routeLength="232.59" waitingTime="0.00" waitingCount="0" stopTime="0.00" timeLoss="19.67" rerouteNo="0" devices="tripinfo_flow_route_97_duration_20250327_2110.3" vType="car" speedFactor="1.02" vaporized=""/>
    <tripinfo id="flow_route_118_duration_20250327_2110.10" depart="32.00" departLane="134194079#0_0" departPos="294.06" departSpeed="0.00" departDelay="7.00" arrival="56.00" arrivalLane="1328664744#0_0" arrivalPos="200.65" arrivalSpeed="16.17" duration="24.00" routeLength="227.74" waitingTime="0.00" waitingCount="0" stopTime="0.00" timeLoss="10.15" rerouteNo="0" devices="tripinfo_flow_route_118_duration_20250327_2110.10" vType="car" speedFactor="1.17" vaporized=""/>
    <tripinfo id="flow_route_97_duration_20250327_2110.5" depart="30.00" departLane="1328664748#0_0" departPos="91.63" departSpeed="0.00" departDelay="0.00" arrival="58.00" arrivalLane="135474719#0_0" arrivalPos="72.56" arrivalSpeed="13.42" duration="28.00" routeLength="215.64" waitingTime="0.00" waitingCount="0" stopTime="0.00" timeLoss="13.31" rerouteNo="0" devices="tripinfo_flow_route_97_duration_20250327_2110.5" vType="car" speedFactor="1.14" vaporized=""/>
    <tripinfo id="flow_route_97_duration_20250327_2110.2" depart="12.00" departLane="1328664748#0_0" departPos="6.19" departSpeed="0.00" departDelay="0.00" arrival="61.00" arrivalLane="135474719#0_0" arrivalPos="147.32" arrivalSpeed="14.98" duration="49.00" routeLength="375.85" waitingTime="0.00" waitingCount="0" stopTime="0.00" timeLoss="22.35" rerouteNo="0" devices="tripinfo_flow_route_97_duration_20250327_2110.2" vType="car" speedFactor="0.92" vaporized=""/>
    <tripinfo id="flow_route_110_duration_20250327_2110.0" depart="0.00" departLane="1254519225#0.109_0" departPos="3.76" departSpeed="0.00" departDelay="0.00" arrival="63.00" arrivalLane="177211987#1_2" arrivalPos="6.38" arrivalSpeed="7.44" duration="63.00" routeLength="190.24" waitingTime="32.00" waitingCount="1" stopTime="0.00" timeLoss="48.42" rerouteNo="0" devices="tripinfo_flow_route_110_duration_20250327_2110.0" vType="car" speedFactor="0.83" vaporized=""/>
    <tripinfo id="flow_route_99_duration_20250327_2110.2" depart="20.00" departLane="1328664748#0_0" departPos="216.15" departSpeed="0.00" departDelay="0.00" arrival="64.00" arrivalLane="1253188486#8_2" arrivalPos="153.39" arrivalSpeed="16.35" duration="44.00" routeLength="195.12" waitingTime="15.00" waitingCount="1" stopTime="0.00" timeLoss="30.99" rerouteNo="0" devices="tripinfo_flow_route_99_duration_20250327_2110.2" vType="car" speedFactor="1.10" vaporized=""/>
    <tripinfo id="flow_route_109_duration_20250327_2110.1" depart="7.00" departLane="1254519225#0.109_0" departPos="60.18" departSpeed="0.00" departDelay="0.33" arrival="66.00" arrivalLane="1328664744#0_0" arrivalPos="27.82" arrivalSpeed="9.47" duration="59.00" routeLength="141.87" waitingTime="28.00" waitingCount="2" stopTime="0.00" timeLoss="48.54" rerouteNo="0" devices="tripinfo_flow_route_109_duration_20250327_2110.1" vType="car" speedFactor="0.94" vaporized=""/>
    <tripinfo id="flow_route_99_duration_20250327_2110.1" depart="10.00" departLane="1328664748#0_0" departPos="68.48" departSpeed="0.00" departDelay="0.00" arrival="67.00" arrivalLane="1253188486#8_2" arrivalPos="175.56" arrivalSpeed="16.48" duration="57.00" routeLength="364.95" waitingTime="10.00" waitingCount="1" stopTime="0.00" timeLoss="33.49" rerouteNo="0" devices="tripinfo_flow_route_99_duration_20250327_2110.1" vType="car" speedFactor="0.97" vaporized=""/>
    <tripinfo id="flow_route_108_duration_20250327_2110.0" depart="0.00" departLane="1254519225#0.109_0" departPos="35.33" departSpeed="0.00" departDelay="0.00" arrival="70.00" arrivalLane="135474719#0_0" arrivalPos="75.82" arrivalSpeed="13.99" duration="70.00" routeLength="240.24" waitingTime="33.00" waitingCount="1" stopTime="0.00" timeLoss="55.07" rerouteNo="0" devices="tripinfo_flow_route_108_duration_20250327_2110.0" vType="car" speedFactor="1.08" vaporized=""/>
    <tripinfo id="flow_route_108_duration_20250327_2110.2" depart="40.00" departLane="1254519225#0.109_0" departPos="61.29" departSpeed="0.00" departDelay="0.00" arrival="72.00" arrivalLane="135474719#0_2" arrivalPos="18.43" arrivalSpeed="11.05" duration="32.00" routeLength="156.89" waitingTime="1.00" waitingCount="1" stopTime="0.00" timeLoss="22.49" rerouteNo="0" devices="tripinfo_flow_route_108_duration_20250327_2110.2" vType="car" speedFactor="1.03" vaporized=""/>
    <tripinfo id="flow_route_110_duration_20250327_2110.1" depart="22.00" departLane="1254519225#0.109_0" departPos="7.75" departSpeed="0.00" departDelay="2.00" arrival="73.00" arrivalLane="177211987#1_2" arrivalPos="62.22" arrivalSpeed="12.72" duration="51.00" routeLength="242.09" waitingTime="13.00" waitingCount="1" stopTime="0.00" timeLoss="34.62" rerouteNo="0" devices="tripinfo_flow_route_110_duration_20250327_2110.1" vType="car" speedFactor="0.96" vaporized=""/>
    <tripinfo id="flow_route_110_duration_20250327_2110.2" depart="40.00" departLane="1254519225#0.109_0" departPos="6.84" departSpeed="0.00" departDelay="0.00" arrival="73.00" arrivalLane="177211987#1_2" arrivalPos="1.07" arrivalSpeed="9.07" duration="33.00" routeLength="181.85" waitingTime="0.00" waitingCount="0" stopTime="0.00" timeLoss="20.92" rerouteNo="0" devices="tripinfo_flow_route_110_duration_20250327_2110.2" vType="car" speedFactor="1.01" vaporized=""/>
    <tripinfo id="flow_route_109_duration_20250327_2110.2" depart="14.00" departLane="1254519225#0.109_0" departPos="12.93" departSpeed="0.00" departDelay="0.67" arrival="74.00" arrivalLane="1328664744#0_0" arrivalPos="69.63" arrivalSpeed="12.63" duration="60.00" routeLength="230.93" waitingTime="23.00" waitingCount="1" stopTime="0.00" timeLoss="45.26" rerouteNo="0" devices="tripinfo_flow_route_109_duration_20250327_2110.2" vType="car" speedFactor="1.18" vaporized=""/>
    <tripinfo id="flow_route_109_duration_20250327_2110.4" depart="27.00" departLane="1254519225#0.109_0" departPos="58.95" departSpeed="0.00" departDelay="0.34" arrival="74.00" arrivalLane="1328664744#0_0" arrivalPos="22.82" arrivalSpeed="10.38" duration="47.00" routeLength="138.11" waitingTime="17.00" waitingCount="1" stopTime="0.00" timeLoss="38.04" rerouteNo="0" devices="tripinfo_flow_route_109_duration_20250327_2110.4" vType="car" speedFactor="1.10" vaporized=""/>
    <tripinfo id="flow_route_109_duration_20250327_2110.0" depart="0.00" departLane="1254519225#0.109_0" departPos="16.50" departSpeed="0.00" departDelay="0.00" arrival="76.00" arrivalLane="1328664744#0_0" arrivalPos="130.88" arrivalSpeed="15.87" duration="76.00" routeLength="288.61" waitingTime="26.00" waitingCount="1" stopTime="0.00" timeLoss="57.72" rerouteNo="0" devices="tripinfo_flow_route_109_duration_20250327_2110.0" vType="car" speedFactor="1.03" vaporized=""/>
    <tripinfo id="flow_route_108_duration_20250327_2110.1" depart="20.00" departLane="1254519225#0.109_0" departPos="18.49" departSpeed="0.00" departDelay="0.00" arrival="78.00" arrivalLane="135474719#0_2" arrivalPos="142.69" arrivalSpeed="14.74" duration="58.00" routeLength="323.96" waitingTime="13.00" waitingCount="1" stopTime="0.00" timeLoss="35.80" rerouteNo="0" devices="tripinfo_flow_route_108_duration_20250327_2110.1" vType="car" speedFactor="0.90" vaporized=""/>
    <tripinfo id="flow_route_109_duration_20250327_2110.3" depart="21.00" departLane="1254519225#0.109_0" departPos="41.29" departSpeed="0.00" departDelay="1.00" arrival="79.00" arrivalLane="1328664744#0_0" arrivalPos="109.30" arrivalSpeed="14.91" duration="58.00" routeLength="242.24" waitingTime="21.00" waitingCount="1" stopTime="0.00" timeLoss="42.40" rerouteNo="0" devices="tripinfo_flow_route_109_duration_20250327_2110.3" vType="car" speedFactor="1.03" vaporized=""/>
    <tripinfo id="flow_route_109_duration_20250327_2110.5" depart="34.00" departLane="1254519225#0.109_0" departPos="9.83" departSpeed="0.00" departDelay="0.67" arrival="81.00" arrivalLane="1328664744#0_0" arrivalPos="71.75" arrivalSpeed="13.85" duration="47.00" routeLength="236.15" waitingTime="4.00" waitingCount="1" stopTime="0.00" timeLoss="29.74" rerouteNo="0" devices="tripinfo_flow_route_109_duration_20250327_2110.5" vType="car" speedFactor="0.91" vaporized=""/>
    <tripinfo id="flow_route_109_duration_20250327_2110.6" depart="40.00" departLane="1254519225#0.109_0" departPos="24.61" departSpeed="0.00" departDelay="0.00" arrival="84.00" arrivalLane="1328664744#0_0" arrivalPos="101.10" arrivalSpeed="15.13" duration="44.00" routeLength="250.72" waitingTime="4.00" waitingCount="1" stopTime="0.00" timeLoss="27.63" rerouteNo="0" devices="tripinfo_flow_route_109_duration_20250327_2110.6" vType="car" speedFactor="0.98" vaporized=""/>
    <tripinfo id="flow_route_109_duration_20250327_2110.8" depart="54.00" departLane="1254519225#0.109_0" departPos="55.92" departSpeed="0.00" departDelay="0.67" arrival="86.00" arrivalLane="1328664744#0_0" arrivalPos="103.93" arrivalSpeed="15.39" duration="32.00" routeLength="222.24" waitingTime="0.00" waitingCount="0" stopTime="0.00" timeLoss="17.32" rerouteNo="0" devices="tripinfo_flow_route_109_duration_20250327_2110.8" vType="car" speedFactor="0.97" vaporized=""/>
    <tripinfo id="flow_route_114_duration_20250327_2110.0" depart="0.00" departLane="1253188486#4_0" departPos="49.31" departSpeed="0.00" departDelay="0.00" arrival="94.00" arrivalLane="177211987#1_0" arrivalPos="36.23" arrivalSpeed="9.58" duration="94.00" routeLength="153.37" waitingTime="63.00" waitingCount="1" stopTime="0.00" timeLoss="83.42" rerouteNo="0" devices="tripinfo_flow_route_114_duration_20250327_2110.0" vType="car" speedFactor="0.89" vaporized=""/>
    <tripinfo id="flow_route_109_duration_20250327_2110.7" depart="47.00" departLane="1254519225#0.109_0" departPos="2.47" departSpeed="0.00" departDelay="0.34" arrival="94.00" arrivalLane="1328664744#0_0" arrivalPos="203.72" arrivalSpeed="16.32" duration="47.00" routeLength="375.48" waitingTime="0.00" waitingCount="0" stopTime="0.00" timeLoss="23.52" rerouteNo="0" devices="tripinfo_flow_route_109_duration_20250327_2110.7" vType="car" speedFactor="1.01" vaporized=""/>
    <tripinfo id="flow_route_115_duration_20250327_2110.1" depart="15.00" departLane="1253188486#4_0" departPos="110.56" departSpeed="0.00" departDelay="3.00" arrival="95.00" arrivalLane="1328664744#0_2" arrivalPos="40.68" arrivalSpeed="11.12" duration="80.00" routeLength="115.52" waitingTime="55.00" waitingCount="1" stopTime="0.00" timeLoss="71.94" rerouteNo="0" devices="tripinfo_flow_route_115_duration_20250327_2110.1" vType="car" speedFactor="0.95" vaporized=""/>
    <tripinfo id="flow_route_113_duration_20250327_2110.2" depart="5.00" departLane="1253188486#4_0" departPos="24.37" departSpeed="0.00" departDelay="0.00" arrival="99.00" arrivalLane="1253188486#8_1" arrivalPos="74.03" arrivalSpeed="14.23" duration="94.00" routeLength="248.30" waitingTime="55.00" waitingCount="1" stopTime="0.00" timeLoss="78.81" rerouteNo="0" devices="tripinfo_flow_route_113_duration_20250327_2110.2" vType="car" speedFactor="0.99" vaporized=""/>
    <tripinfo id="flow_route_115_duration_20250327_2110.2" depart="26.00" departLane="1253188486#4_0" departPos="90.78" departSpeed="0.00" departDelay="2.00" arrival="99.00" arrivalLane="1328664744#0_2" arrivalPos="9.45" arrivalSpeed="10.04" duration="73.00" routeLength="104.07" waitingTime="45.00" waitingCount="1" stopTime="0.00" timeLoss="64.96" rerouteNo="0" devices="tripinfo_flow_route_115_duration_20250327_2110.2" vType="car" speedFactor="0.85" vaporized=""/>
    <tripinfo id="flow_route_115_duration_20250327_2110.0" depart="0.00" departLane="1253188486#4_0" departPos="104.70" departSpeed="0.00" departDelay="0.00" arrival="100.00" arrivalLane="1328664744#0_2" arrivalPos="120.97" arrivalSpeed="15.57" duration="100.00" routeLength="201.67" waitingTime="68.00" waitingCount="1" stopTime="0.00" timeLoss="85.59" rerouteNo="0" devices="tripinfo_flow_route_115_duration_20250327_2110.0" vType="car" speedFactor="0.94" vaporized=""/>
    <tripinfo id="flow_route_113_duration_20250327_2110.3" depart="9.00" departLane="1253188486#4_0" departPos="13.63" departSpeed="0.00" departDelay="1.50" arrival="101.00" arrivalLane="1253188486#8_1" arrivalPos="64.79" arrivalSpeed="13.67" duration="92.00" routeLength="249.78" waitingTime="54.00" waitingCount="1" stopTime="0.00" timeLoss="76.61" rerouteNo="0" devices="tripinfo_flow_route_113_duration_20250327_2110.3" vType="car" speedFactor="1.16" vaporized=""/>
    <tripinfo id="flow_route_113_duration_20250327_2110.1" depart="4.00" departLane="1253188486#4_0" departPos="36.26" departSpeed="0.00" departDelay="1.50" arrival="102.00" arrivalLane="1253188486#8_1" arrivalPos="155.42" arrivalSpeed="16.38" duration="98.00" routeLength="317.79" waitingTime="55.00" waitingCount="1" stopTime="0.00" timeLoss="78.70" rerouteNo="0" devices="tripinfo_flow_route_113_duration_20250327_2110.1" vType="car" speedFactor="1.03" vaporized=""/>
    <tripinfo id="flow_route_113_duration_20250327_2110.6" depart="16.00" departLane="1253188486#4_0" departPos="103.95" departSpeed="0.00" departDelay="1.00" arrival="102.00" arrivalLane="1253188486#8_0" arrivalPos="44.32" arrivalSpeed="12.12" duration="86.00" routeLength="139.01" waitingTime="57.00" waitingCount="1" stopTime="0.00" timeLoss="77.34" rerouteNo="0" devices="tripinfo_flow_route_113_duration_20250327_2110.6" vType="car" speedFactor="1.01" vaporized=""/>
    <tripinfo id="flow_route_113_duration_20250327_2110.10" depart="29.00" departLane="1253188486#4_0" departPos="52.97" departSpeed="0.00" departDelay="4.00" arrival="102.00" arrivalLane="1253188486#8_1" arrivalPos="37.67" arrivalSpeed="12.50" duration="73.00" routeLength="183.34" waitingTime="40.00" waitingCount="1" stopTime="0.00" timeLoss="61.90" rerouteNo="0" devices="tripinfo_flow_route_113_duration_20250327_2110.10" vType="car" speedFactor="0.85" vaporized=""/>
    <tripinfo id="flow_route_113_duration_20250327_2110.12" depart="33.00" departLane="1253188486#4_0" departPos="23.49" departSpeed="0.00" departDelay="3.00" arrival="103.00" arrivalLane="1253188486#8_1" arrivalPos="0.21" arrivalSpeed="11.94" duration="70.00" routeLength="175.35" waitingTime="34.00" waitingCount="1" stopTime="0.00" timeLoss="59.23" rerouteNo="0" devices="tripinfo_flow_route_113_duration_20250327_2110.12" vType="car" speedFactor="0.97" vaporized=""/>
    <tripinfo id="flow_route_113_duration_20250327_2110.0" depart="0.00" departLane="1253188486#4_0" departPos="134.10" departSpeed="0.00" departDelay="0.00" arrival="105.00" arrivalLane="1253188486#8_0" arrivalPos="182.35" arrivalSpeed="16.17" duration="105.00" routeLength="246.88" waitingTime="72.00" waitingCount="1" stopTime="0.00" timeLoss="89.34" rerouteNo="0" devices="tripinfo_flow_route_113_duration_20250327_2110.0" vType="car" speedFactor="1.05" vaporized=""/>
    <tripinfo id="flow_route_113_duration_20250327_2110.5" depart="15.00" departLane="1253188486#4_0" departPos="53.89" departSpeed="0.00" departDelay="2.50" arrival="105.00" arrivalLane="1253188486#8_2" arrivalPos="134.14" arrivalSpeed="16.28" duration="90.00" routeLength="278.89" waitingTime="51.00" waitingCount="1" stopTime="0.00" timeLoss="73.18" rerouteNo="0" devices="tripinfo_flow_route_113_duration_20250327_2110.5" vType="car" speedFactor="1.13" vaporized=""/>
    <tripinfo id="flow_route_115_duration_20250327_2110.3" depart="40.00" departLane="1253188486#4_0" departPos="113.19" departSpeed="0.00" departDelay="4.00" arrival="105.00" arrivalLane="1328664744#0_2" arrivalPos="50.13" arrivalSpeed="12.12" duration="65.00" routeLength="122.34" waitingTime="43.00" waitingCount="1" stopTime="0.00" timeLoss="56.86" rerouteNo="0" devices="tripinfo_flow_route_115_duration_20250327_2110.3" vType="car" speedFactor="1.02" vaporized=""/>
    <tripinfo id="flow_route_113_duration_20250327_2110.4" depart="10.00" departLane="1253188486#4_0" departPos="75.44" departSpeed="0.00" departDelay="0.00" arrival="108.00" arrivalLane="1253188486#8_1" arrivalPos="146.28" arrivalSpeed="16.14" duration="98.00" routeLength="269.47" waitingTime="50.00" waitingCount="1" stopTime="0.00" timeLoss="81.25" rerouteNo="0" devices="tripinfo_flow_route_113_duration_20250327_2110.4" vType="car" speedFactor="0.89" vaporized=""/>
    <tripinfo id="flow_route_114_duration_20250327_2110.1" depart="39.00" departLane="1253188486#4_0" departPos="87.24" departSpeed="0.00" departDelay="9.00" arrival="108.00" arrivalLane="177211987#1_0" arrivalPos="96.40" arrivalSpeed="15.27" duration="69.00" routeLength="175.63" waitingTime="37.00" waitingCount="1" stopTime="0.00" timeLoss="56.74" rerouteNo="0" devices="tripinfo_flow_route_114_duration_20250327_2110.1" vType="car" speedFactor="1.08" vaporized=""/>
    <tripinfo id="flow_route_113_duration_20250327_2110.9" depart="26.00" departLane="1253188486#4_0" departPos="104.28" departSpeed="0.00" departDelay="3.50" arrival="110.00" arrivalLane="1253188486#8_2" arrivalPos="175.00" arrivalSpeed="16.14" duration="84.00" routeLength="269.35" waitingTime="46.00" waitingCount="1" stopTime="0.00" timeLoss="67.78" rerouteNo="0" devices="tripinfo_flow_route_113_duration_20250327_2110.9" vType="car" speedFactor="1.00" vaporized=""/>
    <tripinfo id="flow_route_113_duration_20250327_2110.7" depart="19.00" departLane="1253188486#4_0" departPos="134.10" departSpeed="0.00" departDelay="1.50" arrival="111.00" arrivalLane="1253188486#8_0" arrivalPos="202.54" arrivalSpeed="16.59" duration="92.00" routeLength="267.07" waitingTime="59.00" waitingCount="1" stopTime="0.00" timeLoss="74.98" rerouteNo="0" devices="tripinfo_flow_route_113_duration_20250327_2110.7" vType="car" speedFactor="0.97" vaporized=""/>
    <tripinfo id="flow_route_113_duration_20250327_2110.11" depart="33.00" departLane="1253188486#4_0" departPos="31.78" departSpeed="0.00" departDelay="5.50" arrival="111.00" arrivalLane="1253188486#8_1" arrivalPos="134.75" arrivalSpeed="16.54" duration="78.00" routeLength="301.60" waitingTime="35.00" waitingCount="1" stopTime="0.00" timeLoss="59.06" rerouteNo="0" devices="tripinfo_flow_route_113_duration_20250327_2110.11" vType="car" speedFactor="1.00" vaporized=""/>
    <tripinfo id="flow_route_113_duration_20250327_2110.8" depart="20.00" departLane="1253188486#4_0" departPos="52.51" departSpeed="0.00" departDelay="0.00" arrival="113.00" arrivalLane="1253188486#8_0" arrivalPos="174.37" arrivalSpeed="16.30" duration="93.00" routeLength="320.49" waitingTime="47.00" waitingCount="1" stopTime="0.00" timeLoss="73.13" rerouteNo="0" devices="tripinfo_flow_route_113_duration_20250327_2110.8" vType="car" speedFactor="1.09" vaporized=""/>
    <tripinfo id="flow_route_113_duration_20250327_2110.18" depart="51.00" departLane="1253188486#4_0" departPos="7.43" departSpeed="0.00" departDelay="6.00" arrival="113.00" arrivalLane="1253188486#8_2" arrivalPos="76.03" arrivalSpeed="14.68" duration="62.00" routeLength="267.22" waitingTime="22.00" waitingCount="1" stopTime="0.00" timeLoss="45.81" rerouteNo="0" devices="tripinfo_flow_route_113_duration_20250327_2110.18" vType="car" speedFactor="1.00" vaporized=""/>
    <tripinfo id="flow_route_113_duration_20250327_2110.14" depart="40.00" departLane="1253188486#4_0" departPos="65.90" departSpeed="0.00" departDelay="5.00" arrival="114.00" arrivalLane="1253188486#8_0" arrivalPos="142.19" arrivalSpeed="16.54" duration="74.00" routeLength="274.92" waitingTime="35.00" waitingCount="1" stopTime="0.00" timeLoss="57.13" rerouteNo="0" devices="tripinfo_flow_route_113_duration_20250327_2110.14" vType="car" speedFactor="0.91" vaporized=""/>
    <tripinfo id="flow_route_113_duration_20250327_2110.19" depart="54.00" departLane="1253188486#4_0" departPos="99.55" departSpeed="0.00" departDelay="6.50" arrival="115.00" arrivalLane="1253188486#8_0" arrivalPos="133.63" arrivalSpeed="16.57" duration="61.00" routeLength="232.71" waitingTime="34.00" waitingCount="1" stopTime="0.00" timeLoss="46.94" rerouteNo="0" devices="tripinfo_flow_route_113_duration_20250327_2110.19" vType="car" speedFactor="0.89" vaporized=""/>
    <tripinfo id="flow_route_115_duration_20250327_2110.4" depart="56.00" departLane="1253188486#4_0" departPos="87.36" departSpeed="0.00" departDelay="8.00" arrival="115.00" arrivalLane="1328664744#0_2" arrivalPos="129.46" arrivalSpeed="13.75" duration="59.00" routeLength="227.50" waitingTime="24.00" waitingCount="1" stopTime="0.00" timeLoss="41.86" rerouteNo="0" devices="tripinfo_flow_route_115_duration_20250327_2110.4" vType="car" speedFactor="0.83" vaporized=""/>
    <tripinfo id="flow_route_113_duration_20250327_2110.20" depart="59.00" departLane="1253188486#4_0" departPos="49.25" departSpeed="0.00" departDelay="9.00" arrival="115.00" arrivalLane="1253188486#8_0" arrivalPos="72.00" arrivalSpeed="16.02" duration="56.00" routeLength="221.38" waitingTime="20.00" waitingCount="1" stopTime="0.00" timeLoss="42.10" rerouteNo="0" devices="tripinfo_flow_route_113_duration_20250327_2110.20" vType="car" speedFactor="1.06" vaporized=""/>
    <tripinfo id="flow_route_113_duration_20250327_2110.13" depart="39.00" departLane="1253188486#4_0" departPos="5.30" departSpeed="0.00" departDelay="6.50" arrival="117.00" arrivalLane="1253188486#8_2" arrivalPos="192.36" arrivalSpeed="16.38" duration="78.00" routeLength="385.68" waitingTime="27.00" waitingCount="1" stopTime="0.00" timeLoss="54.49" rerouteNo="0" devices="tripinfo_flow_route_113_duration_20250327_2110.13" vType="car" speedFactor="0.99" vaporized=""/>
    <tripinfo id="flow_route_113_duration_20250327_2110.16" depart="46.00" departLane="1253188486#4_0" departPos="4.83" departSpeed="0.00" departDelay="6.00" arrival="117.00" arrivalLane="1253188486#8_1" arrivalPos="144.37" arrivalSpeed="16.55" duration="71.00" routeLength="338.17" waitingTime="26.00" waitingCount="1" stopTime="0.00" timeLoss="49.84" rerouteNo="0" devices="tripinfo_flow_route_113_duration_20250327_2110.16" vType="car" speedFactor="1.09" vaporized=""/>
    <tripinfo id="flow_route_113_duration_20250327_2110.22" depart="60.00" departLane="1253188486#4_0" departPos="1.20" departSpeed="0.00" departDelay="5.00" arrival="118.00" arrivalLane="1253188486#8_2" arrivalPos="124.22" arrivalSpeed="16.53" duration="58.00" routeLength="321.65" waitingTime="13.00" waitingCount="1" stopTime="0.00" timeLoss="38.00" rerouteNo="0" devices="tripinfo_flow_route_113_duration_20250327_2110.22" vType="car" speedFactor="0.95" vaporized=""/>
    <tripinfo id="flow_route_113_duration_20250327_2110.15" depart="45.00" departLane="1253188486#4_0" departPos="55.99" departSpeed="0.00" departDelay="7.50" arrival="120.00" arrivalLane="1253188486#8_1" arrivalPos="230.79" arrivalSpeed="16.14" duration="75.00" routeLength="373.44" waitingTime="30.00" waitingCount="1" stopTime="0.00" timeLoss="52.33" rerouteNo="0" devices="tripinfo_flow_route_113_duration_20250327_2110.15" vType="car" speedFactor="0.94" vaporized=""/>