<?xml version="1.0" encoding="UTF-8"?>

<!-- generated on 2025-05-06 21:08:42 by Eclipse SUMO sumo Version 1.20.0
<configuration xmlns:xsi="http://www.w3.org/2001/XMLSchema-instance" xsi:noNamespaceSchemaLocation="http://sumo.dlr.de/xsd/sumoConfiguration.xsd">

    <input>
        <net-file value="osm.net.xml"/>
        <route-files value="xml/route_rl_cluster10852700972_12154751993_6.rou.xml"/>
    </input>

    <output>
        <tripinfo-output value="xml/tripinfo_rl_cluster10852700972_12154751993_6.xml"/>
    </output>

    <traci_server>
        <remote-port value="37801"/>
    </traci_server>

</configuration>
-->

<tripinfos xmlns:xsi="http://www.w3.org/2001/XMLSchema-instance" xsi:noNamespaceSchemaLocation="http://sumo.dlr.de/xsd/tripinfo_file.xsd">
    <tripinfo id="flow_route_60_duration_20250327_2100.1" depart="6.00" departLane="186407684#0_0" departPos="41.08" departSpeed="0.00" departDelay="1.00" arrival="19.00" arrivalLane="791826085_0" arrivalPos="1.97" arrivalSpeed="10.47" duration="13.00" routeLength="69.82" waitingTime="0.00" waitingCount="0" stopTime="0.00" timeLoss="7.85" rerouteNo="0" devices="tripinfo_flow_route_60_duration_20250327_2100.1" vType="car" speedFactor="0.83" vaporized=""/>
    <tripinfo id="flow_route_60_duration_20250327_2100.0" depart="0.00" departLane="186407684#0_0" departPos="48.06" departSpeed="0.00" departDelay="0.00" arrival="24.00" arrivalLane="791826085_0" arrivalPos="160.28" arrivalSpeed="16.12" duration="24.00" routeLength="221.15" waitingTime="0.00" waitingCount="0" stopTime="0.00" timeLoss="10.68" rerouteNo="0" devices="tripinfo_flow_route_60_duration_20250327_2100.0" vType="car" speedFactor="1.08" vaporized=""/>
    <tripinfo id="flow_route_61_duration_20250327_2100.0" depart="0.00" departLane="186407684#0_0" departPos="65.67" departSpeed="0.00" departDelay="0.00" arrival="24.00" arrivalLane="1341093416#0_1" arrivalPos="161.76" arrivalSpeed="16.51" duration="24.00" routeLength="210.27" waitingTime="0.00" waitingCount="0" stopTime="0.00" timeLoss="9.94" rerouteNo="0" devices="tripinfo_flow_route_61_duration_20250327_2100.0" vType="car" speedFactor="1.03" vaporized=""/>
    <tripinfo id="flow_route_60_duration_20250327_2100.2" depart="10.00" departLane="186407684#0_0" departPos="5.31" departSpeed="0.00" departDelay="0.00" arrival="40.00" arrivalLane="791826085_0" arrivalPos="184.68" arrivalSpeed="14.39" duration="30.00" routeLength="288.30" waitingTime="0.00" waitingCount="0" stopTime="0.00" timeLoss="9.62" rerouteNo="0" devices="tripinfo_flow_route_60_duration_20250327_2100.2" vType="car" speedFactor="0.89" vaporized=""/>
    <tripinfo id="flow_route_61_duration_20250327_2100.1" depart="18.00" departLane="186407684#0_0" departPos="20.86" departSpeed="0.00" departDelay="3.00" arrival="40.00" arrivalLane="1341093416#0_1" arrivalPos="84.19" arrivalSpeed="15.84" duration="22.00" routeLength="177.51" waitingTime="0.00" waitingCount="0" stopTime="0.00" timeLoss="10.38" rerouteNo="0" devices="tripinfo_flow_route_61_duration_20250327_2100.1" vType="car" speedFactor="1.03" vaporized=""/>
    <tripinfo id="flow_route_60_duration_20250327_2100.3" depart="18.00" departLane="186407684#0_0" departPos="47.97" departSpeed="0.00" departDelay="3.00" arrival="42.00" arrivalLane="791826085_0" arrivalPos="167.29" arrivalSpeed="16.35" duration="24.00" routeLength="228.25" waitingTime="0.00" waitingCount="0" stopTime="0.00" timeLoss="10.18" rerouteNo="0" devices="tripinfo_flow_route_60_duration_20250327_2100.3" vType="car" speedFactor="1.09" vaporized=""/>
    <tripinfo id="flow_route_60_duration_20250327_2100.4" depart="20.00" departLane="186407684#0_0" departPos="14.02" departSpeed="0.00" departDelay="0.00" arrival="43.00" arrivalLane="791826085_0" arrivalPos="98.41" arrivalSpeed="16.48" duration="23.00" routeLength="193.32" waitingTime="0.00" waitingCount="0" stopTime="0.00" timeLoss="10.44" rerouteNo="0" devices="tripinfo_flow_route_60_duration_20250327_2100.4" vType="car" speedFactor="1.12" vaporized=""/>
    <tripinfo id="flow_route_54_duration_20250327_2100.1" depart="16.00" departLane="1341093415#0_0" departPos="146.92" departSpeed="0.00" departDelay="1.00" arrival="48.00" arrivalLane="1341093416#0_0" arrivalPos="12.67" arrivalSpeed="7.76" duration="32.00" routeLength="72.56" waitingTime="10.00" waitingCount="1" stopTime="0.00" timeLoss="27.43" rerouteNo="0" devices="tripinfo_flow_route_54_duration_20250327_2100.1" vType="car" speedFactor="0.86" vaporized=""/>
    <tripinfo id="flow_route_56_duration_20250327_2100.0" depart="0.00" departLane="1341093415#0_0" departPos="44.11" departSpeed="0.00" departDelay="0.00" arrival="49.00" arrivalLane="409155823_0" arrivalPos="4.00" arrivalSpeed="7.37" duration="49.00" routeLength="164.73" waitingTime="17.00" waitingCount="1" stopTime="0.00" timeLoss="38.16" rerouteNo="0" devices="tripinfo_flow_route_56_duration_20250327_2100.0" vType="car" speedFactor="1.01" vaporized=""/>
    <tripinfo id="flow_route_56_duration_20250327_2100.1" depart="11.00" departLane="1341093415#0_0" departPos="156.06" departSpeed="0.00" departDelay="1.00" arrival="51.00" arrivalLane="409155823_0" arrivalPos="39.80" arrivalSpeed="9.54" duration="40.00" routeLength="88.58" waitingTime="18.00" waitingCount="1" stopTime="0.00" timeLoss="33.67" rerouteNo="0" devices="tripinfo_flow_route_56_duration_20250327_2100.1" vType="car" speedFactor="1.05" vaporized=""/>
    <tripinfo id="flow_route_56_duration_20250327_2100.2" depart="20.00" departLane="1341093415#0_0" departPos="136.26" departSpeed="0.00" departDelay="0.00" arrival="51.00" arrivalLane="409155823_0" arrivalPos="2.85" arrivalSpeed="7.65" duration="31.00" routeLength="71.43" waitingTime="10.00" waitingCount="1" stopTime="0.00" timeLoss="25.65" rerouteNo="0" devices="tripinfo_flow_route_56_duration_20250327_2100.2" vType="car" speedFactor="1.05" vaporized=""/>
    <tripinfo id="flow_route_54_duration_20250327_2100.2" depart="30.00" departLane="1341093415#0_0" departPos="39.77" departSpeed="0.00" departDelay="0.00" arrival="53.00" arrivalLane="1341093416#0_1" arrivalPos="34.38" arrivalSpeed="14.81" duration="23.00" routeLength="201.43" waitingTime="0.00" waitingCount="0" stopTime="0.00" timeLoss="10.85" rerouteNo="0" devices="tripinfo_flow_route_54_duration_20250327_2100.2" vType="car" speedFactor="0.88" vaporized=""/>
    <tripinfo id="flow_route_55_duration_20250327_2100.1" depart="12.00" departLane="1341093415#0_0" departPos="121.85" departSpeed="0.00" departDelay="0.00" arrival="57.00" arrivalLane="791826085_0" arrivalPos="105.00" arrivalSpeed="14.25" duration="45.00" routeLength="172.87" waitingTime="14.00" waitingCount="1" stopTime="0.00" timeLoss="32.44" rerouteNo="0" devices="tripinfo_flow_route_55_duration_20250327_2100.1" vType="car" speedFactor="0.94" vaporized=""/>
    <tripinfo id="flow_route_56_duration_20250327_2100.3" depart="32.00" departLane="1341093415#0_0" departPos="15.87" departSpeed="0.00" departDelay="2.00" arrival="59.00" arrivalLane="409155823_0" arrivalPos="36.21" arrivalSpeed="12.57" duration="27.00" routeLength="225.18" waitingTime="0.00" waitingCount="0" stopTime="0.00" timeLoss="11.76" rerouteNo="0" devices="tripinfo_flow_route_56_duration_20250327_2100.3" vType="car" speedFactor="0.94" vaporized=""/>
    <tripinfo id="flow_route_55_duration_20250327_2100.0" depart="0.00" departLane="1341093415#0_0" departPos="132.48" departSpeed="0.00" departDelay="0.00" arrival="63.00" arrivalLane="791826085_0" arrivalPos="232.37" arrivalSpeed="15.27" duration="63.00" routeLength="289.60" waitingTime="24.00" waitingCount="1" stopTime="0.00" timeLoss="43.38" rerouteNo="0" devices="tripinfo_flow_route_55_duration_20250327_2100.0" vType="car" speedFactor="0.94" vaporized=""/>
    <tripinfo id="flow_route_56_duration_20250327_2100.4" depart="40.00" departLane="1341093415#0_0" departPos="32.68" departSpeed="0.00" departDelay="0.00" arrival="64.00" arrivalLane="409155823_0" arrivalPos="14.82" arrivalSpeed="10.86" duration="24.00" routeLength="186.98" waitingTime="0.00" waitingCount="0" stopTime="0.00" timeLoss="11.99" rerouteNo="0" devices="tripinfo_flow_route_56_duration_20250327_2100.4" vType="car" speedFactor="0.97" vaporized=""/>
    <tripinfo id="flow_route_54_duration_20250327_2100.0" depart="0.00" departLane="1341093415#0_0" departPos="7.77" departSpeed="0.00" departDelay="0.00" arrival="65.00" arrivalLane="1341093416#0_1" arrivalPos="244.31" arrivalSpeed="16.52" duration="65.00" routeLength="443.35" waitingTime="12.00" waitingCount="1" stopTime="0.00" timeLoss="38.02" rerouteNo="0" devices="tripinfo_flow_route_54_duration_20250327_2100.0" vType="car" speedFactor="1.06" vaporized=""/>
    <tripinfo id="flow_route_55_duration_20250327_2100.3" depart="36.00" departLane="1341093415#0_0" departPos="103.39" departSpeed="0.00" departDelay="0.00" arrival="65.00" arrivalLane="791826085_0" arrivalPos="160.64" arrivalSpeed="16.13" duration="29.00" routeLength="246.96" waitingTime="0.00" waitingCount="0" stopTime="0.00" timeLoss="13.12" rerouteNo="0" devices="tripinfo_flow_route_55_duration_20250327_2100.3" vType="car" speedFactor="1.01" vaporized=""/>
    <tripinfo id="flow_route_54_duration_20250327_2100.3" depart="45.00" departLane="1341093415#0_0" departPos="97.46" departSpeed="0.00" departDelay="0.00" arrival="66.00" arrivalLane="1341093416#0_0" arrivalPos="41.63" arrivalSpeed="14.87" duration="21.00" routeLength="150.99" waitingTime="0.00" waitingCount="0" stopTime="0.00" timeLoss="11.44" rerouteNo="0" devices="tripinfo_flow_route_54_duration_20250327_2100.3" vType="car" speedFactor="0.83" vaporized=""/>
    <tripinfo id="flow_route_56_duration_20250327_2100.5" depart="51.00" departLane="1341093415#0_0" departPos="32.20" departSpeed="0.00" departDelay="1.00" arrival="75.00" arrivalLane="409155823_0" arrivalPos="29.84" arrivalSpeed="13.34" duration="24.00" routeLength="202.48" waitingTime="0.00" waitingCount="0" stopTime="0.00" timeLoss="11.19" rerouteNo="0" devices="tripinfo_flow_route_56_duration_20250327_2100.5" vType="car" speedFactor="1.13" vaporized=""/>
    <tripinfo id="flow_route_55_duration_20250327_2100.2" depart="24.00" departLane="1341093415#0_0" departPos="5.32" departSpeed="0.00" departDelay="0.00" arrival="76.00" arrivalLane="791826085_0" arrivalPos="311.97" arrivalSpeed="16.37" duration="52.00" routeLength="496.37" waitingTime="0.00" waitingCount="0" stopTime="0.00" timeLoss="21.26" rerouteNo="0" devices="tripinfo_flow_route_55_duration_20250327_2100.2" vType="car" speedFactor="0.99" vaporized=""/>
    <tripinfo id="flow_route_61_duration_20250327_2100.2" depart="35.00" departLane="186407684#0_0" departPos="84.60" departSpeed="0.00" departDelay="5.00" arrival="90.00" arrivalLane="1341093416#0_1" arrivalPos="72.41" arrivalSpeed="12.49" duration="55.00" routeLength="101.99" waitingTime="36.00" waitingCount="1" stopTime="0.00" timeLoss="48.40" rerouteNo="0" devices="tripinfo_flow_route_61_duration_20250327_2100.2" vType="car" speedFactor="1.16" vaporized=""/>
    <tripinfo id="flow_route_60_duration_20250327_2100.9" depart="46.00" departLane="186407684#0_0" departPos="5.90" departSpeed="0.00" departDelay="1.00" arrival="91.00" arrivalLane="791826085_1" arrivalPos="9.08" arrivalSpeed="8.01" duration="45.00" routeLength="112.11" waitingTime="18.00" waitingCount="1" stopTime="0.00" timeLoss="37.01" rerouteNo="0" devices="tripinfo_flow_route_60_duration_20250327_2100.9" vType="car" speedFactor="0.87" vaporized=""/>
    <tripinfo id="flow_route_61_duration_20250327_2100.3" depart="46.00" departLane="186407684#0_0" departPos="15.77" departSpeed="0.00" departDelay="1.00" arrival="91.00" arrivalLane="1341093416#0_2" arrivalPos="76.46" arrivalSpeed="12.63" duration="45.00" routeLength="170.70" waitingTime="15.00" waitingCount="1" stopTime="0.00" timeLoss="33.08" rerouteNo="0" devices="tripinfo_flow_route_61_duration_20250327_2100.3" vType="car" speedFactor="0.92" vaporized=""/>
    <tripinfo id="flow_route_60_duration_20250327_2100.11" depart="55.00" departLane="186407684#0_0" departPos="63.62" departSpeed="0.00" departDelay="0.00" arrival="91.00" arrivalLane="791826085_0" arrivalPos="26.09" arrivalSpeed="9.59" duration="36.00" routeLength="71.40" waitingTime="16.00" waitingCount="1" stopTime="0.00" timeLoss="31.18" rerouteNo="0" devices="tripinfo_flow_route_60_duration_20250327_2100.11" vType="car" speedFactor="1.18" vaporized=""/>
    <tripinfo id="flow_route_55_duration_20250327_2100.4" depart="48.00" departLane="1341093415#0_0" departPos="55.94" departSpeed="0.00" departDelay="0.00" arrival="92.00" arrivalLane="791826085_0" arrivalPos="323.61" arrivalSpeed="15.74" duration="44.00" routeLength="457.38" waitingTime="0.00" waitingCount="0" stopTime="0.00" timeLoss="13.47" rerouteNo="0" devices="tripinfo_flow_route_55_duration_20250327_2100.4" vType="car" speedFactor="0.95" vaporized=""/>
    <tripinfo id="flow_route_60_duration_20250327_2100.10" depart="51.00" departLane="186407684#0_0" departPos="4.13" departSpeed="0.00" departDelay="1.00" arrival="93.00" arrivalLane="791826085_0" arrivalPos="28.05" arrivalSpeed="10.44" duration="42.00" routeLength="132.85" waitingTime="14.00" waitingCount="1" stopTime="0.00" timeLoss="33.18" rerouteNo="0" devices="tripinfo_flow_route_60_duration_20250327_2100.10" vType="car" speedFactor="0.93" vaporized=""/>
    <tripinfo id="flow_route_60_duration_20250327_2100.5" depart="26.00" departLane="186407684#0_0" departPos="11.40" departSpeed="0.00" departDelay="1.00" arrival="103.00" arrivalLane="791826085_1" arrivalPos="223.42" arrivalSpeed="15.03" duration="77.00" routeLength="320.95" waitingTime="35.00" waitingCount="1" stopTime="0.00" timeLoss="55.87" rerouteNo="0" devices="tripinfo_flow_route_60_duration_20250327_2100.5" vType="car" speedFactor="0.93" vaporized=""/>
    <tripinfo id="flow_route_60_duration_20250327_2100.6" depart="32.00" departLane="186407684#0_0" departPos="58.88" departSpeed="0.00" departDelay="2.00" arrival="107.00" arrivalLane="791826085_0" arrivalPos="314.57" arrivalSpeed="15.26" duration="75.00" routeLength="364.61" waitingTime="33.00" waitingCount="1" stopTime="0.00" timeLoss="51.50" rerouteNo="0" devices="tripinfo_flow_route_60_duration_20250327_2100.6" vType="car" speedFactor="0.94" vaporized=""/>
    <tripinfo id="flow_route_60_duration_20250327_2100.7" depart="35.00" departLane="186407684#0_0" departPos="27.13" departSpeed="0.00" departDelay="0.00" arrival="110.00" arrivalLane="791826085_1" arrivalPos="304.95" arrivalSpeed="16.16" duration="75.00" routeLength="386.75" waitingTime="29.00" waitingCount="1" stopTime="0.00" timeLoss="51.35" rerouteNo="0" devices="tripinfo_flow_route_60_duration_20250327_2100.7" vType="car" speedFactor="1.02" vaporized=""/>
    <tripinfo id="flow_route_60_duration_20250327_2100.8" depart="40.00" departLane="186407684#0_0" departPos="56.55" departSpeed="0.00" departDelay="0.00" arrival="110.00" arrivalLane="791826085_0" arrivalPos="311.42" arrivalSpeed="14.76" duration="70.00" routeLength="363.81" waitingTime="27.00" waitingCount="1" stopTime="0.00" timeLoss="44.85" rerouteNo="0" devices="tripinfo_flow_route_60_duration_20250327_2100.8" vType="car" speedFactor="0.89" vaporized=""/>
</tripinfos>
