<?xml version="1.0" encoding="UTF-8"?>

<!-- generated on 2025-05-06 21:07:52 by Eclipse SUMO sumo Version 1.20.0
<configuration xmlns:xsi="http://www.w3.org/2001/XMLSchema-instance" xsi:noNamespaceSchemaLocation="http://sumo.dlr.de/xsd/sumoConfiguration.xsd">

    <input>
        <net-file value="osm.net.xml"/>
        <route-files value="xml/route_rl_cluster_11644940323_11644940324_3828703845_1.rou.xml"/>
    </input>

    <output>
        <tripinfo-output value="xml/tripinfo_rl_cluster_11644940323_11644940324_3828703845_1.xml"/>
    </output>

    <traci_server>
        <remote-port value="34037"/>
    </traci_server>

</configuration>
-->

<tripinfos xmlns:xsi="http://www.w3.org/2001/XMLSchema-instance" xsi:noNamespaceSchemaLocation="http://sumo.dlr.de/xsd/tripinfo_file.xsd">
    <tripinfo id="flow_route_3_duration_20250327_2010.0" depart="0.00" departLane="1318793173#0_0" departPos="80.53" departSpeed="0.00" departDelay="0.00" arrival="19.00" arrivalLane="291974733#0_1" arrivalPos="66.76" arrivalSpeed="13.99" duration="19.00" routeLength="123.20" waitingTime="0.00" waitingCount="0" stopTime="0.00" timeLoss="10.27" rerouteNo="0" devices="tripinfo_flow_route_3_duration_20250327_2010.0" vType="car" speedFactor="0.94" vaporized=""/>
    <tripinfo id="flow_route_16_duration_20250327_2010.0" depart="0.00" departLane="137406408#0_0" departPos="52.27" departSpeed="0.00" departDelay="0.00" arrival="20.00" arrivalLane="133126040#0_0" arrivalPos="80.39" arrivalSpeed="14.69" duration="20.00" routeLength="149.31" waitingTime="0.00" waitingCount="0" stopTime="0.00" timeLoss="10.93" rerouteNo="0" devices="tripinfo_flow_route_16_duration_20250327_2010.0" vType="car" speedFactor="1.05" vaporized=""/>
    <tripinfo id="flow_route_2_duration_20250327_2010.0" depart="0.00" departLane="1318793173#0_0" departPos="58.93" departSpeed="0.00" departDelay="0.00" arrival="21.00" arrivalLane="189835257_0" arrivalPos="46.92" arrivalSpeed="15.82" duration="21.00" routeLength="167.93" waitingTime="0.00" waitingCount="0" stopTime="0.00" timeLoss="9.78" rerouteNo="0" devices="tripinfo_flow_route_2_duration_20250327_2010.0" vType="car" speedFactor="1.06" vaporized=""/>
    <tripinfo id="flow_route_17_duration_20250327_2010.0" depart="0.00" departLane="137406408#0_0" departPos="24.41" departSpeed="0.00" departDelay="0.00" arrival="22.00" arrivalLane="1254771874#0_0" arrivalPos="63.27" arrivalSpeed="16.22" duration="22.00" routeLength="182.06" waitingTime="0.00" waitingCount="0" stopTime="0.00" timeLoss="9.94" rerouteNo="0" devices="tripinfo_flow_route_17_duration_20250327_2010.0" vType="car" speedFactor="0.89" vaporized=""/>
    <tripinfo id="flow_route_9_duration_20250327_2010.0" depart="0.00" departLane="1318793173#0_0" departPos="0.65" departSpeed="0.00" departDelay="0.00" arrival="24.00" arrivalLane="1254771874#0_1" arrivalPos="11.63" arrivalSpeed="11.21" duration="24.00" routeLength="169.44" waitingTime="0.00" waitingCount="0" stopTime="0.00" timeLoss="12.40" rerouteNo="0" devices="tripinfo_flow_route_9_duration_20250327_2010.0" vType="car" speedFactor="1.01" vaporized=""/>
    <tripinfo id="flow_route_3_duration_20250327_2010.1" depart="9.00" departLane="1318793173#0_0" departPos="68.46" departSpeed="0.00" departDelay="0.43" arrival="27.00" arrivalLane="291974733#0_1" arrivalPos="48.06" arrivalSpeed="12.71" duration="18.00" routeLength="116.57" waitingTime="0.00" waitingCount="0" stopTime="0.00" timeLoss="10.41" rerouteNo="0" devices="tripinfo_flow_route_3_duration_20250327_2010.1" vType="car" speedFactor="1.09" vaporized=""/>
    <tripinfo id="flow_route_2_duration_20250327_2010.5" depart="16.00" departLane="1318793173#0_0" departPos="103.38" departSpeed="0.00" departDelay="0.22" arrival="31.00" arrivalLane="189835257_0" arrivalPos="8.38" arrivalSpeed="11.42" duration="15.00" routeLength="84.94" waitingTime="0.00" waitingCount="0" stopTime="0.00" timeLoss="8.20" rerouteNo="0" devices="tripinfo_flow_route_2_duration_20250327_2010.5" vType="car" speedFactor="0.93" vaporized=""/>
    <tripinfo id="flow_route_2_duration_20250327_2010.4" depart="13.00" departLane="1318793173#0_0" departPos="82.62" departSpeed="0.00" departDelay="0.37" arrival="33.00" arrivalLane="189835257_0" arrivalPos="15.89" arrivalSpeed="11.98" duration="20.00" routeLength="113.21" waitingTime="0.00" waitingCount="0" stopTime="0.00" timeLoss="12.21" rerouteNo="0" devices="tripinfo_flow_route_2_duration_20250327_2010.4" vType="car" speedFactor="0.99" vaporized=""/>
    <tripinfo id="flow_route_2_duration_20250327_2010.1" depart="4.00" departLane="1318793173#0_0" departPos="34.79" departSpeed="0.00" departDelay="0.84" arrival="37.00" arrivalLane="189835257_0" arrivalPos="46.11" arrivalSpeed="14.64" duration="33.00" routeLength="191.25" waitingTime="0.00" waitingCount="0" stopTime="0.00" timeLoss="19.48" rerouteNo="0" devices="tripinfo_flow_route_2_duration_20250327_2010.1" vType="car" speedFactor="0.94" vaporized=""/>
    <tripinfo id="flow_route_2_duration_20250327_2010.3" depart="11.00" departLane="1318793173#0_0" departPos="25.58" departSpeed="0.00" departDelay="1.53" arrival="38.00" arrivalLane="189835257_0" arrivalPos="43.41" arrivalSpeed="14.52" duration="27.00" routeLength="197.77" waitingTime="0.00" waitingCount="0" stopTime="0.00" timeLoss="14.47" rerouteNo="0" devices="tripinfo_flow_route_2_duration_20250327_2010.3" vType="car" speedFactor="1.05" vaporized=""/>
    <tripinfo id="flow_route_3_duration_20250327_2010.2" depart="20.00" departLane="1318793173#0_0" departPos="28.54" departSpeed="0.00" departDelay="2.86" arrival="38.00" arrivalLane="291974733#0_2" arrivalPos="2.79" arrivalSpeed="11.33" duration="18.00" routeLength="111.22" waitingTime="0.00" waitingCount="0" stopTime="0.00" timeLoss="10.40" rerouteNo="0" devices="tripinfo_flow_route_3_duration_20250327_2010.2" vType="car" speedFactor="0.88" vaporized=""/>
    <tripinfo id="flow_route_2_duration_20250327_2010.2" depart="7.00" departLane="1318793173#0_0" departPos="4.99" departSpeed="0.00" departDelay="0.69" arrival="40.00" arrivalLane="189835257_0" arrivalPos="36.00" arrivalSpeed="14.19" duration="33.00" routeLength="210.95" waitingTime="0.00" waitingCount="0" stopTime="0.00" timeLoss="17.02" rerouteNo="0" devices="tripinfo_flow_route_2_duration_20250327_2010.2" vType="car" speedFactor="0.86" vaporized=""/>
    <tripinfo id="flow_route_2_duration_20250327_2010.6" depart="21.00" departLane="1318793173#0_0" departPos="18.15" departSpeed="0.00" departDelay="2.06" arrival="45.00" arrivalLane="189835257_0" arrivalPos="6.60" arrivalSpeed="13.19" duration="24.00" routeLength="168.39" waitingTime="0.00" waitingCount="0" stopTime="0.00" timeLoss="12.33" rerouteNo="0" devices="tripinfo_flow_route_2_duration_20250327_2010.6" vType="car" speedFactor="0.94" vaporized=""/>
    <tripinfo id="flow_route_2_duration_20250327_2010.7" depart="25.00" departLane="1318793173#0_0" departPos="64.43" departSpeed="0.00" departDelay="2.90" arrival="46.00" arrivalLane="189835257_0" arrivalPos="42.74" arrivalSpeed="15.20" duration="21.00" routeLength="158.25" waitingTime="0.00" waitingCount="0" stopTime="0.00" timeLoss="10.47" rerouteNo="0" devices="tripinfo_flow_route_2_duration_20250327_2010.7" vType="car" speedFactor="1.02" vaporized=""/>
    <tripinfo id="flow_route_3_duration_20250327_2010.3" depart="30.00" departLane="1318793173#0_0" departPos="100.30" departSpeed="0.00" departDelay="4.29" arrival="49.00" arrivalLane="291974733#0_1" arrivalPos="87.61" arrivalSpeed="13.79" duration="19.00" routeLength="124.27" waitingTime="0.00" waitingCount="0" stopTime="0.00" timeLoss="10.79" rerouteNo="0" devices="tripinfo_flow_route_3_duration_20250327_2010.3" vType="car" speedFactor="0.97" vaporized=""/>
    <tripinfo id="flow_route_9_duration_20250327_2010.1" depart="11.00" departLane="1318793173#0_0" departPos="3.50" departSpeed="0.00" departDelay="1.00" arrival="51.00" arrivalLane="1254771874#0_1" arrivalPos="226.89" arrivalSpeed="16.26" duration="40.00" routeLength="381.86" waitingTime="0.00" waitingCount="0" stopTime="0.00" timeLoss="15.57" rerouteNo="0" devices="tripinfo_flow_route_9_duration_20250327_2010.1" vType="car" speedFactor="1.12" vaporized=""/>
    <tripinfo id="flow_route_9_duration_20250327_2010.3" depart="40.00" departLane="1318793173#0_0" departPos="105.57" departSpeed="0.00" departDelay="10.00" arrival="55.00" arrivalLane="1254771874#0_1" arrivalPos="38.81" arrivalSpeed="10.97" duration="15.00" routeLength="91.72" waitingTime="0.00" waitingCount="0" stopTime="0.00" timeLoss="7.86" rerouteNo="0" devices="tripinfo_flow_route_9_duration_20250327_2010.3" vType="car" speedFactor="0.87" vaporized=""/>
    <tripinfo id="flow_route_2_duration_20250327_2010.12" depart="40.00" departLane="1318793173#0_0" departPos="94.62" departSpeed="0.00" departDelay="2.12" arrival="58.00" arrivalLane="189835257_0" arrivalPos="43.47" arrivalSpeed="14.41" duration="18.00" routeLength="128.79" waitingTime="0.00" waitingCount="0" stopTime="0.00" timeLoss="9.31" rerouteNo="0" devices="tripinfo_flow_route_2_duration_20250327_2010.12" vType="car" speedFactor="1.17" vaporized=""/>
    <tripinfo id="flow_route_2_duration_20250327_2010.8" depart="28.00" departLane="1318793173#0_0" departPos="18.20" departSpeed="0.00" departDelay="2.74" arrival="60.00" arrivalLane="189835257_0" arrivalPos="36.42" arrivalSpeed="13.95" duration="32.00" routeLength="198.16" waitingTime="0.00" waitingCount="0" stopTime="0.00" timeLoss="18.85" rerouteNo="0" devices="tripinfo_flow_route_2_duration_20250327_2010.8" vType="car" speedFactor="1.01" vaporized=""/>
    <tripinfo id="flow_route_2_duration_20250327_2010.9" depart="30.00" departLane="1318793173#0_0" departPos="7.24" departSpeed="0.00" departDelay="1.59" arrival="60.00" arrivalLane="189835257_0" arrivalPos="9.66" arrivalSpeed="11.91" duration="30.00" routeLength="182.36" waitingTime="0.00" waitingCount="0" stopTime="0.00" timeLoss="15.72" rerouteNo="0" devices="tripinfo_flow_route_2_duration_20250327_2010.9" vType="car" speedFactor="0.83" vaporized=""/>
    <tripinfo id="flow_route_3_duration_20250327_2010.4" depart="40.00" departLane="1318793173#0_0" departPos="11.32" departSpeed="0.00" departDelay="5.72" arrival="61.00" arrivalLane="291974733#0_1" arrivalPos="19.90" arrivalSpeed="12.37" duration="21.00" routeLength="145.54" waitingTime="0.00" waitingCount="0" stopTime="0.00" timeLoss="11.69" rerouteNo="0" devices="tripinfo_flow_route_3_duration_20250327_2010.4" vType="car" speedFactor="1.15" vaporized=""/>
    <tripinfo id="flow_route_3_duration_20250327_2010.5" depart="45.00" departLane="1318793173#0_0" departPos="75.59" departSpeed="0.00" departDelay="2.15" arrival="61.00" arrivalLane="291974733#0_1" arrivalPos="42.71" arrivalSpeed="12.55" duration="16.00" routeLength="104.07" waitingTime="0.00" waitingCount="0" stopTime="0.00" timeLoss="9.11" rerouteNo="0" devices="tripinfo_flow_route_3_duration_20250327_2010.5" vType="car" speedFactor="0.97" vaporized=""/>
    <tripinfo id="flow_route_2_duration_20250327_2010.13" depart="43.00" departLane="1318793173#0_0" departPos="61.99" departSpeed="0.00" departDelay="1.96" arrival="63.00" arrivalLane="189835257_0" arrivalPos="25.94" arrivalSpeed="14.32" duration="20.00" routeLength="143.89" waitingTime="0.00" waitingCount="0" stopTime="0.00" timeLoss="10.24" rerouteNo="0" devices="tripinfo_flow_route_2_duration_20250327_2010.13" vType="car" speedFactor="1.02" vaporized=""/>
    <tripinfo id="flow_route_9_duration_20250327_2010.2" depart="23.00" departLane="1318793173#0_0" departPos="9.62" departSpeed="0.00" departDelay="3.00" arrival="64.00" arrivalLane="1254771874#0_0" arrivalPos="246.56" arrivalSpeed="16.26" duration="41.00" routeLength="395.41" waitingTime="0.00" waitingCount="0" stopTime="0.00" timeLoss="15.59" rerouteNo="0" devices="tripinfo_flow_route_9_duration_20250327_2010.2" vType="car" speedFactor="1.16" vaporized=""/>
    <tripinfo id="flow_route_2_duration_20250327_2010.11" depart="40.00" departLane="1318793173#0_0" departPos="32.72" departSpeed="0.00" departDelay="5.27" arrival="64.00" arrivalLane="189835257_0" arrivalPos="15.27" arrivalSpeed="14.37" duration="24.00" routeLength="162.50" waitingTime="0.00" waitingCount="0" stopTime="0.00" timeLoss="13.21" rerouteNo="0" devices="tripinfo_flow_route_2_duration_20250327_2010.11" vType="car" speedFactor="1.18" vaporized=""/>
    <tripinfo id="flow_route_2_duration_20250327_2010.10" depart="40.00" departLane="1318793173#0_0" departPos="2.58" departSpeed="0.00" departDelay="8.43" arrival="66.00" arrivalLane="189835257_0" arrivalPos="9.51" arrivalSpeed="13.25" duration="26.00" routeLength="186.88" waitingTime="0.00" waitingCount="0" stopTime="0.00" timeLoss="12.79" rerouteNo="0" devices="tripinfo_flow_route_2_duration_20250327_2010.10" vType="car" speedFactor="0.93" vaporized=""/>
    <tripinfo id="flow_route_9_duration_20250327_2010.4" depart="42.00" departLane="1318793173#0_0" departPos="45.94" departSpeed="0.00" departDelay="2.00" arrival="68.00" arrivalLane="1254771874#0_1" arrivalPos="93.35" arrivalSpeed="15.77" duration="26.00" routeLength="205.88" waitingTime="0.00" waitingCount="0" stopTime="0.00" timeLoss="11.76" rerouteNo="0" devices="tripinfo_flow_route_9_duration_20250327_2010.4" vType="car" speedFactor="0.99" vaporized=""/>
    <tripinfo id="flow_route_3_duration_20250327_2010.6" depart="56.00" departLane="1318793173#0_0" departPos="63.66" departSpeed="0.00" departDelay="4.57" arrival="73.00" arrivalLane="291974733#0_1" arrivalPos="34.82" arrivalSpeed="13.15" duration="17.00" routeLength="108.12" waitingTime="0.00" waitingCount="0" stopTime="0.00" timeLoss="10.00" rerouteNo="0" devices="tripinfo_flow_route_3_duration_20250327_2010.6" vType="car" speedFactor="1.09" vaporized=""/>
    <tripinfo id="flow_route_2_duration_20250327_2010.18" depart="57.00" departLane="1318793173#0_0" departPos="73.58" departSpeed="0.00" departDelay="0.17" arrival="75.00" arrivalLane="189835257_0" arrivalPos="19.98" arrivalSpeed="13.89" duration="18.00" routeLength="126.34" waitingTime="0.00" waitingCount="0" stopTime="0.00" timeLoss="9.52" rerouteNo="0" devices="tripinfo_flow_route_2_duration_20250327_2010.18" vType="car" speedFactor="1.09" vaporized=""/>
    <tripinfo id="flow_route_2_duration_20250327_2010.16" depart="56.00" departLane="1318793173#0_0" departPos="46.56" departSpeed="0.00" departDelay="5.49" arrival="76.00" arrivalLane="189835257_0" arrivalPos="7.43" arrivalSpeed="13.12" duration="20.00" routeLength="140.81" waitingTime="0.00" waitingCount="0" stopTime="0.00" timeLoss="10.22" rerouteNo="0" devices="tripinfo_flow_route_2_duration_20250327_2010.16" vType="car" speedFactor="0.96" vaporized=""/>
    <tripinfo id="flow_route_9_duration_20250327_2010.5" depart="55.00" departLane="1318793173#0_0" departPos="37.24" departSpeed="0.00" departDelay="5.00" arrival="78.00" arrivalLane="1254771874#0_1" arrivalPos="31.77" arrivalSpeed="12.74" duration="23.00" routeLength="153.01" waitingTime="0.00" waitingCount="0" stopTime="0.00" timeLoss="11.88" rerouteNo="0" devices="tripinfo_flow_route_9_duration_20250327_2010.5" vType="car" speedFactor="1.03" vaporized=""/>
    <tripinfo id="flow_route_2_duration_20250327_2010.17" depart="56.00" departLane="1318793173#0_0" departPos="29.97" departSpeed="0.00" departDelay="2.33" arrival="80.00" arrivalLane="189835257_0" arrivalPos="44.52" arrivalSpeed="15.16" duration="24.00" routeLength="194.50" waitingTime="0.00" waitingCount="0" stopTime="0.00" timeLoss="11.55" rerouteNo="0" devices="tripinfo_flow_route_2_duration_20250327_2010.17" vType="car" speedFactor="1.04" vaporized=""/>
    <tripinfo id="flow_route_2_duration_20250327_2010.14" depart="52.00" departLane="1318793173#0_0" departPos="4.60" departSpeed="0.00" departDelay="7.80" arrival="83.00" arrivalLane="189835257_0" arrivalPos="18.06" arrivalSpeed="13.69" duration="31.00" routeLength="193.39" waitingTime="0.00" waitingCount="0" stopTime="0.00" timeLoss="19.02" rerouteNo="0" devices="tripinfo_flow_route_2_duration_20250327_2010.14" vType="car" speedFactor="1.10" vaporized=""/>
    <tripinfo id="flow_route_2_duration_20250327_2010.15" depart="54.00" departLane="1318793173#0_0" departPos="16.60" departSpeed="0.00" departDelay="6.65" arrival="83.00" arrivalLane="189835257_0" arrivalPos="41.13" arrivalSpeed="14.82" duration="29.00" routeLength="204.47" waitingTime="0.00" waitingCount="0" stopTime="0.00" timeLoss="14.42" rerouteNo="0" devices="tripinfo_flow_route_2_duration_20250327_2010.15" vType="car" speedFactor="0.90" vaporized=""/>
    <tripinfo id="flow_route_13_duration_20250327_2010.0" depart="0.00" departLane="1252820503#0_0" departPos="99.64" departSpeed="0.00" departDelay="0.00" arrival="85.00" arrivalLane="291974733#0_0" arrivalPos="46.05" arrivalSpeed="9.38" duration="85.00" routeLength="103.57" waitingTime="60.00" waitingCount="1" stopTime="0.00" timeLoss="77.77" rerouteNo="0" devices="tripinfo_flow_route_13_duration_20250327_2010.0" vType="car" speedFactor="1.08" vaporized=""/>
    <tripinfo id="flow_route_15_duration_20250327_2010.0" depart="1.00" departLane="1252820503#0_0" departPos="8.92" departSpeed="0.00" departDelay="1.00" arrival="85.00" arrivalLane="133126040#0_1" arrivalPos="4.72" arrivalSpeed="8.57" duration="84.00" routeLength="174.98" waitingTime="52.00" waitingCount="1" stopTime="0.00" timeLoss="72.20" rerouteNo="0" devices="tripinfo_flow_route_15_duration_20250327_2010.0" vType="car" speedFactor="0.83" vaporized=""/>
    <tripinfo id="flow_route_13_duration_20250327_2010.1" depart="32.00" departLane="1252820503#0_0" departPos="11.84" departSpeed="0.00" departDelay="2.00" arrival="90.00" arrivalLane="291974733#0_0" arrivalPos="2.61" arrivalSpeed="5.47" duration="58.00" routeLength="147.92" waitingTime="27.00" waitingCount="1" stopTime="0.00" timeLoss="48.22" rerouteNo="0" devices="tripinfo_flow_route_13_duration_20250327_2010.1" vType="car" speedFactor="0.92" vaporized=""/>
    <tripinfo id="flow_route_14_duration_20250327_2010.1" depart="10.00" departLane="1252820503#0_0" departPos="58.71" departSpeed="0.00" departDelay="1.43" arrival="95.00" arrivalLane="1254771874#0_0" arrivalPos="78.49" arrivalSpeed="14.99" duration="85.00" routeLength="229.66" waitingTime="49.00" waitingCount="1" stopTime="0.00" timeLoss="70.46" rerouteNo="0" devices="tripinfo_flow_route_14_duration_20250327_2010.1" vType="car" speedFactor="1.03" vaporized=""/>
    <tripinfo id="flow_route_14_duration_20250327_2010.0" depart="0.00" departLane="1252820503#0_0" departPos="69.02" departSpeed="0.00" departDelay="0.00" arrival="97.00" arrivalLane="1254771874#0_0" arrivalPos="150.80" arrivalSpeed="16.29" duration="97.00" routeLength="291.67" waitingTime="57.00" waitingCount="1" stopTime="0.00" timeLoss="78.52" rerouteNo="0" devices="tripinfo_flow_route_14_duration_20250327_2010.0" vType="car" speedFactor="1.03" vaporized=""/>
    <tripinfo id="flow_route_14_duration_20250327_2010.6" depart="52.00" departLane="1252820503#0_0" departPos="99.98" departSpeed="0.00" departDelay="0.57" arrival="101.00" arrivalLane="1254771874#0_1" arrivalPos="122.70" arrivalSpeed="16.19" duration="49.00" routeLength="232.60" waitingTime="14.00" waitingCount="1" stopTime="0.00" timeLoss="34.16" rerouteNo="0" devices="tripinfo_flow_route_14_duration_20250327_2010.6" vType="car" speedFactor="1.04" vaporized=""/>
    <tripinfo id="flow_route_14_duration_20250327_2010.2" depart="18.00" departLane="1252820503#0_0" departPos="19.15" departSpeed="0.00" departDelay="0.86" arrival="102.00" arrivalLane="1254771874#0_1" arrivalPos="175.12" arrivalSpeed="16.22" duration="84.00" routeLength="365.84" waitingTime="38.00" waitingCount="1" stopTime="0.00" timeLoss="61.45" rerouteNo="0" devices="tripinfo_flow_route_14_duration_20250327_2010.2" vType="car" speedFactor="0.94" vaporized=""/>
    <tripinfo id="flow_route_14_duration_20250327_2010.4" depart="35.00" departLane="1252820503#0_0" departPos="91.07" departSpeed="0.00" departDelay="0.72" arrival="105.00" arrivalLane="1254771874#0_0" arrivalPos="173.48" arrivalSpeed="16.35" duration="70.00" routeLength="292.30" waitingTime="29.00" waitingCount="1" stopTime="0.00" timeLoss="51.82" rerouteNo="0" devices="tripinfo_flow_route_14_duration_20250327_2010.4" vType="car" speedFactor="1.01" vaporized=""/>
    <tripinfo id="flow_route_14_duration_20250327_2010.3" depart="26.00" departLane="1252820503#0_0" departPos="72.93" departSpeed="0.00" departDelay="0.29" arrival="107.00" arrivalLane="1254771874#0_0" arrivalPos="245.38" arrivalSpeed="16.19" duration="81.00" routeLength="382.33" waitingTime="35.00" waitingCount="1" stopTime="0.00" timeLoss="57.19" rerouteNo="0" devices="tripinfo_flow_route_14_duration_20250327_2010.3" vType="car" speedFactor="0.89" vaporized=""/>
    <tripinfo id="flow_route_14_duration_20250327_2010.5" depart="43.00" departLane="1252820503#0_0" departPos="43.87" departSpeed="0.00" departDelay="0.15" arrival="109.00" arrivalLane="1254771874#0_1" arrivalPos="223.37" arrivalSpeed="16.35" duration="66.00" routeLength="389.38" waitingTime="14.00" waitingCount="2" stopTime="0.00" timeLoss="42.28" rerouteNo="0" devices="tripinfo_flow_route_14_duration_20250327_2010.5" vType="car" speedFactor="1.18" vaporized=""/>
    <tripinfo id="flow_route_16_duration_20250327_2010.1" depart="30.00" departLane="137406408#0_0" departPos="28.97" departSpeed="0.00" departDelay="0.00" arrival="123.00" arrivalLane="133126040#0_0" arrivalPos="30.16" arrivalSpeed="8.94" duration="93.00" routeLength="122.38" waitingTime="67.00" waitingCount="1" stopTime="0.00" timeLoss="84.91" rerouteNo="0" devices="tripinfo_flow_route_16_duration_20250327_2010.1" vType="car" speedFactor="0.95" vaporized=""/>
    <tripinfo id="flow_route_17_duration_20250327_2010.1" depart="31.00" departLane="137406408#0_0" departPos="19.12" departSpeed="0.00" departDelay="1.00" arrival="135.00" arrivalLane="1254771874#0_0" arrivalPos="139.77" arrivalSpeed="16.19" duration="104.00" routeLength="263.85" waitingTime="64.00" waitingCount="1" stopTime="0.00" timeLoss="87.32" rerouteNo="0" devices="tripinfo_flow_route_17_duration_20250327_2010.1" vType="car" speedFactor="1.13" vaporized=""/>
</tripinfos>
