<?xml version="1.0" encoding="UTF-8"?>

<!-- generated on 2025-05-06 21:08:53 by Eclipse SUMO sumo Version 1.20.0
<configuration xmlns:xsi="http://www.w3.org/2001/XMLSchema-instance" xsi:noNamespaceSchemaLocation="http://sumo.dlr.de/xsd/sumoConfiguration.xsd">

    <input>
        <net-file value="osm.net.xml"/>
        <route-files value="xml/route_rl_11644940310_7.rou.xml"/>
    </input>

    <output>
        <tripinfo-output value="xml/tripinfo_rl_11644940310_7.xml"/>
    </output>

    <traci_server>
        <remote-port value="53287"/>
    </traci_server>

</configuration>
-->

<tripinfos xmlns:xsi="http://www.w3.org/2001/XMLSchema-instance" xsi:noNamespaceSchemaLocation="http://sumo.dlr.de/xsd/tripinfo_file.xsd">
    <tripinfo id="flow_route_27_duration_20250327_1950.0" depart="0.00" departLane="1254771874#0_0" departPos="190.47" departSpeed="0.00" departDelay="0.00" arrival="15.00" arrivalLane="138002006#0_1" arrivalPos="4.04" arrivalSpeed="9.09" duration="15.00" routeLength="85.46" waitingTime="0.00" waitingCount="0" stopTime="0.00" timeLoss="8.79" rerouteNo="0" devices="tripinfo_flow_route_27_duration_20250327_1950.0" vType="car" speedFactor="1.01" vaporized=""/>
    <tripinfo id="flow_route_27_duration_20250327_1950.2" depart="7.00" departLane="1254771874#0_0" departPos="210.71" departSpeed="0.00" departDelay="0.69" arrival="30.00" arrivalLane="138002006#0_1" arrivalPos="83.36" arrivalSpeed="14.72" duration="23.00" routeLength="144.54" waitingTime="1.00" waitingCount="1" stopTime="0.00" timeLoss="13.09" rerouteNo="0" devices="tripinfo_flow_route_27_duration_20250327_1950.2" vType="car" speedFactor="1.09" vaporized=""/>
    <tripinfo id="flow_route_27_duration_20250327_1950.1" depart="4.00" departLane="1254771874#0_0" departPos="82.30" departSpeed="0.00" departDelay="0.84" arrival="32.00" arrivalLane="138002006#0_1" arrivalPos="5.35" arrivalSpeed="7.89" duration="28.00" routeLength="194.94" waitingTime="0.00" waitingCount="0" stopTime="0.00" timeLoss="15.12" rerouteNo="0" devices="tripinfo_flow_route_27_duration_20250327_1950.1" vType="car" speedFactor="0.89" vaporized=""/>
    <tripinfo id="flow_route_25_duration_20250327_1950.0" depart="0.00" departLane="1254771874#0_0" departPos="63.27" departSpeed="0.00" departDelay="0.00" arrival="34.00" arrivalLane="1341093415#0_1" arrivalPos="158.81" arrivalSpeed="16.46" duration="34.00" routeLength="373.33" waitingTime="0.00" waitingCount="0" stopTime="0.00" timeLoss="10.87" rerouteNo="0" devices="tripinfo_flow_route_25_duration_20250327_1950.0" vType="car" speedFactor="1.06" vaporized=""/>
    <tripinfo id="flow_route_26_duration_20250327_1950.0" depart="0.00" departLane="1254771874#0_0" departPos="139.38" departSpeed="0.00" departDelay="0.00" arrival="38.00" arrivalLane="-422986370#2_0" arrivalPos="213.43" arrivalSpeed="15.53" duration="38.00" routeLength="338.64" waitingTime="0.00" waitingCount="0" stopTime="0.00" timeLoss="15.90" rerouteNo="0" devices="tripinfo_flow_route_26_duration_20250327_1950.0" vType="car" speedFactor="0.94" vaporized=""/>
    <tripinfo id="flow_route_27_duration_20250327_1950.8" depart="26.00" departLane="1254771874#0_0" departPos="237.24" departSpeed="0.00" departDelay="0.74" arrival="41.00" arrivalLane="138002006#0_1" arrivalPos="48.54" arrivalSpeed="10.89" duration="15.00" routeLength="83.18" waitingTime="0.00" waitingCount="0" stopTime="0.00" timeLoss="9.23" rerouteNo="0" devices="tripinfo_flow_route_27_duration_20250327_1950.8" vType="car" speedFactor="1.13" vaporized=""/>
    <tripinfo id="flow_route_50_duration_20250327_1950.0" depart="0.00" departLane="-138002006#3_0" departPos="41.39" departSpeed="0.00" departDelay="0.00" arrival="47.00" arrivalLane="-422986370#2_0" arrivalPos="13.06" arrivalSpeed="7.51" duration="47.00" routeLength="82.72" waitingTime="25.00" waitingCount="1" stopTime="0.00" timeLoss="40.78" rerouteNo="0" devices="tripinfo_flow_route_50_duration_20250327_1950.0" vType="car" speedFactor="0.83" vaporized=""/>
    <tripinfo id="flow_route_41_duration_20250327_1950.4" depart="16.00" departLane="1369578054_0" departPos="289.02" departSpeed="0.00" departDelay="0.00" arrival="47.00" arrivalLane="138002006#0_1" arrivalPos="11.13" arrivalSpeed="7.54" duration="31.00" routeLength="44.04" waitingTime="15.00" waitingCount="1" stopTime="0.00" timeLoss="27.86" rerouteNo="0" devices="tripinfo_flow_route_41_duration_20250327_1950.4" vType="car" speedFactor="0.94" vaporized=""/>
    <tripinfo id="flow_route_40_duration_20250327_1950.2" depart="12.00" departLane="1369578054_0" departPos="229.08" departSpeed="0.00" departDelay="0.00" arrival="49.00" arrivalLane="1341093415#0_0" arrivalPos="5.78" arrivalSpeed="6.53" duration="37.00" routeLength="87.62" waitingTime="12.00" waitingCount="1" stopTime="0.00" timeLoss="30.99" rerouteNo="0" devices="tripinfo_flow_route_40_duration_20250327_1950.2" vType="car" speedFactor="1.12" vaporized=""/>
    <tripinfo id="flow_route_41_duration_20250327_1950.0" depart="0.00" departLane="1369578054_0" departPos="201.66" departSpeed="0.00" departDelay="0.00" arrival="51.00" arrivalLane="138002006#0_0" arrivalPos="52.37" arrivalSpeed="11.18" duration="51.00" routeLength="172.64" waitingTime="20.00" waitingCount="1" stopTime="0.00" timeLoss="40.29" rerouteNo="0" devices="tripinfo_flow_route_41_duration_20250327_1950.0" vType="car" speedFactor="1.03" vaporized=""/>
    <tripinfo id="flow_route_40_duration_20250327_1950.3" depart="21.00" departLane="1369578054_0" departPos="287.64" departSpeed="0.00" departDelay="3.00" arrival="52.00" arrivalLane="1341093415#0_0" arrivalPos="47.07" arrivalSpeed="10.09" duration="31.00" routeLength="70.35" waitingTime="13.00" waitingCount="1" stopTime="0.00" timeLoss="25.70" rerouteNo="0" devices="tripinfo_flow_route_40_duration_20250327_1950.3" vType="car" speedFactor="1.16" vaporized=""/>
    <tripinfo id="flow_route_41_duration_20250327_1950.3" depart="12.00" departLane="1369578054_0" departPos="47.67" departSpeed="0.00" departDelay="0.00" arrival="55.00" arrivalLane="138002006#0_1" arrivalPos="26.79" arrivalSpeed="9.90" duration="43.00" routeLength="301.04" waitingTime="1.00" waitingCount="1" stopTime="0.00" timeLoss="24.48" rerouteNo="0" devices="tripinfo_flow_route_41_duration_20250327_1950.3" vType="car" speedFactor="0.99" vaporized=""/>
    <tripinfo id="flow_route_41_duration_20250327_1950.5" depart="22.00" departLane="1369578054_0" departPos="50.46" departSpeed="0.00" departDelay="2.00" arrival="55.00" arrivalLane="138002006#0_1" arrivalPos="7.90" arrivalSpeed="9.20" duration="33.00" routeLength="279.37" waitingTime="0.00" waitingCount="0" stopTime="0.00" timeLoss="15.48" rerouteNo="0" devices="tripinfo_flow_route_41_duration_20250327_1950.5" vType="car" speedFactor="0.97" vaporized=""/>
    <tripinfo id="flow_route_41_duration_20250327_1950.1" depart="6.00" departLane="1369578054_0" departPos="92.01" departSpeed="0.00" departDelay="2.00" arrival="56.00" arrivalLane="138002006#0_1" arrivalPos="77.73" arrivalSpeed="12.77" duration="50.00" routeLength="307.65" waitingTime="7.00" waitingCount="1" stopTime="0.00" timeLoss="29.66" rerouteNo="0" devices="tripinfo_flow_route_41_duration_20250327_1950.1" vType="car" speedFactor="0.94" vaporized=""/>
    <tripinfo id="flow_route_26_duration_20250327_1950.1" depart="20.00" departLane="1254771874#0_0" departPos="176.79" departSpeed="0.00" departDelay="0.00" arrival="56.00" arrivalLane="-422986370#2_0" arrivalPos="243.14" arrivalSpeed="16.45" duration="36.00" routeLength="330.96" waitingTime="0.00" waitingCount="0" stopTime="0.00" timeLoss="14.55" rerouteNo="0" devices="tripinfo_flow_route_26_duration_20250327_1950.1" vType="car" speedFactor="1.01" vaporized=""/>
    <tripinfo id="flow_route_50_duration_20250327_1950.2" depart="40.00" departLane="-138002006#3_0" departPos="43.74" departSpeed="0.00" departDelay="0.00" arrival="56.00" arrivalLane="-422986370#2_0" arrivalPos="31.37" arrivalSpeed="12.27" duration="16.00" routeLength="98.67" waitingTime="0.00" waitingCount="0" stopTime="0.00" timeLoss="9.40" rerouteNo="0" devices="tripinfo_flow_route_50_duration_20250327_1950.2" vType="car" speedFactor="0.96" vaporized=""/>
    <tripinfo id="flow_route_41_duration_20250327_1950.8" depart="34.00" departLane="1369578054_0" departPos="203.36" departSpeed="0.00" departDelay="2.00" arrival="57.00" arrivalLane="138002006#0_1" arrivalPos="7.10" arrivalSpeed="9.99" duration="23.00" routeLength="125.67" waitingTime="0.00" waitingCount="0" stopTime="0.00" timeLoss="15.23" rerouteNo="0" devices="tripinfo_flow_route_41_duration_20250327_1950.8" vType="car" speedFactor="0.99" vaporized=""/>
    <tripinfo id="flow_route_41_duration_20250327_1950.2" depart="8.00" departLane="1369578054_0" departPos="118.83" departSpeed="0.00" departDelay="0.00" arrival="58.00" arrivalLane="138002006#0_1" arrivalPos="78.79" arrivalSpeed="13.24" duration="50.00" routeLength="281.89" waitingTime="5.00" waitingCount="1" stopTime="0.00" timeLoss="32.47" rerouteNo="0" devices="tripinfo_flow_route_41_duration_20250327_1950.2" vType="car" speedFactor="1.03" vaporized=""/>
    <tripinfo id="flow_route_40_duration_20250327_1950.1" depart="6.00" departLane="1369578054_0" departPos="189.81" departSpeed="0.00" departDelay="0.00" arrival="60.00" arrivalLane="1341093415#0_0" arrivalPos="91.43" arrivalSpeed="13.10" duration="54.00" routeLength="212.54" waitingTime="12.00" waitingCount="1" stopTime="0.00" timeLoss="38.83" rerouteNo="0" devices="tripinfo_flow_route_40_duration_20250327_1950.1" vType="car" speedFactor="0.86" vaporized=""/>
    <tripinfo id="flow_route_41_duration_20250327_1950.6" depart="24.00" departLane="1369578054_0" departPos="83.55" departSpeed="0.00" departDelay="0.00" arrival="60.00" arrivalLane="138002006#0_1" arrivalPos="13.48" arrivalSpeed="11.85" duration="36.00" routeLength="251.86" waitingTime="0.00" waitingCount="0" stopTime="0.00" timeLoss="19.36" rerouteNo="0" devices="tripinfo_flow_route_41_duration_20250327_1950.6" vType="car" speedFactor="0.95" vaporized=""/>
    <tripinfo id="flow_route_41_duration_20250327_1950.7" depart="28.00" departLane="1369578054_0" departPos="53.63" departSpeed="0.00" departDelay="0.00" arrival="61.00" arrivalLane="138002006#0_1" arrivalPos="5.95" arrivalSpeed="11.83" duration="33.00" routeLength="274.25" waitingTime="0.00" waitingCount="0" stopTime="0.00" timeLoss="14.66" rerouteNo="0" devices="tripinfo_flow_route_41_duration_20250327_1950.7" vType="car" speedFactor="0.93" vaporized=""/>
    <tripinfo id="flow_route_40_duration_20250327_1950.0" depart="0.00" departLane="1369578054_0" departPos="1.81" departSpeed="0.00" departDelay="0.00" arrival="62.00" arrivalLane="1341093415#0_0" arrivalPos="87.60" arrivalSpeed="13.21" duration="62.00" routeLength="396.71" waitingTime="9.00" waitingCount="1" stopTime="0.00" timeLoss="37.06" rerouteNo="0" devices="tripinfo_flow_route_40_duration_20250327_1950.0" vType="car" speedFactor="1.08" vaporized=""/>
    <tripinfo id="flow_route_50_duration_20250327_1950.1" depart="21.00" departLane="-138002006#3_0" departPos="43.73" departSpeed="0.00" departDelay="1.00" arrival="65.00" arrivalLane="-422986370#2_0" arrivalPos="200.14" arrivalSpeed="14.33" duration="44.00" routeLength="267.45" waitingTime="5.00" waitingCount="1" stopTime="0.00" timeLoss="25.13" rerouteNo="0" devices="tripinfo_flow_route_50_duration_20250327_1950.1" vType="car" speedFactor="0.89" vaporized=""/>
    <tripinfo id="flow_route_41_duration_20250327_1950.9" depart="36.00" departLane="1369578054_0" departPos="125.00" departSpeed="0.00" departDelay="0.00" arrival="65.00" arrivalLane="138002006#0_1" arrivalPos="45.52" arrivalSpeed="15.04" duration="29.00" routeLength="242.45" waitingTime="0.00" waitingCount="0" stopTime="0.00" timeLoss="14.09" rerouteNo="0" devices="tripinfo_flow_route_41_duration_20250327_1950.9" vType="car" speedFactor="1.18" vaporized=""/>
    <tripinfo id="flow_route_41_duration_20250327_1950.10" depart="41.00" departLane="1369578054_0" departPos="212.97" departSpeed="0.00" departDelay="1.00" arrival="67.00" arrivalLane="138002006#0_1" arrivalPos="26.87" arrivalSpeed="11.22" duration="26.00" routeLength="135.84" waitingTime="0.00" waitingCount="0" stopTime="0.00" timeLoss="17.56" rerouteNo="0" devices="tripinfo_flow_route_41_duration_20250327_1950.10" vType="car" speedFactor="1.03" vaporized=""/>
    <tripinfo id="flow_route_40_duration_20250327_1950.5" depart="33.00" departLane="1369578054_0" departPos="86.91" departSpeed="0.00" departDelay="3.00" arrival="70.00" arrivalLane="1341093415#0_0" arrivalPos="15.33" arrivalSpeed="8.85" duration="37.00" routeLength="239.35" waitingTime="0.00" waitingCount="0" stopTime="0.00" timeLoss="21.89" rerouteNo="0" devices="tripinfo_flow_route_40_duration_20250327_1950.5" vType="car" speedFactor="1.01" vaporized=""/>
    <tripinfo id="flow_route_40_duration_20250327_1950.8" depart="51.00" departLane="1369578054_0" departPos="271.00" departSpeed="0.00" departDelay="3.00" arrival="71.00" arrivalLane="1341093415#0_0" arrivalPos="85.56" arrivalSpeed="13.65" duration="20.00" routeLength="125.48" waitingTime="0.00" waitingCount="0" stopTime="0.00" timeLoss="10.22" rerouteNo="0" devices="tripinfo_flow_route_40_duration_20250327_1950.8" vType="car" speedFactor="0.85" vaporized=""/>
    <tripinfo id="flow_route_40_duration_20250327_1950.6" depart="36.00" departLane="1369578054_0" departPos="175.29" departSpeed="0.00" departDelay="0.00" arrival="73.00" arrivalLane="1341093415#0_0" arrivalPos="69.47" arrivalSpeed="12.15" duration="37.00" routeLength="205.09" waitingTime="0.00" waitingCount="0" stopTime="0.00" timeLoss="23.19" rerouteNo="0" devices="tripinfo_flow_route_40_duration_20250327_1950.6" vType="car" speedFactor="0.97" vaporized=""/>
    <tripinfo id="flow_route_41_duration_20250327_1950.12" depart="52.00" departLane="1369578054_0" departPos="176.52" departSpeed="0.00" departDelay="4.00" arrival="73.00" arrivalLane="138002006#0_1" arrivalPos="3.78" arrivalSpeed="13.99" duration="21.00" routeLength="149.20" waitingTime="0.00" waitingCount="0" stopTime="0.00" timeLoss="9.78" rerouteNo="0" devices="tripinfo_flow_route_41_duration_20250327_1950.12" vType="car" speedFactor="0.85" vaporized=""/>
    <tripinfo id="flow_route_40_duration_20250327_1950.4" depart="24.00" departLane="1369578054_0" departPos="8.34" departSpeed="0.00" departDelay="0.00" arrival="82.00" arrivalLane="1341093415#0_0" arrivalPos="114.37" arrivalSpeed="15.37" duration="58.00" routeLength="416.94" waitingTime="0.00" waitingCount="0" stopTime="0.00" timeLoss="29.45" rerouteNo="0" devices="tripinfo_flow_route_40_duration_20250327_1950.4" vType="car" speedFactor="0.92" vaporized=""/>
    <tripinfo id="flow_route_40_duration_20250327_1950.7" depart="45.00" departLane="1369578054_0" departPos="84.26" departSpeed="0.00" departDelay="3.00" arrival="84.00" arrivalLane="1341093415#0_0" arrivalPos="102.25" arrivalSpeed="14.29" duration="39.00" routeLength="328.91" waitingTime="0.00" waitingCount="0" stopTime="0.00" timeLoss="18.00" rerouteNo="0" devices="tripinfo_flow_route_40_duration_20250327_1950.7" vType="car" speedFactor="1.04" vaporized=""/>
    <tripinfo id="flow_route_51_duration_20250327_1950.0" depart="2.00" departLane="-138002006#3_0" departPos="23.48" departSpeed="0.00" departDelay="2.00" arrival="93.00" arrivalLane="1341093415#0_3" arrivalPos="132.48" arrivalSpeed="14.13" duration="91.00" routeLength="212.67" waitingTime="55.00" waitingCount="2" stopTime="0.00" timeLoss="76.84" rerouteNo="0" devices="tripinfo_flow_route_51_duration_20250327_1950.0" vType="car" speedFactor="1.05" vaporized=""/>
    <tripinfo id="flow_route_51_duration_20250327_1950.1" depart="21.00" departLane="-138002006#3_0" departPos="51.50" departSpeed="0.00" departDelay="1.00" arrival="94.00" arrivalLane="1341093415#0_3" arrivalPos="127.54" arrivalSpeed="14.02" duration="73.00" routeLength="179.72" waitingTime="38.00" waitingCount="2" stopTime="0.00" timeLoss="60.07" rerouteNo="0" devices="tripinfo_flow_route_51_duration_20250327_1950.1" vType="car" speedFactor="0.83" vaporized=""/>
    <tripinfo id="flow_route_51_duration_20250327_1950.2" depart="43.00" departLane="-138002006#3_0" departPos="30.44" departSpeed="0.00" departDelay="3.00" arrival="98.00" arrivalLane="1341093415#0_3" arrivalPos="156.06" arrivalSpeed="16.23" duration="55.00" routeLength="229.30" waitingTime="20.00" waitingCount="1" stopTime="0.00" timeLoss="39.90" rerouteNo="0" devices="tripinfo_flow_route_51_duration_20250327_1950.2" vType="car" speedFactor="1.09" vaporized=""/>
    <tripinfo id="flow_route_27_duration_20250327_1950.5" depart="16.00" departLane="1254771874#0_0" departPos="105.15" departSpeed="0.00" departDelay="0.22" arrival="121.00" arrivalLane="138002006#0_1" arrivalPos="11.48" arrivalSpeed="7.26" duration="105.00" routeLength="178.23" waitingTime="72.00" waitingCount="1" stopTime="0.00" timeLoss="93.06" rerouteNo="0" devices="tripinfo_flow_route_27_duration_20250327_1950.5" vType="car" speedFactor="0.94" vaporized=""/>
    <tripinfo id="flow_route_26_duration_20250327_1950.2" depart="40.00" departLane="1254771874#0_0" departPos="159.82" departSpeed="0.00" departDelay="0.00" arrival="122.00" arrivalLane="-422986370#2_0" arrivalPos="7.14" arrivalSpeed="6.66" duration="82.00" routeLength="111.92" waitingTime="56.00" waitingCount="1" stopTime="0.00" timeLoss="74.22" rerouteNo="0" devices="tripinfo_flow_route_26_duration_20250327_1950.2" vType="car" speedFactor="0.90" vaporized=""/>
    <tripinfo id="flow_route_27_duration_20250327_1950.3" depart="10.00" departLane="1254771874#0_0" departPos="60.51" departSpeed="0.00" departDelay="0.53" arrival="124.00" arrivalLane="138002006#0_1" arrivalPos="48.32" arrivalSpeed="10.71" duration="114.00" routeLength="259.70" waitingTime="72.00" waitingCount="1" stopTime="0.00" timeLoss="97.11" rerouteNo="0" devices="tripinfo_flow_route_27_duration_20250327_1950.3" vType="car" speedFactor="1.05" vaporized=""/>
    <tripinfo id="flow_route_25_duration_20250327_1950.2" depart="30.00" departLane="1254771874#0_0" departPos="144.97" departSpeed="0.00" departDelay="0.00" arrival="124.00" arrivalLane="1341093415#0_2" arrivalPos="60.43" arrivalSpeed="11.04" duration="94.00" routeLength="193.23" waitingTime="62.00" waitingCount="1" stopTime="0.00" timeLoss="82.27" rerouteNo="0" devices="tripinfo_flow_route_25_duration_20250327_1950.2" vType="car" speedFactor="1.15" vaporized=""/>
    <tripinfo id="flow_route_25_duration_20250327_1950.1" depart="15.00" departLane="1254771874#0_0" departPos="84.69" departSpeed="0.00" departDelay="0.00" arrival="129.00" arrivalLane="1341093415#0_0" arrivalPos="122.11" arrivalSpeed="14.42" duration="114.00" routeLength="315.20" waitingTime="71.00" waitingCount="1" stopTime="0.00" timeLoss="94.74" rerouteNo="0" devices="tripinfo_flow_route_25_duration_20250327_1950.1" vType="car" speedFactor="0.88" vaporized=""/>
    <tripinfo id="flow_route_27_duration_20250327_1950.4" depart="13.00" departLane="1254771874#0_0" departPos="7.62" departSpeed="0.00" departDelay="0.37" arrival="134.00" arrivalLane="138002006#0_1" arrivalPos="84.92" arrivalSpeed="13.52" duration="121.00" routeLength="349.18" waitingTime="71.00" waitingCount="1" stopTime="0.00" timeLoss="97.92" rerouteNo="0" devices="tripinfo_flow_route_27_duration_20250327_1950.4" vType="car" speedFactor="0.93" vaporized=""/>
    <tripinfo id="flow_route_27_duration_20250327_1950.12" depart="38.00" departLane="1254771874#0_0" departPos="249.70" departSpeed="0.00" departDelay="0.12" arrival="134.00" arrivalLane="138002006#0_1" arrivalPos="32.42" arrivalSpeed="8.71" duration="96.00" routeLength="54.61" waitingTime="80.00" waitingCount="2" stopTime="0.00" timeLoss="91.85" rerouteNo="0" devices="tripinfo_flow_route_27_duration_20250327_1950.12" vType="car" speedFactor="1.10" vaporized=""/>
    <tripinfo id="flow_route_25_duration_20250327_1950.3" depart="45.00" departLane="1254771874#0_0" departPos="31.77" departSpeed="0.00" departDelay="0.00" arrival="136.00" arrivalLane="1341093415#0_1" arrivalPos="117.96" arrivalSpeed="15.26" duration="91.00" routeLength="363.97" waitingTime="40.00" waitingCount="1" stopTime="0.00" timeLoss="68.39" rerouteNo="0" devices="tripinfo_flow_route_25_duration_20250327_1950.3" vType="car" speedFactor="1.00" vaporized=""/>
    <tripinfo id="flow_route_27_duration_20250327_1950.6" depart="19.00" departLane="1254771874#0_0" departPos="61.70" departSpeed="0.00" departDelay="0.06" arrival="139.00" arrivalLane="138002006#0_1" arrivalPos="14.91" arrivalSpeed="8.75" duration="120.00" routeLength="225.10" waitingTime="67.00" waitingCount="3" stopTime="0.00" timeLoss="105.33" rerouteNo="0" devices="tripinfo_flow_route_27_duration_20250327_1950.6" vType="car" speedFactor="1.02" vaporized=""/>
    <tripinfo id="flow_route_27_duration_20250327_1950.11" depart="36.00" departLane="1254771874#0_0" departPos="211.02" departSpeed="0.00" departDelay="1.27" arrival="139.00" arrivalLane="138002006#0_1" arrivalPos="37.57" arrivalSpeed="9.86" duration="103.00" routeLength="98.44" waitingTime="71.00" waitingCount="4" stopTime="0.00" timeLoss="96.24" rerouteNo="0" devices="tripinfo_flow_route_27_duration_20250327_1950.11" vType="car" speedFactor="1.02" vaporized=""/>
    <tripinfo id="flow_route_27_duration_20250327_1950.14" depart="46.00" departLane="1254771874#0_0" departPos="225.46" departSpeed="0.00" departDelay="1.80" arrival="140.00" arrivalLane="138002006#0_1" arrivalPos="69.33" arrivalSpeed="12.06" duration="94.00" routeLength="115.76" waitingTime="64.00" waitingCount="1" stopTime="0.00" timeLoss="84.81" rerouteNo="0" devices="tripinfo_flow_route_27_duration_20250327_1950.14" vType="car" speedFactor="0.90" vaporized=""/>
    <tripinfo id="flow_route_27_duration_20250327_1950.10" depart="32.00" departLane="1254771874#0_0" departPos="89.94" departSpeed="0.00" departDelay="0.43" arrival="144.00" arrivalLane="138002006#0_1" arrivalPos="4.16" arrivalSpeed="8.91" duration="112.00" routeLength="186.11" waitingTime="63.00" waitingCount="1" stopTime="0.00" timeLoss="100.27" rerouteNo="0" devices="tripinfo_flow_route_27_duration_20250327_1950.10" vType="car" speedFactor="1.17" vaporized=""/>
    <tripinfo id="flow_route_27_duration_20250327_1950.16" depart="51.00" departLane="1254771874#0_0" departPos="169.55" departSpeed="0.00" departDelay="0.49" arrival="147.00" arrivalLane="138002006#0_1" arrivalPos="13.63" arrivalSpeed="10.60" duration="96.00" routeLength="115.97" waitingTime="59.00" waitingCount="1" stopTime="0.00" timeLoss="88.27" rerouteNo="0" devices="tripinfo_flow_route_27_duration_20250327_1950.16" vType="car" speedFactor="1.17" vaporized=""/>
    <tripinfo id="flow_route_27_duration_20250327_1950.7" depart="23.00" departLane="1254771874#0_0" departPos="46.87" departSpeed="0.00" departDelay="0.90" arrival="148.00" arrivalLane="138002006#0_1" arrivalPos="84.77" arrivalSpeed="13.70" duration="125.00" routeLength="309.79" waitingTime="65.00" waitingCount="2" stopTime="0.00" timeLoss="103.52" rerouteNo="0" devices="tripinfo_flow_route_27_duration_20250327_1950.7" vType="car" speedFactor="0.87" vaporized=""/>
    <tripinfo id="flow_route_27_duration_20250327_1950.9" depart="29.00" departLane="1254771874#0_0" departPos="80.23" departSpeed="0.00" departDelay="0.59" arrival="150.00" arrivalLane="138002006#0_1" arrivalPos="88.08" arrivalSpeed="14.53" duration="121.00" routeLength="279.74" waitingTime="63.00" waitingCount="1" stopTime="0.00" timeLoss="102.84" rerouteNo="0" devices="tripinfo_flow_route_27_duration_20250327_1950.9" vType="car" speedFactor="1.18" vaporized=""/>
    <tripinfo id="flow_route_41_duration_20250327_1950.11" depart="46.00" departLane="1369578054_0" departPos="42.30" departSpeed="0.00" departDelay="2.00" arrival="157.00" arrivalLane="138002006#0_1" arrivalPos="9.01" arrivalSpeed="7.32" duration="111.00" routeLength="288.65" waitingTime="72.00" waitingCount="1" stopTime="0.00" timeLoss="93.27" rerouteNo="0" devices="tripinfo_flow_route_41_duration_20250327_1950.11" vType="car" speedFactor="1.09" vaporized=""/>
    <tripinfo id="flow_route_41_duration_20250327_1950.13" depart="52.00" departLane="1369578054_0" departPos="83.09" departSpeed="0.00" departDelay="0.00" arrival="161.00" arrivalLane="138002006#0_0" arrivalPos="38.25" arrivalSpeed="9.21" duration="109.00" routeLength="277.09" waitingTime="69.00" waitingCount="1" stopTime="0.00" timeLoss="92.10" rerouteNo="0" devices="tripinfo_flow_route_41_duration_20250327_1950.13" vType="car" speedFactor="1.02" vaporized=""/>
    <tripinfo id="flow_route_41_duration_20250327_1950.14" depart="58.00" departLane="1369578054_0" departPos="4.38" departSpeed="0.00" departDelay="2.00" arrival="166.00" arrivalLane="138002006#0_1" arrivalPos="76.04" arrivalSpeed="12.90" duration="108.00" routeLength="393.58" waitingTime="60.00" waitingCount="1" stopTime="0.00" timeLoss="83.77" rerouteNo="0" devices="tripinfo_flow_route_41_duration_20250327_1950.14" vType="car" speedFactor="1.00" vaporized=""/>
    <tripinfo id="flow_route_40_duration_20250327_1950.9" depart="55.00" departLane="1369578054_0" departPos="30.83" departSpeed="0.00" departDelay="1.00" arrival="169.00" arrivalLane="1341093415#0_0" arrivalPos="121.35" arrivalSpeed="14.78" duration="114.00" routeLength="401.45" waitingTime="66.00" waitingCount="1" stopTime="0.00" timeLoss="88.34" rerouteNo="0" devices="tripinfo_flow_route_40_duration_20250327_1950.9" vType="car" speedFactor="1.00" vaporized=""/>
    <tripinfo id="flow_route_27_duration_20250327_1950.17" depart="54.00" departLane="1254771874#0_0" departPos="151.50" departSpeed="0.00" departDelay="0.33" arrival="235.00" arrivalLane="138002006#0_1" arrivalPos="33.68" arrivalSpeed="8.81" duration="181.00" routeLength="154.07" waitingTime="131.00" waitingCount="2" stopTime="0.00" timeLoss="170.79" rerouteNo="0" devices="tripinfo_flow_route_27_duration_20250327_1950.17" vType="car" speedFactor="1.10" vaporized=""/>
    <tripinfo id="flow_route_27_duration_20250327_1950.13" depart="42.00" departLane="1254771874#0_0" departPos="75.75" departSpeed="0.00" departDelay="0.96" arrival="237.00" arrivalLane="138002006#0_1" arrivalPos="77.57" arrivalSpeed="11.95" duration="195.00" routeLength="273.71" waitingTime="132.00" waitingCount="2" stopTime="0.00" timeLoss="177.63" rerouteNo="0" devices="tripinfo_flow_route_27_duration_20250327_1950.13" vType="car" speedFactor="1.04" vaporized=""/>
    <tripinfo id="flow_route_27_duration_20250327_1950.15" depart="48.00" departLane="1254771874#0_0" departPos="99.86" departSpeed="0.00" departDelay="0.65" arrival="237.00" arrivalLane="138002006#0_1" arrivalPos="32.99" arrivalSpeed="9.55" duration="189.00" routeLength="205.02" waitingTime="128.00" waitingCount="2" stopTime="0.00" timeLoss="174.89" rerouteNo="0" devices="tripinfo_flow_route_27_duration_20250327_1950.15" vType="car" speedFactor="0.88" vaporized=""/>
    <tripinfo id="flow_route_27_duration_20250327_1950.18" depart="57.00" departLane="1254771874#0_0" departPos="140.40" departSpeed="0.00" departDelay="0.17" arrival="243.00" arrivalLane="138002006#0_1" arrivalPos="72.89" arrivalSpeed="12.88" duration="186.00" routeLength="204.38" waitingTime="129.00" waitingCount="2" stopTime="0.00" timeLoss="171.55" rerouteNo="0" devices="tripinfo_flow_route_27_duration_20250327_1950.18" vType="car" speedFactor="0.90" vaporized=""/>
</tripinfos>
