<?xml version="1.0" encoding="UTF-8"?>

<!-- generated on 2025-05-06 21:08:26 by Eclipse SUMO sumo Version 1.20.0
<configuration xmlns:xsi="http://www.w3.org/2001/XMLSchema-instance" xsi:noNamespaceSchemaLocation="http://sumo.dlr.de/xsd/sumoConfiguration.xsd">

    <input>
        <net-file value="osm.net.xml"/>
        <route-files value="xml/route_static_cluster_4110471701_632031939_4.rou.xml"/>
    </input>

    <output>
        <tripinfo-output value="xml/tripinfo_static_cluster_4110471701_632031939_4.xml"/>
    </output>

    <traci_server>
        <remote-port value="49567"/>
    </traci_server>

</configuration>
-->

<tripinfos xmlns:xsi="http://www.w3.org/2001/XMLSchema-instance" xsi:noNamespaceSchemaLocation="http://sumo.dlr.de/xsd/tripinfo_file.xsd">
    <tripinfo id="flow_route_83_duration_20250327_2140.0" depart="0.00" departLane="423956929_0" departPos="101.16" departSpeed="0.00" departDelay="0.00" arrival="17.00" arrivalLane="186407685_0" arrivalPos="8.05" arrivalSpeed="6.86" duration="17.00" routeLength="101.45" waitingTime="0.00" waitingCount="0" stopTime="0.00" timeLoss="10.18" rerouteNo="0" devices="tripinfo_flow_route_83_duration_20250327_2140.0" vType="car" speedFactor="1.01" vaporized=""/>
    <tripinfo id="flow_route_87_duration_20250327_2140.1" depart="9.00" departLane="430416184_0" departPos="253.21" departSpeed="0.00" departDelay="0.43" arrival="22.00" arrivalLane="1091883842_0" arrivalPos="11.19" arrivalSpeed="7.56" duration="13.00" routeLength="58.43" waitingTime="0.00" waitingCount="0" stopTime="0.00" timeLoss="8.22" rerouteNo="0" devices="tripinfo_flow_route_87_duration_20250327_2140.1" vType="car" speedFactor="0.94" vaporized=""/>
    <tripinfo id="flow_route_62_duration_20250327_2140.0" depart="0.00" departLane="409155823_0" departPos="65.43" departSpeed="0.00" departDelay="0.00" arrival="23.00" arrivalLane="1091883842_0" arrivalPos="165.47" arrivalSpeed="16.20" duration="23.00" routeLength="205.45" waitingTime="0.00" waitingCount="0" stopTime="0.00" timeLoss="10.51" rerouteNo="0" devices="tripinfo_flow_route_62_duration_20250327_2140.0" vType="car" speedFactor="1.06" vaporized=""/>
    <tripinfo id="flow_route_82_duration_20250327_2140.0" depart="0.00" departLane="423956929_0" departPos="45.92" departSpeed="0.00" departDelay="0.00" arrival="24.00" arrivalLane="186407684#0_0" arrivalPos="62.79" arrivalSpeed="15.18" duration="24.00" routeLength="219.95" waitingTime="0.00" waitingCount="0" stopTime="0.00" timeLoss="8.99" rerouteNo="0" devices="tripinfo_flow_route_82_duration_20250327_2140.0" vType="car" speedFactor="0.94" vaporized=""/>
    <tripinfo id="flow_route_88_duration_20250327_2140.0" depart="0.00" departLane="430416184_0" departPos="194.63" departSpeed="0.00" departDelay="0.00" arrival="42.00" arrivalLane="186407684#0_1" arrivalPos="3.84" arrivalSpeed="7.98" duration="42.00" routeLength="126.85" waitingTime="14.00" waitingCount="1" stopTime="0.00" timeLoss="32.41" rerouteNo="0" devices="tripinfo_flow_route_88_duration_20250327_2140.0" vType="car" speedFactor="0.83" vaporized=""/>
    <tripinfo id="flow_route_87_duration_20250327_2140.2" depart="18.00" departLane="430416184_0" departPos="183.20" departSpeed="0.00" departDelay="0.86" arrival="43.00" arrivalLane="1091883842_0" arrivalPos="57.02" arrivalSpeed="11.20" duration="25.00" routeLength="174.28" waitingTime="0.00" waitingCount="0" stopTime="0.00" timeLoss="14.02" rerouteNo="0" devices="tripinfo_flow_route_87_duration_20250327_2140.2" vType="car" speedFactor="1.03" vaporized=""/>
    <tripinfo id="flow_route_86_duration_20250327_2140.0" depart="0.00" departLane="430416184_0" departPos="215.48" departSpeed="0.00" departDelay="0.00" arrival="48.00" arrivalLane="186407685_1" arrivalPos="87.02" arrivalSpeed="14.00" duration="48.00" routeLength="195.42" waitingTime="15.00" waitingCount="1" stopTime="0.00" timeLoss="35.62" rerouteNo="0" devices="tripinfo_flow_route_86_duration_20250327_2140.0" vType="car" speedFactor="1.08" vaporized=""/>
    <tripinfo id="flow_route_88_duration_20250327_2140.3" depart="12.00" departLane="430416184_0" departPos="197.69" departSpeed="0.00" departDelay="0.00" arrival="48.00" arrivalLane="186407684#0_1" arrivalPos="28.37" arrivalSpeed="10.40" duration="36.00" routeLength="148.31" waitingTime="0.00" waitingCount="0" stopTime="0.00" timeLoss="25.59" rerouteNo="0" devices="tripinfo_flow_route_88_duration_20250327_2140.3" vType="car" speedFactor="0.86" vaporized=""/>
    <tripinfo id="flow_route_87_duration_20250327_2140.0" depart="0.00" departLane="430416184_0" departPos="1.75" departSpeed="0.00" departDelay="0.00" arrival="50.00" arrivalLane="1091883842_0" arrivalPos="109.56" arrivalSpeed="14.60" duration="50.00" routeLength="408.27" waitingTime="0.00" waitingCount="0" stopTime="0.00" timeLoss="23.64" rerouteNo="0" devices="tripinfo_flow_route_87_duration_20250327_2140.0" vType="car" speedFactor="1.03" vaporized=""/>
    <tripinfo id="flow_route_88_duration_20250327_2140.1" depart="4.00" departLane="430416184_0" departPos="130.75" departSpeed="0.00" departDelay="0.00" arrival="51.00" arrivalLane="186407684#0_1" arrivalPos="41.08" arrivalSpeed="11.70" duration="47.00" routeLength="227.97" waitingTime="0.00" waitingCount="0" stopTime="0.00" timeLoss="32.40" rerouteNo="0" devices="tripinfo_flow_route_88_duration_20250327_2140.1" vType="car" speedFactor="1.05" vaporized=""/>
    <tripinfo id="flow_route_88_duration_20250327_2140.5" depart="20.00" departLane="430416184_0" departPos="238.38" departSpeed="0.00" departDelay="0.00" arrival="51.00" arrivalLane="186407684#0_1" arrivalPos="82.76" arrivalSpeed="14.11" duration="31.00" routeLength="162.01" waitingTime="1.00" waitingCount="1" stopTime="0.00" timeLoss="19.94" rerouteNo="0" devices="tripinfo_flow_route_88_duration_20250327_2140.5" vType="car" speedFactor="1.05" vaporized=""/>
    <tripinfo id="flow_route_88_duration_20250327_2140.4" depart="16.00" departLane="430416184_0" departPos="148.34" departSpeed="0.00" departDelay="0.00" arrival="52.00" arrivalLane="186407684#0_1" arrivalPos="4.07" arrivalSpeed="10.25" duration="36.00" routeLength="173.36" waitingTime="0.00" waitingCount="0" stopTime="0.00" timeLoss="24.64" rerouteNo="0" devices="tripinfo_flow_route_88_duration_20250327_2140.4" vType="car" speedFactor="1.09" vaporized=""/>
    <tripinfo id="flow_route_88_duration_20250327_2140.2" depart="8.00" departLane="430416184_0" departPos="76.50" departSpeed="0.00" departDelay="0.00" arrival="54.00" arrivalLane="186407684#0_1" arrivalPos="49.91" arrivalSpeed="12.25" duration="46.00" routeLength="291.04" waitingTime="0.00" waitingCount="0" stopTime="0.00" timeLoss="26.48" rerouteNo="0" devices="tripinfo_flow_route_88_duration_20250327_2140.2" vType="car" speedFactor="0.89" vaporized=""/>
    <tripinfo id="flow_route_88_duration_20250327_2140.7" depart="28.00" departLane="430416184_0" departPos="87.27" departSpeed="0.00" departDelay="0.00" arrival="56.00" arrivalLane="186407684#0_1" arrivalPos="2.86" arrivalSpeed="9.96" duration="28.00" routeLength="233.22" waitingTime="0.00" waitingCount="0" stopTime="0.00" timeLoss="12.46" rerouteNo="0" devices="tripinfo_flow_route_88_duration_20250327_2140.7" vType="car" speedFactor="0.93" vaporized=""/>
    <tripinfo id="flow_route_88_duration_20250327_2140.6" depart="24.00" departLane="430416184_0" departPos="114.69" departSpeed="0.00" departDelay="0.00" arrival="60.00" arrivalLane="186407684#0_1" arrivalPos="78.23" arrivalSpeed="15.29" duration="36.00" routeLength="281.17" waitingTime="0.00" waitingCount="0" stopTime="0.00" timeLoss="17.85" rerouteNo="0" devices="tripinfo_flow_route_88_duration_20250327_2140.6" vType="car" speedFactor="1.12" vaporized=""/>
    <tripinfo id="flow_route_87_duration_20250327_2140.5" depart="43.00" departLane="430416184_0" departPos="234.74" departSpeed="0.00" departDelay="0.15" arrival="61.00" arrivalLane="1091883842_0" arrivalPos="44.83" arrivalSpeed="11.11" duration="18.00" routeLength="110.54" waitingTime="0.00" waitingCount="0" stopTime="0.00" timeLoss="10.63" rerouteNo="0" devices="tripinfo_flow_route_87_duration_20250327_2140.5" vType="car" speedFactor="1.01" vaporized=""/>
    <tripinfo id="flow_route_88_duration_20250327_2140.11" depart="44.00" departLane="430416184_0" departPos="193.22" departSpeed="0.00" departDelay="0.00" arrival="64.00" arrivalLane="186407684#0_1" arrivalPos="7.85" arrivalSpeed="10.45" duration="20.00" routeLength="132.26" waitingTime="0.00" waitingCount="0" stopTime="0.00" timeLoss="10.84" rerouteNo="0" devices="tripinfo_flow_route_88_duration_20250327_2140.11" vType="car" speedFactor="0.97" vaporized=""/>
    <tripinfo id="flow_route_88_duration_20250327_2140.10" depart="41.00" departLane="430416184_0" departPos="165.30" departSpeed="0.00" departDelay="1.00" arrival="67.00" arrivalLane="186407684#0_1" arrivalPos="19.66" arrivalSpeed="11.76" duration="26.00" routeLength="171.99" waitingTime="0.00" waitingCount="0" stopTime="0.00" timeLoss="14.55" rerouteNo="0" devices="tripinfo_flow_route_88_duration_20250327_2140.10" vType="car" speedFactor="1.02" vaporized=""/>
    <tripinfo id="flow_route_87_duration_20250327_2140.3" depart="26.00" departLane="430416184_0" departPos="68.46" departSpeed="0.00" departDelay="0.29" arrival="70.00" arrivalLane="1091883842_0" arrivalPos="101.08" arrivalSpeed="13.77" duration="44.00" routeLength="333.08" waitingTime="0.00" waitingCount="0" stopTime="0.00" timeLoss="22.76" rerouteNo="0" devices="tripinfo_flow_route_87_duration_20250327_2140.3" vType="car" speedFactor="0.99" vaporized=""/>
    <tripinfo id="flow_route_87_duration_20250327_2140.4" depart="36.00" departLane="430416184_0" departPos="36.26" departSpeed="0.00" departDelay="1.72" arrival="78.00" arrivalLane="1091883842_0" arrivalPos="127.22" arrivalSpeed="15.23" duration="42.00" routeLength="391.42" waitingTime="0.00" waitingCount="0" stopTime="0.00" timeLoss="15.93" rerouteNo="0" devices="tripinfo_flow_route_87_duration_20250327_2140.4" vType="car" speedFactor="0.94" vaporized=""/>
    <tripinfo id="flow_route_62_duration_20250327_2140.1" depart="30.00" departLane="409155823_0" departPos="14.01" departSpeed="0.00" departDelay="0.00" arrival="87.00" arrivalLane="1091883842_0" arrivalPos="141.98" arrivalSpeed="14.22" duration="57.00" routeLength="233.38" waitingTime="21.00" waitingCount="1" stopTime="0.00" timeLoss="40.11" rerouteNo="0" devices="tripinfo_flow_route_62_duration_20250327_2140.1" vType="car" speedFactor="0.88" vaporized=""/>
    <tripinfo id="flow_route_87_duration_20250327_2140.6" depart="53.00" departLane="430416184_0" departPos="89.01" departSpeed="0.00" departDelay="1.57" arrival="91.00" arrivalLane="1091883842_0" arrivalPos="128.44" arrivalSpeed="13.74" duration="38.00" routeLength="339.88" waitingTime="0.00" waitingCount="0" stopTime="0.00" timeLoss="14.55" rerouteNo="0" devices="tripinfo_flow_route_87_duration_20250327_2140.6" vType="car" speedFactor="0.83" vaporized=""/>
    <tripinfo id="flow_route_88_duration_20250327_2140.9" depart="38.00" departLane="430416184_0" departPos="76.37" departSpeed="0.00" departDelay="2.00" arrival="111.00" arrivalLane="186407684#0_1" arrivalPos="11.40" arrivalSpeed="8.70" duration="73.00" routeLength="252.66" waitingTime="31.00" waitingCount="1" stopTime="0.00" timeLoss="56.82" rerouteNo="0" devices="tripinfo_flow_route_88_duration_20250327_2140.9" vType="car" speedFactor="1.16" vaporized=""/>
    <tripinfo id="flow_route_88_duration_20250327_2140.12" depart="48.00" departLane="430416184_0" departPos="172.42" departSpeed="0.00" departDelay="0.00" arrival="114.00" arrivalLane="186407684#0_1" arrivalPos="63.06" arrivalSpeed="12.50" duration="66.00" routeLength="208.27" waitingTime="32.00" waitingCount="1" stopTime="0.00" timeLoss="51.16" rerouteNo="0" devices="tripinfo_flow_route_88_duration_20250327_2140.12" vType="car" speedFactor="0.89" vaporized=""/>
    <tripinfo id="flow_route_88_duration_20250327_2140.8" depart="32.00" departLane="430416184_0" departPos="8.62" departSpeed="0.00" departDelay="0.00" arrival="120.00" arrivalLane="186407684#0_1" arrivalPos="84.30" arrivalSpeed="13.33" duration="88.00" routeLength="393.31" waitingTime="31.00" waitingCount="1" stopTime="0.00" timeLoss="62.28" rerouteNo="0" devices="tripinfo_flow_route_88_duration_20250327_2140.8" vType="car" speedFactor="0.94" vaporized=""/>
    <tripinfo id="flow_route_88_duration_20250327_2140.14" depart="57.00" departLane="430416184_0" departPos="185.56" departSpeed="0.00" departDelay="1.00" arrival="121.00" arrivalLane="186407684#0_1" arrivalPos="84.16" arrivalSpeed="13.17" duration="64.00" routeLength="216.23" waitingTime="29.00" waitingCount="1" stopTime="0.00" timeLoss="49.23" rerouteNo="0" devices="tripinfo_flow_route_88_duration_20250327_2140.14" vType="car" speedFactor="0.92" vaporized=""/>
    <tripinfo id="flow_route_88_duration_20250327_2140.13" depart="55.00" departLane="430416184_0" departPos="48.70" departSpeed="0.00" departDelay="3.00" arrival="123.00" arrivalLane="186407684#0_1" arrivalPos="82.41" arrivalSpeed="13.60" duration="68.00" routeLength="351.34" waitingTime="23.00" waitingCount="1" stopTime="0.00" timeLoss="44.36" rerouteNo="0" devices="tripinfo_flow_route_88_duration_20250327_2140.13" vType="car" speedFactor="0.87" vaporized=""/>
</tripinfos>
