<?xml version="1.0" encoding="UTF-8"?>

<!-- generated on 2025-04-28 20:56:14 by Eclipse SUMO sumo Version 1.20.0
<configuration xmlns:xsi="http://www.w3.org/2001/XMLSchema-instance" xsi:noNamespaceSchemaLocation="http://sumo.dlr.de/xsd/sumoConfiguration.xsd">

    <input>
        <net-file value="../config/osm.net.xml"/>
        <route-files value="config/generated_rl_flows.rou.xml"/>
    </input>

    <output>
        <tripinfo-output value="output/tripinfo_rl.xml"/>
    </output>

    <time>
        <step-length value="1"/>
    </time>

    <report>
        <no-warnings value="true"/>
        <log value="/dev/null"/>
    </report>

    <traci_server>
        <remote-port value="55672"/>
    </traci_server>

    <gui_only>
        <start value="true"/>
    </gui_only>

</configuration>
-->

<tripinfos xmlns:xsi="http://www.w3.org/2001/XMLSchema-instance" xsi:noNamespaceSchemaLocation="http://sumo.dlr.de/xsd/tripinfo_file.xsd">
    <tripinfo id="route_27.1" depart="2.00" departLane="1254771874#0_0" departPos="209.44" departSpeed="0.00" departDelay="1.70" arrival="18.00" arrivalLane="138002006#0_1" arrivalPos="7.90" arrivalSpeed="8.67" duration="16.00" routeLength="70.35" waitingTime="0.00" waitingCount="0" stopTime="0.00" timeLoss="10.21" rerouteNo="0" devices="tripinfo_route_27.1 routing_route_27.1" vType="car" speedFactor="0.87" vaporized=""/>
    <tripinfo id="route_25.3" depart="1.00" departLane="1254771874#0_0" departPos="249.70" departSpeed="0.00" departDelay="0.10" arrival="19.00" arrivalLane="1341093415#0_1" arrivalPos="101.09" arrivalSpeed="13.91" duration="18.00" routeLength="129.17" waitingTime="0.00" waitingCount="0" stopTime="0.00" timeLoss="9.67" rerouteNo="0" devices="tripinfo_route_25.3 routing_route_25.3" vType="car" speedFactor="1.01" vaporized=""/>
    <tripinfo id="route_55.2" depart="1.00" departLane="1341093415#0_0" departPos="126.68" departSpeed="0.00" departDelay="0.40" arrival="20.00" arrivalLane="791826085_0" arrivalPos="58.37" arrivalSpeed="12.91" duration="19.00" routeLength="121.40" waitingTime="0.00" waitingCount="0" stopTime="0.00" timeLoss="10.68" rerouteNo="0" devices="tripinfo_route_55.2 routing_route_55.2" vType="car" speedFactor="1.04" vaporized=""/>
    <tripinfo id="route_52.2" depart="2.00" departLane="138002006#0_0" departPos="83.10" departSpeed="0.00" departDelay="1.40" arrival="23.00" arrivalLane="380351865#0_1" arrivalPos="2.59" arrivalSpeed="11.76" duration="21.00" routeLength="161.05" waitingTime="0.00" waitingCount="0" stopTime="0.00" timeLoss="7.39" rerouteNo="1" devices="tripinfo_route_52.2 routing_route_52.2" vType="car" speedFactor="1.10" vaporized=""/>
    <tripinfo id="route_56.0" depart="0.00" departLane="1341093415#0_0" departPos="53.79" departSpeed="0.00" departDelay="0.00" arrival="24.00" arrivalLane="409155823_0" arrivalPos="23.29" arrivalSpeed="10.55" duration="24.00" routeLength="174.34" waitingTime="0.00" waitingCount="0" stopTime="0.00" timeLoss="11.59" rerouteNo="0" devices="tripinfo_route_56.0 routing_route_56.0" vType="car" speedFactor="0.86" vaporized=""/>
    <tripinfo id="route_26.3" depart="2.00" departLane="1254771874#0_0" departPos="217.61" departSpeed="0.00" departDelay="1.10" arrival="24.00" arrivalLane="-422986370#2_0" arrivalPos="86.88" arrivalSpeed="11.42" duration="22.00" routeLength="133.87" waitingTime="0.00" waitingCount="0" stopTime="0.00" timeLoss="11.41" rerouteNo="0" devices="tripinfo_route_26.3 routing_route_26.3" vType="car" speedFactor="0.83" vaporized=""/>
    <tripinfo id="route_52.3" depart="2.00" departLane="138002006#0_0" departPos="69.60" departSpeed="0.00" departDelay="1.10" arrival="28.00" arrivalLane="380351865#0_1" arrivalPos="7.22" arrivalSpeed="9.95" duration="26.00" routeLength="179.19" waitingTime="0.00" waitingCount="0" stopTime="0.00" timeLoss="6.91" rerouteNo="1" devices="tripinfo_route_52.3 routing_route_52.3" vType="car" speedFactor="0.90" vaporized=""/>
    <tripinfo id="route_55.3" depart="2.00" departLane="1341093415#0_0" departPos="150.38" departSpeed="0.00" departDelay="1.10" arrival="28.00" arrivalLane="791826085_0" arrivalPos="200.61" arrivalSpeed="16.46" duration="26.00" routeLength="239.94" waitingTime="0.00" waitingCount="0" stopTime="0.00" timeLoss="10.28" rerouteNo="0" devices="tripinfo_route_55.3 routing_route_55.3" vType="car" speedFactor="1.09" vaporized=""/>
    <tripinfo id="route_55.7" depart="12.00" departLane="1341093415#0_0" departPos="163.31" departSpeed="0.00" departDelay="9.89" arrival="28.00" arrivalLane="791826085_0" arrivalPos="71.95" arrivalSpeed="12.20" duration="16.00" routeLength="98.35" waitingTime="0.00" waitingCount="0" stopTime="0.00" timeLoss="8.89" rerouteNo="0" devices="tripinfo_route_55.7 routing_route_55.7" vType="car" speedFactor="1.03" vaporized=""/>
    <tripinfo id="route_55.0" depart="0.00" departLane="1341093415#0_0" departPos="5.78" departSpeed="0.00" departDelay="0.00" arrival="29.00" arrivalLane="791826085_0" arrivalPos="19.65" arrivalSpeed="8.64" duration="29.00" routeLength="203.58" waitingTime="0.00" waitingCount="0" stopTime="0.00" timeLoss="15.33" rerouteNo="0" devices="tripinfo_route_55.0 routing_route_55.0" vType="car" speedFactor="0.94" vaporized=""/>
    <tripinfo id="route_67.6" depart="6.00" departLane="-138002002#2_0" departPos="168.59" departSpeed="0.00" departDelay="4.20" arrival="30.00" arrivalLane="380351865#0_0" arrivalPos="2.86" arrivalSpeed="9.97" duration="24.00" routeLength="167.32" waitingTime="0.00" waitingCount="0" stopTime="0.00" timeLoss="7.07" rerouteNo="1" devices="tripinfo_route_67.6 routing_route_67.6" vType="car" speedFactor="0.92" vaporized=""/>
    <tripinfo id="route_27.0" depart="0.00" departLane="1254771874#0_0" departPos="240.04" departSpeed="0.00" departDelay="0.00" arrival="31.00" arrivalLane="138002006#0_1" arrivalPos="45.54" arrivalSpeed="3.18" duration="31.00" routeLength="77.39" waitingTime="1.00" waitingCount="1" stopTime="0.00" timeLoss="25.40" rerouteNo="0" devices="tripinfo_route_27.0 routing_route_27.0" vType="car" speedFactor="1.01" vaporized=""/>
    <tripinfo id="route_53.2" depart="6.00" departLane="138002006#0_0" departPos="51.24" departSpeed="0.00" departDelay="5.39" arrival="32.00" arrivalLane="1369578052#0_0" arrivalPos="57.85" arrivalSpeed="12.82" duration="26.00" routeLength="114.53" waitingTime="2.00" waitingCount="1" stopTime="0.00" timeLoss="18.52" rerouteNo="0" devices="tripinfo_route_53.2 routing_route_53.2" vType="car" speedFactor="0.96" vaporized=""/>
    <tripinfo id="route_53.3" depart="6.00" departLane="138002006#0_0" departPos="62.96" departSpeed="0.00" departDelay="5.09" arrival="32.00" arrivalLane="1369578052#0_0" arrivalPos="94.53" arrivalSpeed="14.78" duration="26.00" routeLength="139.48" waitingTime="3.00" waitingCount="1" stopTime="0.00" timeLoss="17.47" rerouteNo="0" devices="tripinfo_route_53.3 routing_route_53.3" vType="car" speedFactor="1.09" vaporized=""/>
    <tripinfo id="route_25.1" depart="1.00" departLane="1254771874#0_0" departPos="106.64" departSpeed="0.00" departDelay="0.70" arrival="33.00" arrivalLane="1341093415#0_1" arrivalPos="171.92" arrivalSpeed="16.50" duration="32.00" routeLength="343.06" waitingTime="0.00" waitingCount="0" stopTime="0.00" timeLoss="11.07" rerouteNo="0" devices="tripinfo_route_25.1 routing_route_25.1" vType="car" speedFactor="1.16" vaporized=""/>
    <tripinfo id="route_25.0" depart="0.00" departLane="1254771874#0_0" departPos="78.49" departSpeed="0.00" departDelay="0.00" arrival="34.00" arrivalLane="1341093415#0_1" arrivalPos="158.81" arrivalSpeed="16.44" duration="34.00" routeLength="358.10" waitingTime="0.00" waitingCount="0" stopTime="0.00" timeLoss="11.94" rerouteNo="0" devices="tripinfo_route_25.0 routing_route_25.0" vType="car" speedFactor="1.06" vaporized=""/>
    <tripinfo id="route_50.0" depart="0.00" departLane="-138002006#3_0" departPos="78.80" departSpeed="0.00" departDelay="0.00" arrival="35.00" arrivalLane="-422986370#2_0" arrivalPos="13.84" arrivalSpeed="7.01" duration="35.00" routeLength="46.08" waitingTime="20.00" waitingCount="1" stopTime="0.00" timeLoss="32.09" rerouteNo="0" devices="tripinfo_route_50.0 routing_route_50.0" vType="car" speedFactor="1.03" vaporized=""/>
    <tripinfo id="route_26.0" depart="0.00" departLane="1254771874#0_0" departPos="161.93" departSpeed="0.00" departDelay="0.00" arrival="36.00" arrivalLane="-422986370#2_0" arrivalPos="213.43" arrivalSpeed="15.47" duration="36.00" routeLength="316.10" waitingTime="0.00" waitingCount="0" stopTime="0.00" timeLoss="15.19" rerouteNo="0" devices="tripinfo_route_26.0 routing_route_26.0" vType="car" speedFactor="0.94" vaporized=""/>
    <tripinfo id="route_67.9" depart="14.00" departLane="-138002002#2_0" departPos="170.56" departSpeed="0.00" departDelay="11.30" arrival="36.00" arrivalLane="380351865#0_0" arrivalPos="3.93" arrivalSpeed="10.82" duration="22.00" routeLength="166.43" waitingTime="0.00" waitingCount="0" stopTime="0.00" timeLoss="6.49" rerouteNo="1" devices="tripinfo_route_67.9 routing_route_67.9" vType="car" speedFactor="1.00" vaporized=""/>
    <tripinfo id="route_53.6" depart="13.00" departLane="138002006#0_0" departPos="25.63" departSpeed="0.00" departDelay="11.18" arrival="38.00" arrivalLane="1369578052#0_0" arrivalPos="89.66" arrivalSpeed="14.45" duration="25.00" routeLength="171.95" waitingTime="0.00" waitingCount="0" stopTime="0.00" timeLoss="14.48" rerouteNo="0" devices="tripinfo_route_53.6 routing_route_53.6" vType="car" speedFactor="1.00" vaporized=""/>
    <tripinfo id="route_52.6" depart="8.00" departLane="138002006#0_0" departPos="85.43" departSpeed="0.00" departDelay="6.20" arrival="39.00" arrivalLane="380351865#0_1" arrivalPos="11.24" arrivalSpeed="10.80" duration="31.00" routeLength="167.37" waitingTime="4.00" waitingCount="2" stopTime="0.00" timeLoss="15.47" rerouteNo="1" devices="tripinfo_route_52.6 routing_route_52.6" vType="car" speedFactor="1.01" vaporized=""/>
    <tripinfo id="route_55.1" depart="1.00" departLane="1341093415#0_0" departPos="75.77" departSpeed="0.00" departDelay="0.70" arrival="40.00" arrivalLane="791826085_0" arrivalPos="225.55" arrivalSpeed="16.57" duration="39.00" routeLength="339.49" waitingTime="0.00" waitingCount="0" stopTime="0.00" timeLoss="17.14" rerouteNo="0" devices="tripinfo_route_55.1 routing_route_55.1" vType="car" speedFactor="1.04" vaporized=""/>
    <tripinfo id="route_52.0" depart="0.00" departLane="138002006#0_0" departPos="48.32" departSpeed="0.00" departDelay="0.00" arrival="41.00" arrivalLane="380351865#0_1" arrivalPos="5.50" arrivalSpeed="11.27" duration="41.00" routeLength="198.74" waitingTime="3.00" waitingCount="2" stopTime="0.00" timeLoss="23.67" rerouteNo="1" devices="tripinfo_route_52.0 routing_route_52.0" vType="car" speedFactor="1.05" vaporized=""/>
    <tripinfo id="route_53.0" depart="0.00" departLane="138002006#0_0" departPos="21.01" departSpeed="0.00" departDelay="0.00" arrival="41.00" arrivalLane="1369578052#0_1" arrivalPos="90.59" arrivalSpeed="13.94" duration="41.00" routeLength="177.49" waitingTime="2.00" waitingCount="1" stopTime="0.00" timeLoss="28.90" rerouteNo="0" devices="tripinfo_route_53.0 routing_route_53.0" vType="car" speedFactor="0.89" vaporized=""/>
    <tripinfo id="route_55.4" depart="2.00" departLane="1341093415#0_0" departPos="65.33" departSpeed="0.00" departDelay="0.80" arrival="41.00" arrivalLane="791826085_0" arrivalPos="220.25" arrivalSpeed="16.34" duration="39.00" routeLength="344.63" waitingTime="0.00" waitingCount="0" stopTime="0.00" timeLoss="17.39" rerouteNo="0" devices="tripinfo_route_55.4 routing_route_55.4" vType="car" speedFactor="1.02" vaporized=""/>
    <tripinfo id="route_52.4" depart="6.00" departLane="138002006#0_0" departPos="72.75" departSpeed="0.00" departDelay="4.80" arrival="42.00" arrivalLane="380351865#0_1" arrivalPos="2.12" arrivalSpeed="11.28" duration="36.00" routeLength="170.93" waitingTime="6.00" waitingCount="3" stopTime="0.00" timeLoss="20.78" rerouteNo="1" devices="tripinfo_route_52.4 routing_route_52.4" vType="car" speedFactor="1.03" vaporized=""/>
    <tripinfo id="route_53.5" depart="9.00" departLane="138002006#0_0" departPos="30.64" departSpeed="0.00" departDelay="7.49" arrival="42.00" arrivalLane="1369578052#0_0" arrivalPos="174.15" arrivalSpeed="16.12" duration="33.00" routeLength="251.43" waitingTime="0.00" waitingCount="0" stopTime="0.00" timeLoss="17.19" rerouteNo="0" devices="tripinfo_route_53.5 routing_route_53.5" vType="car" speedFactor="1.03" vaporized=""/>
    <tripinfo id="route_61.6" depart="2.00" departLane="186407684#0_0" departPos="69.58" departSpeed="0.00" departDelay="0.18" arrival="42.00" arrivalLane="1341093416#0_2" arrivalPos="3.20" arrivalSpeed="5.74" duration="40.00" routeLength="43.64" waitingTime="24.00" waitingCount="1" stopTime="0.00" timeLoss="36.79" rerouteNo="0" devices="tripinfo_route_61.6 routing_route_61.6" vType="car" speedFactor="1.02" vaporized=""/>
    <tripinfo id="route_50.8" depart="17.00" departLane="-138002006#3_0" departPos="72.59" departSpeed="0.00" departDelay="14.60" arrival="42.00" arrivalLane="-422986370#2_0" arrivalPos="25.34" arrivalSpeed="8.71" duration="25.00" routeLength="63.79" waitingTime="9.00" waitingCount="1" stopTime="0.00" timeLoss="20.85" rerouteNo="0" devices="tripinfo_route_50.8 routing_route_50.8" vType="car" speedFactor="1.01" vaporized=""/>
    <tripinfo id="route_55.10" depart="17.00" departLane="1341093415#0_0" departPos="104.88" departSpeed="0.00" departDelay="13.99" arrival="42.00" arrivalLane="791826085_0" arrivalPos="111.33" arrivalSpeed="15.21" duration="25.00" routeLength="196.16" waitingTime="0.00" waitingCount="0" stopTime="0.00" timeLoss="11.96" rerouteNo="0" devices="tripinfo_route_55.10 routing_route_55.10" vType="car" speedFactor="0.94" vaporized=""/>
    <tripinfo id="route_52.1" depart="2.00" departLane="138002006#0_0" departPos="43.27" departSpeed="0.00" departDelay="1.70" arrival="44.00" arrivalLane="380351865#0_1" arrivalPos="2.87" arrivalSpeed="12.70" duration="42.00" routeLength="201.16" waitingTime="2.00" waitingCount="1" stopTime="0.00" timeLoss="26.66" rerouteNo="1" devices="tripinfo_route_52.1 routing_route_52.1" vType="car" speedFactor="1.18" vaporized=""/>
    <tripinfo id="route_50.2" depart="4.00" departLane="-138002006#3_0" departPos="75.93" departSpeed="0.00" departDelay="3.40" arrival="47.00" arrivalLane="-422986370#2_0" arrivalPos="163.78" arrivalSpeed="16.30" duration="43.00" routeLength="198.89" waitingTime="15.00" waitingCount="1" stopTime="0.00" timeLoss="30.42" rerouteNo="0" devices="tripinfo_route_50.2 routing_route_50.2" vType="car" speedFactor="1.01" vaporized=""/>
    <tripinfo id="route_50.4" depart="9.00" departLane="-138002006#3_0" departPos="68.77" departSpeed="0.00" departDelay="7.80" arrival="49.00" arrivalLane="-422986370#2_0" arrivalPos="143.79" arrivalSpeed="15.55" duration="40.00" routeLength="186.06" waitingTime="11.00" waitingCount="1" stopTime="0.00" timeLoss="28.45" rerouteNo="0" devices="tripinfo_route_50.4 routing_route_50.4" vType="car" speedFactor="1.02" vaporized=""/>
    <tripinfo id="route_52.5" depart="8.00" departLane="138002006#0_0" departPos="44.29" departSpeed="0.00" departDelay="6.50" arrival="50.00" arrivalLane="380351865#0_1" arrivalPos="6.48" arrivalSpeed="10.43" duration="42.00" routeLength="203.74" waitingTime="4.00" waitingCount="2" stopTime="0.00" timeLoss="23.33" rerouteNo="1" devices="tripinfo_route_52.5 routing_route_52.5" vType="car" speedFactor="0.98" vaporized=""/>
    <tripinfo id="route_57.1" depart="1.00" departLane="186407685_0" departPos="154.73" departSpeed="0.00" departDelay="0.70" arrival="58.00" arrivalLane="380351865#0_0" arrivalPos="10.18" arrivalSpeed="10.85" duration="57.00" routeLength="192.06" waitingTime="26.00" waitingCount="1" stopTime="0.00" timeLoss="40.35" rerouteNo="1" devices="tripinfo_route_57.1 routing_route_57.1" vType="car" speedFactor="1.00" vaporized=""/>
    <tripinfo id="route_60.0" depart="0.00" departLane="186407684#0_0" departPos="84.30" departSpeed="0.00" departDelay="0.00" arrival="59.00" arrivalLane="791826085_0" arrivalPos="219.49" arrivalSpeed="16.34" duration="59.00" routeLength="243.66" waitingTime="31.00" waitingCount="1" stopTime="0.00" timeLoss="43.98" rerouteNo="0" devices="tripinfo_route_60.0 routing_route_60.0" vType="car" speedFactor="1.05" vaporized=""/>
    <tripinfo id="route_57.3" depart="1.00" departLane="186407685_0" departPos="172.02" departSpeed="0.00" departDelay="0.10" arrival="59.00" arrivalLane="380351865#0_0" arrivalPos="3.08" arrivalSpeed="9.51" duration="58.00" routeLength="167.67" waitingTime="31.00" waitingCount="1" stopTime="0.00" timeLoss="40.99" rerouteNo="1" devices="tripinfo_route_57.3 routing_route_57.3" vType="car" speedFactor="0.88" vaporized=""/>
    <tripinfo id="route_57.0" depart="0.00" departLane="186407685_0" departPos="135.37" departSpeed="0.00" departDelay="0.00" arrival="60.00" arrivalLane="380351865#0_1" arrivalPos="9.67" arrivalSpeed="11.96" duration="60.00" routeLength="210.91" waitingTime="19.00" waitingCount="2" stopTime="0.00" timeLoss="43.25" rerouteNo="1" devices="tripinfo_route_57.0 routing_route_57.0" vType="car" speedFactor="1.09" vaporized=""/>
    <tripinfo id="route_41.0" depart="0.00" departLane="1369578054_0" departPos="247.00" departSpeed="0.00" departDelay="0.00" arrival="61.00" arrivalLane="138002006#0_0" arrivalPos="4.04" arrivalSpeed="0.21" duration="61.00" routeLength="78.97" waitingTime="22.00" waitingCount="3" stopTime="0.00" timeLoss="56.24" rerouteNo="0" devices="tripinfo_route_41.0 routing_route_41.0" vType="car" speedFactor="1.08" vaporized=""/>
    <tripinfo id="route_59.0" depart="0.00" departLane="186407685_0" departPos="28.17" departSpeed="0.00" departDelay="0.00" arrival="61.00" arrivalLane="1369578052#0_0" arrivalPos="85.93" arrivalSpeed="13.20" duration="61.00" routeLength="243.87" waitingTime="15.00" waitingCount="1" stopTime="0.00" timeLoss="45.25" rerouteNo="0" devices="tripinfo_route_59.0 routing_route_59.0" vType="car" speedFactor="1.03" vaporized=""/>
    <tripinfo id="route_57.7" depart="4.00" departLane="186407685_0" departPos="159.31" departSpeed="0.00" departDelay="1.90" arrival="61.00" arrivalLane="380351865#0_0" arrivalPos="4.28" arrivalSpeed="11.14" duration="57.00" routeLength="181.57" waitingTime="26.00" waitingCount="1" stopTime="0.00" timeLoss="41.44" rerouteNo="1" devices="tripinfo_route_57.7 routing_route_57.7" vType="car" speedFactor="1.01" vaporized=""/>
    <tripinfo id="route_57.2" depart="1.00" departLane="186407685_0" departPos="101.58" departSpeed="0.00" departDelay="0.40" arrival="62.00" arrivalLane="380351865#0_1" arrivalPos="1.14" arrivalSpeed="9.54" duration="61.00" routeLength="236.18" waitingTime="20.00" waitingCount="1" stopTime="0.00" timeLoss="40.33" rerouteNo="1" devices="tripinfo_route_57.2 routing_route_57.2" vType="car" speedFactor="0.90" vaporized=""/>
    <tripinfo id="route_57.9" depart="6.00" departLane="186407685_0" departPos="144.70" departSpeed="0.00" departDelay="3.30" arrival="63.00" arrivalLane="380351865#0_0" arrivalPos="1.87" arrivalSpeed="11.51" duration="57.00" routeLength="193.78" waitingTime="24.00" waitingCount="1" stopTime="0.00" timeLoss="40.97" rerouteNo="1" devices="tripinfo_route_57.9 routing_route_57.9" vType="car" speedFactor="1.07" vaporized=""/>
    <tripinfo id="route_57.8" depart="5.00" departLane="186407685_0" departPos="75.32" departSpeed="0.00" departDelay="2.60" arrival="64.00" arrivalLane="380351865#0_0" arrivalPos="0.59" arrivalSpeed="11.23" duration="59.00" routeLength="261.88" waitingTime="18.00" waitingCount="1" stopTime="0.00" timeLoss="39.13" rerouteNo="1" devices="tripinfo_route_57.8 routing_route_57.8" vType="car" speedFactor="1.03" vaporized=""/>
    <tripinfo id="route_61.7" depart="3.00" departLane="186407684#0_0" departPos="70.19" departSpeed="0.00" departDelay="0.88" arrival="64.00" arrivalLane="1341093416#0_1" arrivalPos="251.71" arrivalSpeed="16.49" duration="61.00" routeLength="291.54" waitingTime="24.00" waitingCount="3" stopTime="0.00" timeLoss="42.42" rerouteNo="0" devices="tripinfo_route_61.7 routing_route_61.7" vType="car" speedFactor="1.04" vaporized=""/>
    <tripinfo id="route_61.11" depart="4.00" departLane="186407684#0_0" departPos="71.90" departSpeed="0.00" departDelay="0.67" arrival="64.00" arrivalLane="1341093416#0_2" arrivalPos="212.32" arrivalSpeed="16.51" duration="60.00" routeLength="250.44" waitingTime="28.00" waitingCount="2" stopTime="0.00" timeLoss="43.82" rerouteNo="0" devices="tripinfo_route_61.11 routing_route_61.11" vType="car" speedFactor="1.03" vaporized=""/>
    <tripinfo id="route_57.6" depart="4.00" departLane="186407685_0" departPos="95.68" departSpeed="0.00" departDelay="2.20" arrival="66.00" arrivalLane="380351865#0_1" arrivalPos="8.24" arrivalSpeed="11.12" duration="62.00" routeLength="249.17" waitingTime="11.00" waitingCount="2" stopTime="0.00" timeLoss="42.73" rerouteNo="1" devices="tripinfo_route_57.6 routing_route_57.6" vType="car" speedFactor="1.04" vaporized=""/>
    <tripinfo id="route_61.15" depart="11.00" departLane="186407684#0_0" departPos="75.51" departSpeed="0.00" departDelay="6.46" arrival="68.00" arrivalLane="1341093416#0_2" arrivalPos="200.87" arrivalSpeed="16.10" duration="57.00" routeLength="235.38" waitingTime="29.00" waitingCount="2" stopTime="0.00" timeLoss="41.66" rerouteNo="0" devices="tripinfo_route_61.15 routing_route_61.15" vType="car" speedFactor="1.07" vaporized=""/>
    <tripinfo id="route_57.5" depart="3.00" departLane="186407685_0" departPos="7.00" departSpeed="0.00" departDelay="1.50" arrival="69.00" arrivalLane="380351865#0_1" arrivalPos="14.62" arrivalSpeed="10.94" duration="66.00" routeLength="344.23" waitingTime="9.00" waitingCount="2" stopTime="0.00" timeLoss="39.82" rerouteNo="1" devices="tripinfo_route_57.5 routing_route_57.5" vType="car" speedFactor="1.00" vaporized=""/>
    <tripinfo id="route_57.12" depart="18.00" departLane="186407685_0" departPos="87.68" departSpeed="0.00" departDelay="14.40" arrival="70.00" arrivalLane="380351865#0_0" arrivalPos="15.30" arrivalSpeed="10.19" duration="52.00" routeLength="264.23" waitingTime="10.00" waitingCount="1" stopTime="0.00" timeLoss="30.67" rerouteNo="1" devices="tripinfo_route_57.12 routing_route_57.12" vType="car" speedFactor="0.96" vaporized=""/>
    <tripinfo id="route_57.14" depart="21.00" departLane="186407685_0" departPos="81.15" departSpeed="0.00" departDelay="16.80" arrival="71.00" arrivalLane="380351865#0_0" arrivalPos="9.06" arrivalSpeed="11.20" duration="50.00" routeLength="264.52" waitingTime="8.00" waitingCount="1" stopTime="0.00" timeLoss="30.67" rerouteNo="1" devices="tripinfo_route_57.14 routing_route_57.14" vType="car" speedFactor="1.10" vaporized=""/>
    <tripinfo id="route_57.4" depart="3.00" departLane="186407685_0" departPos="50.42" departSpeed="0.00" departDelay="1.80" arrival="72.00" arrivalLane="380351865#0_1" arrivalPos="6.67" arrivalSpeed="10.71" duration="69.00" routeLength="292.86" waitingTime="15.00" waitingCount="2" stopTime="0.00" timeLoss="45.99" rerouteNo="1" devices="tripinfo_route_57.4 routing_route_57.4" vType="car" speedFactor="0.98" vaporized=""/>
    <tripinfo id="route_57.16" depart="24.00" departLane="186407685_0" departPos="76.25" departSpeed="0.00" departDelay="19.20" arrival="72.00" arrivalLane="380351865#0_0" arrivalPos="0.24" arrivalSpeed="10.92" duration="48.00" routeLength="260.61" waitingTime="8.00" waitingCount="1" stopTime="0.00" timeLoss="29.12" rerouteNo="1" devices="tripinfo_route_57.16 routing_route_57.16" vType="car" speedFactor="1.09" vaporized=""/>
    <tripinfo id="route_61.4" depart="2.00" departLane="186407684#0_0" departPos="51.08" departSpeed="0.00" departDelay="0.79" arrival="73.00" arrivalLane="1341093416#0_2" arrivalPos="231.82" arrivalSpeed="16.39" duration="71.00" routeLength="290.77" waitingTime="23.00" waitingCount="4" stopTime="0.00" timeLoss="52.58" rerouteNo="0" devices="tripinfo_route_61.4 routing_route_61.4" vType="car" speedFactor="1.01" vaporized=""/>
    <tripinfo id="route_25.2" depart="1.00" departLane="1254771874#0_0" departPos="93.35" departSpeed="0.00" departDelay="0.40" arrival="74.00" arrivalLane="1341093415#0_2" arrivalPos="30.02" arrivalSpeed="8.94" duration="73.00" routeLength="214.45" waitingTime="35.00" waitingCount="1" stopTime="0.00" timeLoss="59.94" rerouteNo="0" devices="tripinfo_route_25.2 routing_route_25.2" vType="car" speedFactor="1.02" vaporized=""/>
    <tripinfo id="route_57.10" depart="8.00" departLane="186407685_0" departPos="3.43" departSpeed="0.00" departDelay="5.00" arrival="74.00" arrivalLane="380351865#0_1" arrivalPos="9.82" arrivalSpeed="10.36" duration="66.00" routeLength="343.01" waitingTime="5.00" waitingCount="2" stopTime="0.00" timeLoss="40.18" rerouteNo="1" devices="tripinfo_route_57.10 routing_route_57.10" vType="car" speedFactor="0.96" vaporized=""/>
    <tripinfo id="route_57.19" depart="34.00" departLane="186407685_0" departPos="68.01" departSpeed="0.00" departDelay="28.30" arrival="74.00" arrivalLane="380351865#0_0" arrivalPos="3.95" arrivalSpeed="12.08" duration="40.00" routeLength="272.55" waitingTime="0.00" waitingCount="0" stopTime="0.00" timeLoss="20.76" rerouteNo="1" devices="tripinfo_route_57.19 routing_route_57.19" vType="car" speedFactor="1.13" vaporized=""/>
    <tripinfo id="route_57.11" depart="13.00" departLane="186407685_0" departPos="25.64" departSpeed="0.00" departDelay="9.70" arrival="76.00" arrivalLane="380351865#0_1" arrivalPos="6.09" arrivalSpeed="11.96" duration="63.00" routeLength="317.07" waitingTime="4.00" waitingCount="2" stopTime="0.00" timeLoss="40.52" rerouteNo="1" devices="tripinfo_route_57.11 routing_route_57.11" vType="car" speedFactor="1.14" vaporized=""/>
    <tripinfo id="route_25.8" depart="26.00" departLane="1254771874#0_0" departPos="94.91" departSpeed="0.00" departDelay="23.60" arrival="77.00" arrivalLane="1341093415#0_2" arrivalPos="21.29" arrivalSpeed="9.19" duration="51.00" routeLength="204.16" waitingTime="7.00" waitingCount="2" stopTime="0.00" timeLoss="38.51" rerouteNo="0" devices="tripinfo_route_25.8 routing_route_25.8" vType="car" speedFactor="1.12" vaporized=""/>
    <tripinfo id="route_61.8" depart="3.00" departLane="186407684#0_0" departPos="42.21" departSpeed="0.00" departDelay="0.58" arrival="78.00" arrivalLane="1341093416#0_2" arrivalPos="217.39" arrivalSpeed="16.27" duration="75.00" routeLength="285.20" waitingTime="22.00" waitingCount="4" stopTime="0.00" timeLoss="56.66" rerouteNo="0" devices="tripinfo_route_61.8 routing_route_61.8" vType="car" speedFactor="1.23" vaporized=""/>
    <tripinfo id="route_25.12" depart="47.00" departLane="1254771874#0_0" departPos="89.62" departSpeed="0.00" departDelay="43.40" arrival="78.00" arrivalLane="1341093415#0_2" arrivalPos="4.74" arrivalSpeed="8.76" duration="31.00" routeLength="192.90" waitingTime="0.00" waitingCount="0" stopTime="0.00" timeLoss="18.90" rerouteNo="0" devices="tripinfo_route_25.12 routing_route_25.12" vType="car" speedFactor="1.14" vaporized=""/>
    <tripinfo id="route_57.13" depart="19.00" departLane="186407685_0" departPos="16.83" departSpeed="0.00" departDelay="15.10" arrival="78.00" arrivalLane="380351865#0_1" arrivalPos="9.74" arrivalSpeed="10.13" duration="59.00" routeLength="329.51" waitingTime="0.00" waitingCount="0" stopTime="0.00" timeLoss="33.35" rerouteNo="1" devices="tripinfo_route_57.13 routing_route_57.13" vType="car" speedFactor="0.92" vaporized=""/>
    <tripinfo id="route_61.20" depart="30.00" departLane="186407684#0_0" departPos="66.94" departSpeed="0.00" departDelay="23.94" arrival="78.00" arrivalLane="1341093416#0_1" arrivalPos="249.28" arrivalSpeed="16.40" duration="48.00" routeLength="292.36" waitingTime="9.00" waitingCount="2" stopTime="0.00" timeLoss="29.00" rerouteNo="0" devices="tripinfo_route_61.20 routing_route_61.20" vType="car" speedFactor="1.06" vaporized=""/>
    <tripinfo id="route_51.1" depart="5.00" departLane="-138002006#3_0" departPos="69.97" departSpeed="0.00" departDelay="4.67" arrival="79.00" arrivalLane="1341093415#0_3" arrivalPos="87.80" arrivalSpeed="12.20" duration="74.00" routeLength="121.51" waitingTime="46.00" waitingCount="2" stopTime="0.00" timeLoss="65.58" rerouteNo="0" devices="tripinfo_route_51.1 routing_route_51.1" vType="car" speedFactor="0.99" vaporized=""/>
    <tripinfo id="route_25.10" depart="28.00" departLane="1254771874#0_0" departPos="19.27" departSpeed="0.00" departDelay="25.00" arrival="79.00" arrivalLane="1341093415#0_2" arrivalPos="65.15" arrivalSpeed="11.98" duration="51.00" routeLength="323.66" waitingTime="7.00" waitingCount="1" stopTime="0.00" timeLoss="31.36" rerouteNo="0" devices="tripinfo_route_25.10 routing_route_25.10" vType="car" speedFactor="1.06" vaporized=""/>
    <tripinfo id="route_53.10" depart="43.00" departLane="138002006#0_0" departPos="66.25" departSpeed="0.00" departDelay="39.97" arrival="80.00" arrivalLane="1369578052#0_0" arrivalPos="54.09" arrivalSpeed="11.10" duration="37.00" routeLength="95.76" waitingTime="16.00" waitingCount="1" stopTime="0.00" timeLoss="30.57" rerouteNo="0" devices="tripinfo_route_53.10 routing_route_53.10" vType="car" speedFactor="0.91" vaporized=""/>
    <tripinfo id="route_57.15" depart="21.00" departLane="186407685_0" departPos="10.43" departSpeed="0.00" departDelay="16.50" arrival="81.00" arrivalLane="380351865#0_0" arrivalPos="0.09" arrivalSpeed="8.97" duration="60.00" routeLength="326.27" waitingTime="1.00" waitingCount="1" stopTime="0.00" timeLoss="32.84" rerouteNo="1" devices="tripinfo_route_57.15 routing_route_57.15" vType="car" speedFactor="0.83" vaporized=""/>