<?xml version="1.0" encoding="UTF-8"?>

<!-- generated on 2025-05-04 22:11:10 by Eclipse SUMO sumo Version 1.20.0
<configuration xmlns:xsi="http://www.w3.org/2001/XMLSchema-instance" xsi:noNamespaceSchemaLocation="http://sumo.dlr.de/xsd/sumoConfiguration.xsd">

    <input>
        <net-file value="config/osm.net.xml"/>
        <route-files value="draft/generated_0_093_5_069_0_649_7_027_78_.rou.xml"/>
    </input>

    <output>
        <tripinfo-output value="draft/tripinfo_0_093_5_069_0_649_7_027_78.xml"/>
    </output>

    <time>
        <step-length value="1"/>
    </time>

    <traci_server>
        <remote-port value="49303"/>
    </traci_server>

    <gui_only>
        <start value="true"/>
    </gui_only>

</configuration>
-->

<tripinfos xmlns:xsi="http://www.w3.org/2001/XMLSchema-instance" xsi:noNamespaceSchemaLocation="http://sumo.dlr.de/xsd/tripinfo_file.xsd">
    <tripinfo id="route_34.0" depart="78.00" departLane="133126008#0_0" departPos="101.07" departSpeed="0.00" departDelay="0.00" arrival="99.00" arrivalLane="1369578054_1" arrivalPos="13.07" arrivalSpeed="10.38" duration="21.00" routeLength="125.36" waitingTime="0.00" waitingCount="0" stopTime="0.00" timeLoss="12.81" rerouteNo="0" devices="tripinfo_route_34.0" vType="car" speedFactor="0.83" vaporized=""/>
    <tripinfo id="route_29.1" depart="80.00" departLane="-422986370#2_0" departPos="265.89" departSpeed="0.00" departDelay="0.54" arrival="102.00" arrivalLane="-430406005#1_1" arrivalPos="8.25" arrivalSpeed="7.68" duration="22.00" routeLength="76.79" waitingTime="3.00" waitingCount="1" stopTime="0.00" timeLoss="17.38" rerouteNo="0" devices="tripinfo_route_29.1" vType="car" speedFactor="1.09" vaporized=""/>
    <tripinfo id="route_29.4" depart="84.00" departLane="-422986370#2_0" departPos="297.23" departSpeed="0.00" departDelay="0.15" arrival="106.00" arrivalLane="-430406005#1_0" arrivalPos="32.75" arrivalSpeed="10.41" duration="22.00" routeLength="69.94" waitingTime="6.00" waitingCount="1" stopTime="0.00" timeLoss="17.27" rerouteNo="0" devices="tripinfo_route_29.4" vType="car" speedFactor="1.15" vaporized=""/>
    <tripinfo id="route_34.3" depart="89.00" departLane="133126008#0_0" departPos="127.31" departSpeed="0.00" departDelay="4.18" arrival="106.00" arrivalLane="1369578054_1" arrivalPos="25.77" arrivalSpeed="12.83" duration="17.00" routeLength="111.83" waitingTime="0.00" waitingCount="0" stopTime="0.00" timeLoss="10.20" rerouteNo="0" devices="tripinfo_route_34.3" vType="car" speedFactor="0.97" vaporized=""/>
    <tripinfo id="route_34.6" depart="92.00" departLane="133126008#0_0" departPos="162.26" departSpeed="0.00" departDelay="0.37" arrival="110.00" arrivalLane="1369578054_0" arrivalPos="50.19" arrivalSpeed="12.54" duration="18.00" routeLength="101.29" waitingTime="2.00" waitingCount="1" stopTime="0.00" timeLoss="11.23" rerouteNo="0" devices="tripinfo_route_34.6" vType="car" speedFactor="0.94" vaporized=""/>
    <tripinfo id="route_29.8" depart="94.00" departLane="-422986370#2_0" departPos="216.62" departSpeed="0.00" departDelay="4.30" arrival="112.00" arrivalLane="-430406005#1_0" arrivalPos="7.61" arrivalSpeed="13.66" duration="18.00" routeLength="125.42" waitingTime="0.00" waitingCount="0" stopTime="0.00" timeLoss="10.08" rerouteNo="0" devices="tripinfo_route_29.8" vType="car" speedFactor="1.02" vaporized=""/>
    <tripinfo id="route_34.5" depart="91.00" departLane="133126008#0_0" departPos="98.03" departSpeed="0.00" departDelay="1.64" arrival="112.00" arrivalLane="1369578054_1" arrivalPos="46.01" arrivalSpeed="15.53" duration="21.00" routeLength="161.35" waitingTime="0.00" waitingCount="0" stopTime="0.00" timeLoss="10.86" rerouteNo="0" devices="tripinfo_route_34.5" vType="car" speedFactor="0.99" vaporized=""/>
    <tripinfo id="route_35.1" depart="82.00" departLane="133126008#0_0" departPos="144.87" departSpeed="0.00" departDelay="1.17" arrival="113.00" arrivalLane="133126030#0_0" arrivalPos="141.65" arrivalSpeed="14.67" duration="31.00" routeLength="184.30" waitingTime="1.00" waitingCount="1" stopTime="0.00" timeLoss="18.27" rerouteNo="0" devices="tripinfo_route_35.1" vType="car" speedFactor="0.94" vaporized=""/>
    <tripinfo id="route_35.2" depart="87.00" departLane="133126008#0_0" departPos="111.59" departSpeed="0.00" departDelay="3.34" arrival="113.00" arrivalLane="133126030#0_0" arrivalPos="51.67" arrivalSpeed="10.33" duration="26.00" routeLength="127.60" waitingTime="0.00" waitingCount="0" stopTime="0.00" timeLoss="17.65" rerouteNo="0" devices="tripinfo_route_35.2" vType="car" speedFactor="1.02" vaporized=""/>
    <tripinfo id="route_34.7" depart="94.00" departLane="133126008#0_0" departPos="143.10" departSpeed="0.00" departDelay="0.10" arrival="113.00" arrivalLane="1369578054_0" arrivalPos="62.18" arrivalSpeed="14.08" duration="19.00" routeLength="132.44" waitingTime="0.00" waitingCount="0" stopTime="0.00" timeLoss="10.11" rerouteNo="0" devices="tripinfo_route_34.7" vType="car" speedFactor="0.97" vaporized=""/>
    <tripinfo id="route_30.0" depart="78.00" departLane="-422986370#2_0" departPos="201.60" departSpeed="0.00" departDelay="0.00" arrival="115.00" arrivalLane="137415945#0_0" arrivalPos="9.07" arrivalSpeed="15.19" duration="37.00" routeLength="253.29" waitingTime="0.00" waitingCount="0" stopTime="0.00" timeLoss="19.49" rerouteNo="0" devices="tripinfo_route_30.0" vType="car" speedFactor="0.94" vaporized=""/>
    <tripinfo id="route_29.2" depart="81.00" departLane="-422986370#2_0" departPos="99.24" departSpeed="0.00" departDelay="0.07" arrival="115.00" arrivalLane="-430406005#1_1" arrivalPos="42.28" arrivalSpeed="13.22" duration="34.00" routeLength="277.46" waitingTime="0.00" waitingCount="0" stopTime="0.00" timeLoss="15.75" rerouteNo="0" devices="tripinfo_route_29.2" vType="car" speedFactor="0.93" vaporized=""/>
    <tripinfo id="route_34.1" depart="81.00" departLane="133126008#0_0" departPos="23.09" departSpeed="0.00" departDelay="0.73" arrival="117.00" arrivalLane="1369578054_1" arrivalPos="90.42" arrivalSpeed="15.55" duration="36.00" routeLength="280.69" waitingTime="0.00" waitingCount="0" stopTime="0.00" timeLoss="18.55" rerouteNo="0" devices="tripinfo_route_34.1" vType="car" speedFactor="0.94" vaporized=""/>
    <tripinfo id="route_34.2" depart="84.00" departLane="133126008#0_0" departPos="165.65" departSpeed="0.00" departDelay="1.46" arrival="118.00" arrivalLane="1369578054_0" arrivalPos="207.23" arrivalSpeed="15.37" duration="34.00" routeLength="254.95" waitingTime="1.00" waitingCount="1" stopTime="0.00" timeLoss="17.19" rerouteNo="0" devices="tripinfo_route_34.2" vType="car" speedFactor="0.95" vaporized=""/>
    <tripinfo id="route_29.6" depart="91.00" departLane="-422986370#2_0" departPos="192.05" departSpeed="0.00" departDelay="4.22" arrival="118.00" arrivalLane="-430406005#1_0" arrivalPos="74.50" arrivalSpeed="16.38" duration="27.00" routeLength="216.88" waitingTime="0.00" waitingCount="0" stopTime="0.00" timeLoss="13.73" rerouteNo="0" devices="tripinfo_route_29.6" vType="car" speedFactor="1.09" vaporized=""/>
    <tripinfo id="route_29.3" depart="83.00" departLane="-422986370#2_0" departPos="173.76" departSpeed="0.00" departDelay="0.61" arrival="119.00" arrivalLane="-430406005#1_1" arrivalPos="127.79" arrivalSpeed="16.28" duration="36.00" routeLength="288.46" waitingTime="0.00" waitingCount="0" stopTime="0.00" timeLoss="16.92" rerouteNo="0" devices="tripinfo_route_29.3" vType="car" speedFactor="0.87" vaporized=""/>
    <tripinfo id="route_29.5" depart="87.00" departLane="-422986370#2_0" departPos="127.34" departSpeed="0.00" departDelay="1.69" arrival="119.00" arrivalLane="-430406005#1_1" arrivalPos="62.84" arrivalSpeed="15.03" duration="32.00" routeLength="269.93" waitingTime="0.00" waitingCount="0" stopTime="0.00" timeLoss="15.66" rerouteNo="0" devices="tripinfo_route_29.5" vType="car" speedFactor="1.03" vaporized=""/>
    <tripinfo id="route_30.5" depart="91.00" departLane="-422986370#2_0" departPos="245.96" departSpeed="0.00" departDelay="3.26" arrival="119.00" arrivalLane="137415945#0_0" arrivalPos="11.12" arrivalSpeed="14.18" duration="28.00" routeLength="210.98" waitingTime="0.00" waitingCount="0" stopTime="0.00" timeLoss="11.51" rerouteNo="0" devices="tripinfo_route_30.5" vType="car" speedFactor="0.85" vaporized=""/>
    <tripinfo id="route_30.4" depart="87.00" departLane="-422986370#2_0" departPos="212.90" departSpeed="0.00" departDelay="1.21" arrival="120.00" arrivalLane="137415945#0_0" arrivalPos="3.69" arrivalSpeed="15.09" duration="33.00" routeLength="236.61" waitingTime="0.00" waitingCount="0" stopTime="0.00" timeLoss="16.91" rerouteNo="0" devices="tripinfo_route_30.4" vType="car" speedFactor="0.96" vaporized=""/>
    <tripinfo id="route_29.9" depart="95.00" departLane="-422986370#2_0" departPos="275.45" departSpeed="0.00" departDelay="3.83" arrival="120.00" arrivalLane="-430406005#1_1" arrivalPos="175.19" arrivalSpeed="16.20" duration="25.00" routeLength="234.17" waitingTime="0.00" waitingCount="0" stopTime="0.00" timeLoss="10.51" rerouteNo="0" devices="tripinfo_route_29.9" vType="car" speedFactor="1.04" vaporized=""/>
    <tripinfo id="route_35.3" depart="89.00" departLane="133126008#0_0" departPos="66.33" departSpeed="0.00" departDelay="2.51" arrival="121.00" arrivalLane="133126030#0_0" arrivalPos="67.66" arrivalSpeed="11.08" duration="32.00" routeLength="188.86" waitingTime="0.00" waitingCount="0" stopTime="0.00" timeLoss="19.34" rerouteNo="0" devices="tripinfo_route_35.3" vType="car" speedFactor="1.00" vaporized=""/>
    <tripinfo id="route_35.0" depart="78.00" departLane="133126008#0_0" departPos="47.21" departSpeed="0.00" departDelay="0.00" arrival="122.00" arrivalLane="133126030#0_0" arrivalPos="137.72" arrivalSpeed="15.80" duration="44.00" routeLength="278.03" waitingTime="0.00" waitingCount="0" stopTime="0.00" timeLoss="25.64" rerouteNo="0" devices="tripinfo_route_35.0" vType="car" speedFactor="1.05" vaporized=""/>
    <tripinfo id="route_34.11" depart="109.00" departLane="133126008#0_0" departPos="149.40" departSpeed="0.00" departDelay="6.01" arrival="123.00" arrivalLane="1369578054_0" arrivalPos="14.54" arrivalSpeed="11.20" duration="14.00" routeLength="78.50" waitingTime="0.00" waitingCount="0" stopTime="0.00" timeLoss="8.63" rerouteNo="0" devices="tripinfo_route_34.11" vType="car" speedFactor="0.82" vaporized=""/>
    <tripinfo id="route_29.0" depart="78.00" departLane="-422986370#2_0" departPos="1.81" departSpeed="0.00" departDelay="0.00" arrival="124.00" arrivalLane="-430406005#1_1" arrivalPos="159.13" arrivalSpeed="16.34" duration="46.00" routeLength="491.75" waitingTime="0.00" waitingCount="0" stopTime="0.00" timeLoss="15.65" rerouteNo="0" devices="tripinfo_route_29.0" vType="car" speedFactor="1.06" vaporized=""/>
    <tripinfo id="route_34.4" depart="89.00" departLane="133126008#0_0" departPos="85.67" departSpeed="0.00" departDelay="1.91" arrival="124.00" arrivalLane="1369578054_1" arrivalPos="123.18" arrivalSpeed="16.12" duration="35.00" routeLength="250.86" waitingTime="0.00" waitingCount="0" stopTime="0.00" timeLoss="19.42" rerouteNo="0" devices="tripinfo_route_34.4" vType="car" speedFactor="1.10" vaporized=""/>
    <tripinfo id="route_34.8" depart="98.00" departLane="133126008#0_0" departPos="2.08" departSpeed="0.00" departDelay="1.82" arrival="124.00" arrivalLane="1369578054_1" arrivalPos="25.34" arrivalSpeed="15.24" duration="26.00" routeLength="236.62" waitingTime="0.00" waitingCount="0" stopTime="0.00" timeLoss="11.55" rerouteNo="0" devices="tripinfo_route_34.8" vType="car" speedFactor="1.01" vaporized=""/>
    <tripinfo id="route_30.1" depart="80.00" departLane="-422986370#2_0" departPos="118.79" departSpeed="0.00" departDelay="0.05" arrival="128.00" arrivalLane="137415945#0_0" arrivalPos="6.53" arrivalSpeed="16.34" duration="48.00" routeLength="333.56" waitingTime="0.00" waitingCount="0" stopTime="0.00" timeLoss="25.98" rerouteNo="0" devices="tripinfo_route_30.1" vType="car" speedFactor="1.03" vaporized=""/>
    <tripinfo id="route_30.3" depart="84.00" departLane="-422986370#2_0" departPos="94.02" departSpeed="0.00" departDelay="0.16" arrival="130.00" arrivalLane="137415945#0_0" arrivalPos="8.17" arrivalSpeed="16.34" duration="46.00" routeLength="359.97" waitingTime="0.00" waitingCount="0" stopTime="0.00" timeLoss="22.61" rerouteNo="0" devices="tripinfo_route_30.3" vType="car" speedFactor="1.01" vaporized=""/>
    <tripinfo id="route_30.2" depart="82.00" departLane="-422986370#2_0" departPos="26.67" departSpeed="0.00" departDelay="0.10" arrival="132.00" arrivalLane="137415945#0_0" arrivalPos="3.36" arrivalSpeed="16.38" duration="50.00" routeLength="422.51" waitingTime="0.00" waitingCount="0" stopTime="0.00" timeLoss="23.07" rerouteNo="0" devices="tripinfo_route_30.2" vType="car" speedFactor="1.01" vaporized=""/>
    <tripinfo id="route_35.7" depart="101.00" departLane="133126008#0_0" departPos="104.16" departSpeed="0.00" departDelay="3.19" arrival="132.00" arrivalLane="133126030#0_0" arrivalPos="112.02" arrivalSpeed="14.14" duration="31.00" routeLength="195.38" waitingTime="0.00" waitingCount="0" stopTime="0.00" timeLoss="18.29" rerouteNo="0" devices="tripinfo_route_35.7" vType="car" speedFactor="0.95" vaporized=""/>
    <tripinfo id="route_35.5" depart="94.00" departLane="133126008#0_0" departPos="65.41" departSpeed="0.00" departDelay="1.85" arrival="138.00" arrivalLane="133126030#0_0" arrivalPos="157.74" arrivalSpeed="15.88" duration="44.00" routeLength="279.84" waitingTime="0.00" waitingCount="0" stopTime="0.00" timeLoss="24.98" rerouteNo="0" devices="tripinfo_route_35.5" vType="car" speedFactor="0.98" vaporized=""/>
    <tripinfo id="route_34.10" depart="105.00" departLane="133126008#0_0" departPos="123.74" departSpeed="0.00" departDelay="4.28" arrival="138.00" arrivalLane="1369578054_1" arrivalPos="275.15" arrivalSpeed="16.18" duration="33.00" routeLength="364.78" waitingTime="0.00" waitingCount="0" stopTime="0.00" timeLoss="10.52" rerouteNo="0" devices="tripinfo_route_34.10" vType="car" speedFactor="1.18" vaporized=""/>
    <tripinfo id="route_30.12" depart="116.00" departLane="-422986370#2_0" departPos="279.60" departSpeed="0.00" departDelay="14.62" arrival="138.00" arrivalLane="137415945#0_0" arrivalPos="8.96" arrivalSpeed="15.37" duration="22.00" routeLength="175.19" waitingTime="0.00" waitingCount="0" stopTime="0.00" timeLoss="9.29" rerouteNo="0" devices="tripinfo_route_30.12" vType="car" speedFactor="0.94" vaporized=""/>
    <tripinfo id="route_38.2" depart="87.00" departLane="485211947#0_0" departPos="162.23" departSpeed="0.00" departDelay="4.39" arrival="145.00" arrivalLane="-430406005#1_1" arrivalPos="54.97" arrivalSpeed="11.21" duration="58.00" routeLength="105.72" waitingTime="35.00" waitingCount="1" stopTime="0.00" timeLoss="51.05" rerouteNo="0" devices="tripinfo_route_38.2" vType="car" speedFactor="1.18" vaporized=""/>
    <tripinfo id="route_38.3" depart="92.00" departLane="485211947#0_0" departPos="0.16" departSpeed="0.00" departDelay="7.08" arrival="147.00" arrivalLane="-430406005#1_1" arrivalPos="32.26" arrivalSpeed="10.71" duration="55.00" routeLength="245.09" waitingTime="17.00" waitingCount="1" stopTime="0.00" timeLoss="37.88" rerouteNo="0" devices="tripinfo_route_38.3" vType="car" speedFactor="0.90" vaporized=""/>
    <tripinfo id="route_37.0" depart="78.00" departLane="485211947#0_0" departPos="162.24" departSpeed="0.00" departDelay="0.00" arrival="149.00" arrivalLane="137415945#0_0" arrivalPos="6.94" arrivalSpeed="15.57" duration="71.00" routeLength="189.23" waitingTime="41.00" waitingCount="1" stopTime="0.00" timeLoss="58.16" rerouteNo="0" devices="tripinfo_route_37.0" vType="car" speedFactor="0.94" vaporized=""/>
    <tripinfo id="route_37.1" depart="81.00" departLane="485211947#0_0" departPos="76.22" departSpeed="0.00" departDelay="0.96" arrival="149.00" arrivalLane="137415945#0_1" arrivalPos="2.03" arrivalSpeed="14.71" duration="68.00" routeLength="270.34" waitingTime="28.00" waitingCount="1" stopTime="0.00" timeLoss="51.67" rerouteNo="0" devices="tripinfo_route_37.1" vType="car" speedFactor="1.16" vaporized=""/>
    <tripinfo id="route_36.0" depart="78.00" departLane="485211947#0_0" departPos="11.17" departSpeed="0.00" departDelay="0.00" arrival="152.00" arrivalLane="1369578054_0" arrivalPos="74.16" arrivalSpeed="12.42" duration="74.00" routeLength="260.46" waitingTime="22.00" waitingCount="1" stopTime="0.00" timeLoss="54.86" rerouteNo="0" devices="tripinfo_route_36.0" vType="car" speedFactor="0.89" vaporized=""/>
    <tripinfo id="route_38.1" depart="81.00" departLane="485211947#0_0" departPos="178.72" departSpeed="0.00" departDelay="0.69" arrival="152.00" arrivalLane="-430406005#1_1" arrivalPos="170.84" arrivalSpeed="16.23" duration="71.00" routeLength="205.10" waitingTime="42.00" waitingCount="1" stopTime="0.00" timeLoss="56.88" rerouteNo="0" devices="tripinfo_route_38.1" vType="car" speedFactor="1.02" vaporized=""/>
    <tripinfo id="route_36.2" depart="82.00" departLane="485211947#0_0" departPos="123.80" departSpeed="0.00" departDelay="0.67" arrival="152.00" arrivalLane="1369578054_0" arrivalPos="171.28" arrivalSpeed="13.59" duration="70.00" routeLength="244.94" waitingTime="34.00" waitingCount="1" stopTime="0.00" timeLoss="51.14" rerouteNo="0" devices="tripinfo_route_36.2" vType="car" speedFactor="0.83" vaporized=""/>
    <tripinfo id="route_37.2" depart="86.00" departLane="485211947#0_0" departPos="72.22" departSpeed="0.00" departDelay="3.92" arrival="152.00" arrivalLane="137415945#0_1" arrivalPos="12.22" arrivalSpeed="15.30" duration="66.00" routeLength="284.53" waitingTime="24.00" waitingCount="1" stopTime="0.00" timeLoss="46.85" rerouteNo="0" devices="tripinfo_route_37.2" vType="car" speedFactor="0.93" vaporized=""/>
    <tripinfo id="route_38.0" depart="78.00" departLane="485211947#0_0" departPos="59.66" departSpeed="0.00" departDelay="0.00" arrival="153.00" arrivalLane="-430406005#1_1" arrivalPos="133.07" arrivalSpeed="16.13" duration="75.00" routeLength="286.39" waitingTime="34.00" waitingCount="1" stopTime="0.00" timeLoss="55.03" rerouteNo="0" devices="tripinfo_route_38.0" vType="car" speedFactor="0.86" vaporized=""/>
    <tripinfo id="route_37.4" depart="97.00" departLane="485211947#0_0" departPos="123.42" departSpeed="0.00" departDelay="10.84" arrival="153.00" arrivalLane="137415945#0_1" arrivalPos="0.30" arrivalSpeed="14.41" duration="56.00" routeLength="221.41" waitingTime="21.00" waitingCount="1" stopTime="0.00" timeLoss="40.00" rerouteNo="0" devices="tripinfo_route_37.4" vType="car" speedFactor="0.88" vaporized=""/>
    <tripinfo id="route_37.3" depart="92.00" departLane="485211947#0_0" departPos="62.79" departSpeed="0.00" departDelay="7.88" arrival="154.00" arrivalLane="137415945#0_1" arrivalPos="2.64" arrivalSpeed="15.17" duration="62.00" routeLength="284.38" waitingTime="20.00" waitingCount="1" stopTime="0.00" timeLoss="44.72" rerouteNo="0" devices="tripinfo_route_37.3" vType="car" speedFactor="1.10" vaporized=""/>
    <tripinfo id="route_37.5" depart="99.00" departLane="485211947#0_0" departPos="34.83" departSpeed="0.00" departDelay="10.80" arrival="156.00" arrivalLane="137415945#0_1" arrivalPos="9.07" arrivalSpeed="16.43" duration="57.00" routeLength="318.76" waitingTime="12.00" waitingCount="1" stopTime="0.00" timeLoss="37.67" rerouteNo="0" devices="tripinfo_route_37.5" vType="car" speedFactor="1.14" vaporized=""/>
    <tripinfo id="route_38.5" depart="103.00" departLane="485211947#0_0" departPos="66.16" departSpeed="0.00" departDelay="13.47" arrival="156.00" arrivalLane="-430406005#1_1" arrivalPos="118.46" arrivalSpeed="16.31" duration="53.00" routeLength="265.28" waitingTime="12.00" waitingCount="1" stopTime="0.00" timeLoss="34.65" rerouteNo="0" devices="tripinfo_route_38.5" vType="car" speedFactor="0.91" vaporized=""/>
    <tripinfo id="route_37.6" depart="106.00" departLane="485211947#0_0" departPos="79.26" departSpeed="0.00" departDelay="15.76" arrival="158.00" arrivalLane="137415945#0_1" arrivalPos="7.30" arrivalSpeed="15.06" duration="52.00" routeLength="272.57" waitingTime="6.00" waitingCount="1" stopTime="0.00" timeLoss="33.75" rerouteNo="0" devices="tripinfo_route_37.6" vType="car" speedFactor="0.91" vaporized=""/>
    <tripinfo id="route_36.6" depart="97.00" departLane="485211947#0_0" departPos="22.13" departSpeed="0.00" departDelay="9.00" arrival="159.00" arrivalLane="1369578054_0" arrivalPos="102.74" arrivalSpeed="14.51" duration="62.00" routeLength="278.07" waitingTime="16.00" waitingCount="1" stopTime="0.00" timeLoss="44.63" rerouteNo="0" devices="tripinfo_route_36.6" vType="car" speedFactor="1.00" vaporized=""/>
    <tripinfo id="route_38.6" depart="113.00" departLane="485211947#0_0" departPos="119.37" departSpeed="0.00" departDelay="21.16" arrival="159.00" arrivalLane="-430406005#1_1" arrivalPos="142.51" arrivalSpeed="16.43" duration="46.00" routeLength="236.12" waitingTime="11.00" waitingCount="1" stopTime="0.00" timeLoss="30.24" rerouteNo="0" devices="tripinfo_route_38.6" vType="car" speedFactor="0.96" vaporized=""/>
    <tripinfo id="route_38.7" depart="132.00" departLane="485211947#0_0" departPos="21.22" departSpeed="0.00" departDelay="37.85" arrival="159.00" arrivalLane="-430406005#1_1" arrivalPos="17.45" arrivalSpeed="11.18" duration="27.00" routeLength="209.21" waitingTime="0.00" waitingCount="0" stopTime="0.00" timeLoss="13.20" rerouteNo="0" devices="tripinfo_route_38.7" vType="car" speedFactor="1.02" vaporized=""/>
    <tripinfo id="route_36.4" depart="90.00" departLane="485211947#0_0" departPos="51.38" departSpeed="0.00" departDelay="5.34" arrival="160.00" arrivalLane="1369578054_0" arrivalPos="169.94" arrivalSpeed="16.30" duration="70.00" routeLength="316.02" waitingTime="21.00" waitingCount="1" stopTime="0.00" timeLoss="49.96" rerouteNo="0" devices="tripinfo_route_36.4" vType="car" speedFactor="1.18" vaporized=""/>
    <tripinfo id="route_37.7" depart="124.00" departLane="485211947#0_0" departPos="73.77" departSpeed="0.00" departDelay="31.72" arrival="160.00" arrivalLane="137415945#0_1" arrivalPos="5.01" arrivalSpeed="16.30" duration="36.00" routeLength="275.77" waitingTime="0.00" waitingCount="0" stopTime="0.00" timeLoss="18.47" rerouteNo="0" devices="tripinfo_route_37.7" vType="car" speedFactor="1.09" vaporized=""/>
    <tripinfo id="route_36.1" depart="80.00" departLane="485211947#0_0" departPos="100.86" departSpeed="0.00" departDelay="0.33" arrival="161.00" arrivalLane="1369578054_0" arrivalPos="281.37" arrivalSpeed="16.05" duration="81.00" routeLength="377.98" waitingTime="34.00" waitingCount="1" stopTime="0.00" timeLoss="56.81" rerouteNo="0" devices="tripinfo_route_36.1" vType="car" speedFactor="0.99" vaporized=""/>
    <tripinfo id="route_37.8" depart="127.00" departLane="485211947#0_0" departPos="39.44" departSpeed="0.00" departDelay="32.68" arrival="161.00" arrivalLane="137415945#0_1" arrivalPos="1.46" arrivalSpeed="16.33" duration="34.00" routeLength="306.55" waitingTime="0.00" waitingCount="0" stopTime="0.00" timeLoss="15.25" rerouteNo="0" devices="tripinfo_route_37.8" vType="car" speedFactor="1.01" vaporized=""/>
    <tripinfo id="route_38.4" depart="99.00" departLane="485211947#0_0" departPos="42.80" departSpeed="0.00" departDelay="11.77" arrival="162.00" arrivalLane="-430406005#1_1" arrivalPos="124.92" arrivalSpeed="15.82" duration="63.00" routeLength="295.10" waitingTime="10.00" waitingCount="2" stopTime="0.00" timeLoss="44.05" rerouteNo="0" devices="tripinfo_route_38.4" vType="car" speedFactor="1.00" vaporized=""/>
    <tripinfo id="route_36.7" depart="101.00" departLane="485211947#0_0" departPos="7.33" departSpeed="0.00" departDelay="11.34" arrival="163.00" arrivalLane="1369578054_0" arrivalPos="103.24" arrivalSpeed="13.93" duration="62.00" routeLength="293.37" waitingTime="15.00" waitingCount="1" stopTime="0.00" timeLoss="40.48" rerouteNo="0" devices="tripinfo_route_36.7" vType="car" speedFactor="0.88" vaporized=""/>
    <tripinfo id="route_36.5" depart="92.00" departLane="485211947#0_0" departPos="122.04" departSpeed="0.00" departDelay="5.67" arrival="164.00" arrivalLane="1369578054_0" arrivalPos="292.70" arrivalSpeed="14.60" duration="72.00" routeLength="368.12" waitingTime="28.00" waitingCount="1" stopTime="0.00" timeLoss="46.42" rerouteNo="0" devices="tripinfo_route_36.5" vType="car" speedFactor="0.90" vaporized=""/>
    <tripinfo id="route_36.8" depart="109.00" departLane="485211947#0_0" departPos="20.84" departSpeed="0.00" departDelay="17.67" arrival="165.00" arrivalLane="1369578054_0" arrivalPos="103.63" arrivalSpeed="13.33" duration="56.00" routeLength="280.24" waitingTime="10.00" waitingCount="1" stopTime="0.00" timeLoss="37.83" rerouteNo="0" devices="tripinfo_route_36.8" vType="car" speedFactor="1.06" vaporized=""/>
    <tripinfo id="route_36.3" depart="84.00" departLane="485211947#0_0" departPos="12.41" departSpeed="0.00" departDelay="1.00" arrival="168.00" arrivalLane="1369578054_0" arrivalPos="280.18" arrivalSpeed="16.54" duration="84.00" routeLength="465.23" waitingTime="21.00" waitingCount="1" stopTime="0.00" timeLoss="55.51" rerouteNo="0" devices="tripinfo_route_36.3" vType="car" speedFactor="1.13" vaporized=""/>
    <tripinfo id="route_38.9" depart="155.00" departLane="485211947#0_0" departPos="144.24" departSpeed="0.00" departDelay="56.24" arrival="173.00" arrivalLane="-430406005#1_1" arrivalPos="39.63" arrivalSpeed="12.28" duration="18.00" routeLength="108.37" waitingTime="0.00" waitingCount="0" stopTime="0.00" timeLoss="9.86" rerouteNo="0" devices="tripinfo_route_38.9" vType="car" speedFactor="0.96" vaporized=""/>
    <tripinfo id="route_37.9" depart="143.00" departLane="485211947#0_0" departPos="42.48" departSpeed="0.00" departDelay="46.64" arrival="174.00" arrivalLane="137415945#0_1" arrivalPos="0.44" arrivalSpeed="16.57" duration="31.00" routeLength="302.49" waitingTime="0.00" waitingCount="0" stopTime="0.00" timeLoss="12.58" rerouteNo="0" devices="tripinfo_route_37.9" vType="car" speedFactor="1.12" vaporized=""/>
    <tripinfo id="route_36.10" depart="125.00" departLane="485211947#0_0" departPos="87.32" departSpeed="0.00" departDelay="30.34" arrival="175.00" arrivalLane="1369578054_0" arrivalPos="236.57" arrivalSpeed="16.23" duration="50.00" routeLength="346.72" waitingTime="6.00" waitingCount="1" stopTime="0.00" timeLoss="27.64" rerouteNo="0" devices="tripinfo_route_36.10" vType="car" speedFactor="1.04" vaporized=""/>
    <tripinfo id="route_36.11" depart="141.00" departLane="485211947#0_0" departPos="75.41" departSpeed="0.00" departDelay="44.67" arrival="176.00" arrivalLane="1369578054_0" arrivalPos="170.67" arrivalSpeed="14.85" duration="35.00" routeLength="292.72" waitingTime="0.00" waitingCount="0" stopTime="0.00" timeLoss="14.41" rerouteNo="0" devices="tripinfo_route_36.11" vType="car" speedFactor="0.91" vaporized=""/>
    <tripinfo id="route_36.12" depart="148.00" departLane="485211947#0_0" departPos="89.93" departSpeed="0.00" departDelay="50.01" arrival="176.00" arrivalLane="1369578054_0" arrivalPos="57.11" arrivalSpeed="11.25" duration="28.00" routeLength="164.64" waitingTime="0.00" waitingCount="0" stopTime="0.00" timeLoss="15.59" rerouteNo="0" devices="tripinfo_route_36.12" vType="car" speedFactor="0.89" vaporized=""/>
    <tripinfo id="route_36.9" depart="123.00" departLane="485211947#0_0" departPos="5.72" departSpeed="0.00" departDelay="30.01" arrival="177.00" arrivalLane="1369578054_0" arrivalPos="245.51" arrivalSpeed="16.48" duration="54.00" routeLength="437.25" waitingTime="0.00" waitingCount="0" stopTime="0.00" timeLoss="26.26" rerouteNo="0" devices="tripinfo_route_36.9" vType="car" speedFactor="1.01" vaporized=""/>
    <tripinfo id="route_38.10" depart="155.00" departLane="485211947#0_0" departPos="94.77" departSpeed="0.00" departDelay="53.93" arrival="181.00" arrivalLane="-430406005#1_1" arrivalPos="60.97" arrivalSpeed="12.98" duration="26.00" routeLength="179.17" waitingTime="0.00" waitingCount="0" stopTime="0.00" timeLoss="14.14" rerouteNo="0" devices="tripinfo_route_38.10" vType="car" speedFactor="1.06" vaporized=""/>
    <tripinfo id="route_38.8" depart="147.00" departLane="485211947#0_0" departPos="75.75" departSpeed="0.00" departDelay="50.54" arrival="184.00" arrivalLane="-430406005#1_1" arrivalPos="133.87" arrivalSpeed="16.09" duration="37.00" routeLength="271.10" waitingTime="0.00" waitingCount="0" stopTime="0.00" timeLoss="19.64" rerouteNo="0" devices="tripinfo_route_38.8" vType="car" speedFactor="1.10" vaporized=""/>
    <tripinfo id="route_37.10" depart="154.00" departLane="485211947#0_0" departPos="72.60" departSpeed="0.00" departDelay="55.60" arrival="184.00" arrivalLane="137415945#0_1" arrivalPos="11.52" arrivalSpeed="16.50" duration="30.00" routeLength="283.45" waitingTime="0.00" waitingCount="0" stopTime="0.00" timeLoss="12.08" rerouteNo="0" devices="tripinfo_route_37.10" vType="car" speedFactor="1.06" vaporized=""/>
    <tripinfo id="route_31.0" depart="78.00" departLane="1235147073.116_0" departPos="7.14" departSpeed="0.00" departDelay="0.00" arrival="185.00" arrivalLane="133126030#0_0" arrivalPos="8.43" arrivalSpeed="6.86" duration="107.00" routeLength="175.81" waitingTime="77.00" waitingCount="1" stopTime="0.00" timeLoss="96.27" rerouteNo="0" devices="tripinfo_route_31.0" vType="car" speedFactor="1.01" vaporized=""/>
    <tripinfo id="route_32.1" depart="96.00" departLane="1235147073.116_0" departPos="14.40" departSpeed="0.00" departDelay="15.64" arrival="188.00" arrivalLane="-430406005#1_0" arrivalPos="5.79" arrivalSpeed="6.69" duration="92.00" routeLength="154.35" waitingTime="59.00" waitingCount="1" stopTime="0.00" timeLoss="80.10" rerouteNo="0" devices="tripinfo_route_32.1" vType="car" speedFactor="0.88" vaporized=""/>