<?xml version="1.0" encoding="UTF-8"?>

<!-- generated on 2025-05-04 22:11:12 by Eclipse SUMO sumo Version 1.20.0
<configuration xmlns:xsi="http://www.w3.org/2001/XMLSchema-instance" xsi:noNamespaceSchemaLocation="http://sumo.dlr.de/xsd/sumoConfiguration.xsd">

    <input>
        <net-file value="config/osm.net.xml"/>
        <route-files value="draft/generated_0_093_5_069_0_649_7_027_81_.rou.xml"/>
    </input>

    <output>
        <tripinfo-output value="draft/tripinfo_0_093_5_069_0_649_7_027_81.xml"/>
    </output>

    <time>
        <step-length value="1"/>
    </time>

    <traci_server>
        <remote-port value="41369"/>
    </traci_server>

    <gui_only>
        <start value="true"/>
    </gui_only>

</configuration>
-->

<tripinfos xmlns:xsi="http://www.w3.org/2001/XMLSchema-instance" xsi:noNamespaceSchemaLocation="http://sumo.dlr.de/xsd/tripinfo_file.xsd">
    <tripinfo id="route_34.0" depart="81.00" departLane="133126008#0_0" departPos="101.07" departSpeed="0.00" departDelay="0.00" arrival="99.00" arrivalLane="1369578054_1" arrivalPos="13.07" arrivalSpeed="13.82" duration="18.00" routeLength="125.36" waitingTime="0.00" waitingCount="0" stopTime="0.00" timeLoss="9.69" rerouteNo="0" devices="tripinfo_route_34.0" vType="car" speedFactor="0.83" vaporized=""/>
    <tripinfo id="route_29.1" depart="83.00" departLane="-422986370#2_0" departPos="265.89" departSpeed="0.00" departDelay="0.54" arrival="101.00" arrivalLane="-430406005#1_1" arrivalPos="8.25" arrivalSpeed="9.29" duration="18.00" routeLength="76.79" waitingTime="0.00" waitingCount="0" stopTime="0.00" timeLoss="12.85" rerouteNo="0" devices="tripinfo_route_29.1" vType="car" speedFactor="1.09" vaporized=""/>
    <tripinfo id="route_29.4" depart="87.00" departLane="-422986370#2_0" departPos="297.23" departSpeed="0.00" departDelay="0.15" arrival="106.00" arrivalLane="-430406005#1_0" arrivalPos="32.75" arrivalSpeed="10.72" duration="19.00" routeLength="69.94" waitingTime="3.00" waitingCount="1" stopTime="0.00" timeLoss="14.24" rerouteNo="0" devices="tripinfo_route_29.4" vType="car" speedFactor="1.15" vaporized=""/>
    <tripinfo id="route_34.3" depart="92.00" departLane="133126008#0_0" departPos="127.31" departSpeed="0.00" departDelay="4.18" arrival="110.00" arrivalLane="1369578054_0" arrivalPos="25.77" arrivalSpeed="11.62" duration="18.00" routeLength="111.83" waitingTime="0.00" waitingCount="0" stopTime="0.00" timeLoss="11.16" rerouteNo="0" devices="tripinfo_route_34.3" vType="car" speedFactor="0.97" vaporized=""/>
    <tripinfo id="route_35.1" depart="85.00" departLane="133126008#0_0" departPos="144.87" departSpeed="0.00" departDelay="1.17" arrival="111.00" arrivalLane="133126030#0_0" arrivalPos="141.65" arrivalSpeed="15.30" duration="26.00" routeLength="184.30" waitingTime="0.00" waitingCount="0" stopTime="0.00" timeLoss="12.90" rerouteNo="0" devices="tripinfo_route_35.1" vType="car" speedFactor="0.94" vaporized=""/>
    <tripinfo id="route_34.6" depart="95.00" departLane="133126008#0_0" departPos="162.26" departSpeed="0.00" departDelay="0.37" arrival="111.00" arrivalLane="1369578054_0" arrivalPos="50.19" arrivalSpeed="13.30" duration="16.00" routeLength="101.29" waitingTime="0.00" waitingCount="0" stopTime="0.00" timeLoss="9.02" rerouteNo="0" devices="tripinfo_route_34.6" vType="car" speedFactor="0.94" vaporized=""/>
    <tripinfo id="route_29.2" depart="84.00" departLane="-422986370#2_0" departPos="99.24" departSpeed="0.00" departDelay="0.07" arrival="113.00" arrivalLane="-430406005#1_1" arrivalPos="42.28" arrivalSpeed="16.32" duration="29.00" routeLength="277.46" waitingTime="0.00" waitingCount="0" stopTime="0.00" timeLoss="10.87" rerouteNo="0" devices="tripinfo_route_29.2" vType="car" speedFactor="0.93" vaporized=""/>
    <tripinfo id="route_34.1" depart="84.00" departLane="133126008#0_0" departPos="23.09" departSpeed="0.00" departDelay="0.73" arrival="113.00" arrivalLane="1369578054_1" arrivalPos="90.42" arrivalSpeed="15.22" duration="29.00" routeLength="280.69" waitingTime="0.00" waitingCount="0" stopTime="0.00" timeLoss="11.66" rerouteNo="0" devices="tripinfo_route_34.1" vType="car" speedFactor="0.94" vaporized=""/>
    <tripinfo id="route_30.0" depart="81.00" departLane="-422986370#2_0" departPos="201.60" departSpeed="0.00" departDelay="0.00" arrival="114.00" arrivalLane="137415945#0_0" arrivalPos="9.07" arrivalSpeed="15.19" duration="33.00" routeLength="253.29" waitingTime="0.00" waitingCount="0" stopTime="0.00" timeLoss="15.77" rerouteNo="0" devices="tripinfo_route_30.0" vType="car" speedFactor="0.94" vaporized=""/>
    <tripinfo id="route_35.2" depart="90.00" departLane="133126008#0_0" departPos="111.59" departSpeed="0.00" departDelay="3.34" arrival="114.00" arrivalLane="133126030#0_0" arrivalPos="51.67" arrivalSpeed="10.35" duration="24.00" routeLength="127.60" waitingTime="0.00" waitingCount="0" stopTime="0.00" timeLoss="14.82" rerouteNo="0" devices="tripinfo_route_35.2" vType="car" speedFactor="1.02" vaporized=""/>
    <tripinfo id="route_34.2" depart="87.00" departLane="133126008#0_0" departPos="165.65" departSpeed="0.00" departDelay="1.46" arrival="115.00" arrivalLane="1369578054_0" arrivalPos="207.23" arrivalSpeed="15.66" duration="28.00" routeLength="254.95" waitingTime="0.00" waitingCount="0" stopTime="0.00" timeLoss="11.22" rerouteNo="0" devices="tripinfo_route_34.2" vType="car" speedFactor="0.95" vaporized=""/>
    <tripinfo id="route_34.5" depart="94.00" departLane="133126008#0_0" departPos="98.03" departSpeed="0.00" departDelay="1.64" arrival="115.00" arrivalLane="1369578054_1" arrivalPos="46.01" arrivalSpeed="16.15" duration="21.00" routeLength="161.35" waitingTime="0.00" waitingCount="0" stopTime="0.00" timeLoss="10.66" rerouteNo="0" devices="tripinfo_route_34.5" vType="car" speedFactor="0.99" vaporized=""/>
    <tripinfo id="route_29.3" depart="86.00" departLane="-422986370#2_0" departPos="173.76" departSpeed="0.00" departDelay="0.61" arrival="116.00" arrivalLane="-430406005#1_1" arrivalPos="127.79" arrivalSpeed="16.21" duration="30.00" routeLength="288.46" waitingTime="0.00" waitingCount="0" stopTime="0.00" timeLoss="10.70" rerouteNo="0" devices="tripinfo_route_29.3" vType="car" speedFactor="0.87" vaporized=""/>
    <tripinfo id="route_29.8" depart="97.00" departLane="-422986370#2_0" departPos="216.62" departSpeed="0.00" departDelay="4.30" arrival="116.00" arrivalLane="-430406005#1_1" arrivalPos="7.61" arrivalSpeed="13.64" duration="19.00" routeLength="125.42" waitingTime="0.00" waitingCount="0" stopTime="0.00" timeLoss="10.87" rerouteNo="0" devices="tripinfo_route_29.8" vType="car" speedFactor="1.02" vaporized=""/>
    <tripinfo id="route_29.0" depart="81.00" departLane="-422986370#2_0" departPos="1.81" departSpeed="0.00" departDelay="0.00" arrival="122.00" arrivalLane="-430406005#1_1" arrivalPos="159.13" arrivalSpeed="16.57" duration="41.00" routeLength="491.75" waitingTime="0.00" waitingCount="0" stopTime="0.00" timeLoss="10.84" rerouteNo="0" devices="tripinfo_route_29.0" vType="car" speedFactor="1.06" vaporized=""/>
    <tripinfo id="route_29.5" depart="90.00" departLane="-422986370#2_0" departPos="127.34" departSpeed="0.00" departDelay="1.69" arrival="122.00" arrivalLane="-430406005#1_1" arrivalPos="62.84" arrivalSpeed="16.56" duration="32.00" routeLength="269.93" waitingTime="0.00" waitingCount="0" stopTime="0.00" timeLoss="15.17" rerouteNo="0" devices="tripinfo_route_29.5" vType="car" speedFactor="1.03" vaporized=""/>
    <tripinfo id="route_29.6" depart="94.00" departLane="-422986370#2_0" departPos="192.05" departSpeed="0.00" departDelay="4.22" arrival="122.00" arrivalLane="-430406005#1_0" arrivalPos="74.50" arrivalSpeed="16.15" duration="28.00" routeLength="216.88" waitingTime="0.00" waitingCount="0" stopTime="0.00" timeLoss="14.80" rerouteNo="0" devices="tripinfo_route_29.6" vType="car" speedFactor="1.09" vaporized=""/>
    <tripinfo id="route_35.3" depart="92.00" departLane="133126008#0_0" departPos="66.33" departSpeed="0.00" departDelay="2.51" arrival="122.00" arrivalLane="133126030#0_0" arrivalPos="67.66" arrivalSpeed="11.94" duration="30.00" routeLength="188.86" waitingTime="0.00" waitingCount="0" stopTime="0.00" timeLoss="17.53" rerouteNo="0" devices="tripinfo_route_35.3" vType="car" speedFactor="1.00" vaporized=""/>
    <tripinfo id="route_29.9" depart="98.00" departLane="-422986370#2_0" departPos="275.45" departSpeed="0.00" departDelay="3.83" arrival="122.00" arrivalLane="-430406005#1_0" arrivalPos="175.19" arrivalSpeed="16.32" duration="24.00" routeLength="234.17" waitingTime="0.00" waitingCount="0" stopTime="0.00" timeLoss="9.65" rerouteNo="0" devices="tripinfo_route_29.9" vType="car" speedFactor="1.04" vaporized=""/>
    <tripinfo id="route_35.0" depart="81.00" departLane="133126008#0_0" departPos="47.21" departSpeed="0.00" departDelay="0.00" arrival="123.00" arrivalLane="133126030#0_0" arrivalPos="137.72" arrivalSpeed="15.66" duration="42.00" routeLength="278.03" waitingTime="0.00" waitingCount="0" stopTime="0.00" timeLoss="23.20" rerouteNo="0" devices="tripinfo_route_35.0" vType="car" speedFactor="1.05" vaporized=""/>
    <tripinfo id="route_34.4" depart="92.00" departLane="133126008#0_0" departPos="85.67" departSpeed="0.00" departDelay="1.91" arrival="123.00" arrivalLane="1369578054_0" arrivalPos="123.18" arrivalSpeed="16.45" duration="31.00" routeLength="250.86" waitingTime="0.00" waitingCount="0" stopTime="0.00" timeLoss="15.45" rerouteNo="0" devices="tripinfo_route_34.4" vType="car" speedFactor="1.10" vaporized=""/>
    <tripinfo id="route_34.7" depart="98.00" departLane="133126008#0_0" departPos="44.71" departSpeed="0.00" departDelay="1.10" arrival="123.00" arrivalLane="1369578054_1" arrivalPos="62.18" arrivalSpeed="15.98" duration="25.00" routeLength="230.83" waitingTime="0.00" waitingCount="0" stopTime="0.00" timeLoss="10.81" rerouteNo="0" devices="tripinfo_route_34.7" vType="car" speedFactor="0.97" vaporized=""/>
    <tripinfo id="route_30.5" depart="94.00" departLane="-422986370#2_0" departPos="245.96" departSpeed="0.00" departDelay="3.26" arrival="124.00" arrivalLane="137415945#0_0" arrivalPos="11.12" arrivalSpeed="14.18" duration="30.00" routeLength="210.98" waitingTime="0.00" waitingCount="0" stopTime="0.00" timeLoss="13.35" rerouteNo="0" devices="tripinfo_route_30.5" vType="car" speedFactor="0.85" vaporized=""/>
    <tripinfo id="route_30.4" depart="90.00" departLane="-422986370#2_0" departPos="212.90" departSpeed="0.00" departDelay="1.21" arrival="125.00" arrivalLane="137415945#0_0" arrivalPos="3.69" arrivalSpeed="14.59" duration="35.00" routeLength="236.61" waitingTime="0.00" waitingCount="0" stopTime="0.00" timeLoss="19.03" rerouteNo="0" devices="tripinfo_route_30.4" vType="car" speedFactor="0.96" vaporized=""/>
    <tripinfo id="route_30.1" depart="83.00" departLane="-422986370#2_0" departPos="118.79" departSpeed="0.00" departDelay="0.05" arrival="131.00" arrivalLane="137415945#0_0" arrivalPos="6.53" arrivalSpeed="15.92" duration="48.00" routeLength="333.56" waitingTime="0.00" waitingCount="0" stopTime="0.00" timeLoss="27.00" rerouteNo="0" devices="tripinfo_route_30.1" vType="car" speedFactor="1.03" vaporized=""/>
    <tripinfo id="route_35.5" depart="97.00" departLane="133126008#0_0" departPos="65.41" departSpeed="0.00" departDelay="1.85" arrival="131.00" arrivalLane="133126030#0_0" arrivalPos="157.74" arrivalSpeed="16.13" duration="34.00" routeLength="279.84" waitingTime="0.00" waitingCount="0" stopTime="0.00" timeLoss="15.95" rerouteNo="0" devices="tripinfo_route_35.5" vType="car" speedFactor="0.98" vaporized=""/>
    <tripinfo id="route_35.8" depart="114.00" departLane="133126008#0_0" departPos="152.80" departSpeed="0.00" departDelay="10.36" arrival="131.00" arrivalLane="133126030#0_0" arrivalPos="63.54" arrivalSpeed="11.77" duration="17.00" routeLength="98.26" waitingTime="0.00" waitingCount="0" stopTime="0.00" timeLoss="9.86" rerouteNo="0" devices="tripinfo_route_35.8" vType="car" speedFactor="1.00" vaporized=""/>
    <tripinfo id="route_30.3" depart="87.00" departLane="-422986370#2_0" departPos="94.02" departSpeed="0.00" departDelay="0.16" arrival="134.00" arrivalLane="137415945#0_0" arrivalPos="8.17" arrivalSpeed="16.44" duration="47.00" routeLength="359.97" waitingTime="0.00" waitingCount="0" stopTime="0.00" timeLoss="23.26" rerouteNo="0" devices="tripinfo_route_30.3" vType="car" speedFactor="1.01" vaporized=""/>
    <tripinfo id="route_30.2" depart="85.00" departLane="-422986370#2_0" departPos="26.67" departSpeed="0.00" departDelay="0.10" arrival="136.00" arrivalLane="137415945#0_0" arrivalPos="3.36" arrivalSpeed="15.95" duration="51.00" routeLength="422.51" waitingTime="0.00" waitingCount="0" stopTime="0.00" timeLoss="23.47" rerouteNo="0" devices="tripinfo_route_30.2" vType="car" speedFactor="1.01" vaporized=""/>
    <tripinfo id="route_38.2" depart="90.00" departLane="485211947#0_0" departPos="162.23" departSpeed="0.00" departDelay="4.39" arrival="145.00" arrivalLane="-430406005#1_1" arrivalPos="54.97" arrivalSpeed="11.38" duration="55.00" routeLength="105.72" waitingTime="33.00" waitingCount="1" stopTime="0.00" timeLoss="47.70" rerouteNo="0" devices="tripinfo_route_38.2" vType="car" speedFactor="1.18" vaporized=""/>
    <tripinfo id="route_38.3" depart="95.00" departLane="485211947#0_0" departPos="0.16" departSpeed="0.00" departDelay="7.08" arrival="147.00" arrivalLane="-430406005#1_1" arrivalPos="32.26" arrivalSpeed="10.99" duration="52.00" routeLength="245.09" waitingTime="11.00" waitingCount="1" stopTime="0.00" timeLoss="34.42" rerouteNo="0" devices="tripinfo_route_38.3" vType="car" speedFactor="0.90" vaporized=""/>
    <tripinfo id="route_37.0" depart="81.00" departLane="485211947#0_0" departPos="162.24" departSpeed="0.00" departDelay="0.00" arrival="149.00" arrivalLane="137415945#0_0" arrivalPos="6.94" arrivalSpeed="15.42" duration="68.00" routeLength="189.23" waitingTime="38.00" waitingCount="1" stopTime="0.00" timeLoss="55.07" rerouteNo="0" devices="tripinfo_route_37.0" vType="car" speedFactor="0.94" vaporized=""/>
    <tripinfo id="route_37.1" depart="84.00" departLane="485211947#0_0" departPos="76.22" departSpeed="0.00" departDelay="0.96" arrival="149.00" arrivalLane="137415945#0_1" arrivalPos="2.03" arrivalSpeed="15.59" duration="65.00" routeLength="270.34" waitingTime="26.00" waitingCount="1" stopTime="0.00" timeLoss="48.58" rerouteNo="0" devices="tripinfo_route_37.1" vType="car" speedFactor="1.16" vaporized=""/>
    <tripinfo id="route_38.1" depart="84.00" departLane="485211947#0_0" departPos="178.72" departSpeed="0.00" departDelay="0.69" arrival="151.00" arrivalLane="-430406005#1_1" arrivalPos="170.84" arrivalSpeed="16.48" duration="67.00" routeLength="205.10" waitingTime="39.00" waitingCount="1" stopTime="0.00" timeLoss="53.30" rerouteNo="0" devices="tripinfo_route_38.1" vType="car" speedFactor="1.02" vaporized=""/>
    <tripinfo id="route_36.0" depart="81.00" departLane="485211947#0_0" departPos="11.17" departSpeed="0.00" departDelay="0.00" arrival="152.00" arrivalLane="1369578054_0" arrivalPos="74.16" arrivalSpeed="12.34" duration="71.00" routeLength="260.46" waitingTime="24.00" waitingCount="1" stopTime="0.00" timeLoss="52.58" rerouteNo="0" devices="tripinfo_route_36.0" vType="car" speedFactor="0.89" vaporized=""/>
    <tripinfo id="route_38.0" depart="81.00" departLane="485211947#0_0" departPos="59.66" departSpeed="0.00" departDelay="0.00" arrival="152.00" arrivalLane="-430406005#1_1" arrivalPos="133.07" arrivalSpeed="16.50" duration="71.00" routeLength="286.39" waitingTime="31.00" waitingCount="1" stopTime="0.00" timeLoss="50.93" rerouteNo="0" devices="tripinfo_route_38.0" vType="car" speedFactor="0.86" vaporized=""/>
    <tripinfo id="route_37.2" depart="89.00" departLane="485211947#0_0" departPos="72.22" departSpeed="0.00" departDelay="3.92" arrival="152.00" arrivalLane="137415945#0_1" arrivalPos="12.22" arrivalSpeed="15.27" duration="63.00" routeLength="284.53" waitingTime="22.00" waitingCount="1" stopTime="0.00" timeLoss="44.65" rerouteNo="0" devices="tripinfo_route_37.2" vType="car" speedFactor="0.93" vaporized=""/>
    <tripinfo id="route_36.2" depart="85.00" departLane="485211947#0_0" departPos="123.80" departSpeed="0.00" departDelay="0.67" arrival="153.00" arrivalLane="1369578054_0" arrivalPos="171.28" arrivalSpeed="13.51" duration="68.00" routeLength="244.94" waitingTime="31.00" waitingCount="1" stopTime="0.00" timeLoss="48.28" rerouteNo="0" devices="tripinfo_route_36.2" vType="car" speedFactor="0.83" vaporized=""/>
    <tripinfo id="route_37.3" depart="95.00" departLane="485211947#0_0" departPos="62.79" departSpeed="0.00" departDelay="7.88" arrival="153.00" arrivalLane="137415945#0_1" arrivalPos="2.64" arrivalSpeed="15.76" duration="58.00" routeLength="284.38" waitingTime="17.00" waitingCount="1" stopTime="0.00" timeLoss="40.73" rerouteNo="0" devices="tripinfo_route_37.3" vType="car" speedFactor="1.10" vaporized=""/>
    <tripinfo id="route_37.4" depart="100.00" departLane="485211947#0_0" departPos="22.13" departSpeed="0.00" departDelay="10.84" arrival="155.00" arrivalLane="137415945#0_1" arrivalPos="0.30" arrivalSpeed="14.55" duration="55.00" routeLength="322.70" waitingTime="11.00" waitingCount="1" stopTime="0.00" timeLoss="32.55" rerouteNo="0" devices="tripinfo_route_37.4" vType="car" speedFactor="0.88" vaporized=""/>
    <tripinfo id="route_36.6" depart="101.00" departLane="485211947#0_0" departPos="97.89" departSpeed="0.00" departDelay="10.00" arrival="156.00" arrivalLane="1369578054_0" arrivalPos="102.74" arrivalSpeed="14.13" duration="55.00" routeLength="202.31" waitingTime="21.00" waitingCount="1" stopTime="0.00" timeLoss="41.38" rerouteNo="0" devices="tripinfo_route_36.6" vType="car" speedFactor="1.00" vaporized=""/>
    <tripinfo id="route_38.4" depart="101.00" departLane="485211947#0_0" departPos="2.16" departSpeed="0.00" departDelay="10.77" arrival="156.00" arrivalLane="-430406005#1_1" arrivalPos="124.92" arrivalSpeed="15.79" duration="55.00" routeLength="335.74" waitingTime="9.00" waitingCount="1" stopTime="0.00" timeLoss="33.19" rerouteNo="0" devices="tripinfo_route_38.4" vType="car" speedFactor="1.00" vaporized=""/>
    <tripinfo id="route_38.7" depart="130.00" departLane="485211947#0_0" departPos="27.26" departSpeed="0.00" departDelay="32.85" arrival="156.00" arrivalLane="-430406005#1_1" arrivalPos="17.45" arrivalSpeed="11.31" duration="26.00" routeLength="203.17" waitingTime="0.00" waitingCount="0" stopTime="0.00" timeLoss="12.67" rerouteNo="0" devices="tripinfo_route_38.7" vType="car" speedFactor="1.02" vaporized=""/>
    <tripinfo id="route_37.5" depart="106.00" departLane="485211947#0_0" departPos="8.99" departSpeed="0.00" departDelay="14.80" arrival="157.00" arrivalLane="137415945#0_1" arrivalPos="9.07" arrivalSpeed="15.52" duration="51.00" routeLength="344.61" waitingTime="3.00" waitingCount="1" stopTime="0.00" timeLoss="30.05" rerouteNo="0" devices="tripinfo_route_37.5" vType="car" speedFactor="1.14" vaporized=""/>
    <tripinfo id="route_38.5" depart="107.00" departLane="485211947#0_0" departPos="34.04" departSpeed="0.00" departDelay="14.47" arrival="159.00" arrivalLane="-430406005#1_1" arrivalPos="118.46" arrivalSpeed="15.41" duration="52.00" routeLength="297.40" waitingTime="4.00" waitingCount="1" stopTime="0.00" timeLoss="31.52" rerouteNo="0" devices="tripinfo_route_38.5" vType="car" speedFactor="0.91" vaporized=""/>
    <tripinfo id="route_37.6" depart="111.00" departLane="485211947#0_0" departPos="40.84" departSpeed="0.00" departDelay="17.76" arrival="159.00" arrivalLane="137415945#0_1" arrivalPos="7.30" arrivalSpeed="15.02" duration="48.00" routeLength="310.98" waitingTime="0.00" waitingCount="0" stopTime="0.00" timeLoss="27.03" rerouteNo="0" devices="tripinfo_route_37.6" vType="car" speedFactor="0.91" vaporized=""/>
    <tripinfo id="route_37.7" depart="119.00" departLane="485211947#0_0" departPos="35.27" departSpeed="0.00" departDelay="23.72" arrival="160.00" arrivalLane="137415945#0_1" arrivalPos="5.01" arrivalSpeed="15.61" duration="41.00" routeLength="314.27" waitingTime="0.00" waitingCount="0" stopTime="0.00" timeLoss="21.85" rerouteNo="0" devices="tripinfo_route_37.7" vType="car" speedFactor="1.09" vaporized=""/>
    <tripinfo id="route_36.1" depart="83.00" departLane="485211947#0_0" departPos="100.86" departSpeed="0.00" departDelay="0.33" arrival="161.00" arrivalLane="1369578054_1" arrivalPos="281.37" arrivalSpeed="16.41" duration="78.00" routeLength="377.98" waitingTime="31.00" waitingCount="1" stopTime="0.00" timeLoss="53.65" rerouteNo="0" devices="tripinfo_route_36.1" vType="car" speedFactor="0.99" vaporized=""/>
    <tripinfo id="route_36.4" depart="93.00" departLane="485211947#0_0" departPos="51.38" departSpeed="0.00" departDelay="5.34" arrival="162.00" arrivalLane="1369578054_0" arrivalPos="169.94" arrivalSpeed="16.28" duration="69.00" routeLength="316.02" waitingTime="21.00" waitingCount="1" stopTime="0.00" timeLoss="48.52" rerouteNo="0" devices="tripinfo_route_36.4" vType="car" speedFactor="1.18" vaporized=""/>
    <tripinfo id="route_38.6" depart="118.00" departLane="485211947#0_0" departPos="48.01" departSpeed="0.00" departDelay="23.16" arrival="162.00" arrivalLane="-430406005#1_1" arrivalPos="142.51" arrivalSpeed="16.33" duration="44.00" routeLength="307.48" waitingTime="1.00" waitingCount="1" stopTime="0.00" timeLoss="23.89" rerouteNo="0" devices="tripinfo_route_38.6" vType="car" speedFactor="0.96" vaporized=""/>
    <tripinfo id="route_36.7" depart="107.00" departLane="485211947#0_0" departPos="73.50" departSpeed="0.00" departDelay="14.34" arrival="163.00" arrivalLane="1369578054_0" arrivalPos="103.24" arrivalSpeed="13.71" duration="56.00" routeLength="227.20" waitingTime="17.00" waitingCount="1" stopTime="0.00" timeLoss="39.10" rerouteNo="0" devices="tripinfo_route_36.7" vType="car" speedFactor="0.88" vaporized=""/>
    <tripinfo id="route_36.11" depart="135.00" departLane="485211947#0_0" departPos="55.58" departSpeed="0.00" departDelay="35.67" arrival="163.00" arrivalLane="1369578054_0" arrivalPos="10.38" arrivalSpeed="7.72" duration="28.00" routeLength="152.26" waitingTime="0.00" waitingCount="0" stopTime="0.00" timeLoss="16.66" rerouteNo="0" devices="tripinfo_route_36.11" vType="car" speedFactor="0.91" vaporized=""/>
    <tripinfo id="route_36.5" depart="95.00" departLane="485211947#0_0" departPos="122.04" departSpeed="0.00" departDelay="5.67" arrival="164.00" arrivalLane="1369578054_0" arrivalPos="292.70" arrivalSpeed="14.84" duration="69.00" routeLength="368.12" waitingTime="24.00" waitingCount="1" stopTime="0.00" timeLoss="43.35" rerouteNo="0" devices="tripinfo_route_36.5" vType="car" speedFactor="0.90" vaporized=""/>
    <tripinfo id="route_36.8" depart="115.00" departLane="485211947#0_0" departPos="60.98" departSpeed="0.00" departDelay="20.67" arrival="166.00" arrivalLane="1369578054_0" arrivalPos="103.63" arrivalSpeed="14.45" duration="51.00" routeLength="240.11" waitingTime="10.00" waitingCount="1" stopTime="0.00" timeLoss="36.02" rerouteNo="0" devices="tripinfo_route_36.8" vType="car" speedFactor="1.06" vaporized=""/>
    <tripinfo id="route_36.3" depart="87.00" departLane="485211947#0_0" departPos="12.41" departSpeed="0.00" departDelay="1.00" arrival="170.00" arrivalLane="1369578054_0" arrivalPos="280.18" arrivalSpeed="16.24" duration="83.00" routeLength="465.23" waitingTime="20.00" waitingCount="1" stopTime="0.00" timeLoss="53.67" rerouteNo="0" devices="tripinfo_route_36.3" vType="car" speedFactor="1.13" vaporized=""/>
    <tripinfo id="route_37.9" depart="137.00" departLane="485211947#0_0" departPos="4.65" departSpeed="0.00" departDelay="37.64" arrival="170.00" arrivalLane="137415945#0_1" arrivalPos="9.54" arrivalSpeed="16.33" duration="33.00" routeLength="349.42" waitingTime="0.00" waitingCount="0" stopTime="0.00" timeLoss="11.85" rerouteNo="0" devices="tripinfo_route_37.9" vType="car" speedFactor="1.12" vaporized=""/>
    <tripinfo id="route_37.8" depart="126.00" departLane="485211947#0_0" departPos="5.72" departSpeed="0.00" departDelay="28.68" arrival="172.00" arrivalLane="137415945#0_1" arrivalPos="1.46" arrivalSpeed="16.49" duration="46.00" routeLength="340.27" waitingTime="3.00" waitingCount="2" stopTime="0.00" timeLoss="24.84" rerouteNo="0" devices="tripinfo_route_37.8" vType="car" speedFactor="1.01" vaporized=""/>
    <tripinfo id="route_36.10" depart="123.00" departLane="485211947#0_0" departPos="110.27" departSpeed="0.00" departDelay="25.34" arrival="173.00" arrivalLane="1369578054_0" arrivalPos="236.57" arrivalSpeed="16.50" duration="50.00" routeLength="323.76" waitingTime="10.00" waitingCount="1" stopTime="0.00" timeLoss="29.64" rerouteNo="0" devices="tripinfo_route_36.10" vType="car" speedFactor="1.04" vaporized=""/>
    <tripinfo id="route_38.8" depart="138.00" departLane="485211947#0_0" departPos="39.64" departSpeed="0.00" departDelay="38.54" arrival="174.00" arrivalLane="-430406005#1_1" arrivalPos="132.35" arrivalSpeed="16.54" duration="36.00" routeLength="305.69" waitingTime="0.00" waitingCount="0" stopTime="0.00" timeLoss="16.07" rerouteNo="0" devices="tripinfo_route_38.8" vType="car" speedFactor="1.10" vaporized=""/>
    <tripinfo id="route_38.11" depart="158.00" departLane="485211947#0_0" departPos="119.55" departSpeed="0.00" departDelay="51.62" arrival="175.00" arrivalLane="-430406005#1_1" arrivalPos="4.75" arrivalSpeed="11.01" duration="17.00" routeLength="98.18" waitingTime="0.00" waitingCount="0" stopTime="0.00" timeLoss="10.40" rerouteNo="0" devices="tripinfo_route_38.11" vType="car" speedFactor="1.23" vaporized=""/>
    <tripinfo id="route_36.9" depart="118.00" departLane="485211947#0_0" departPos="22.18" departSpeed="0.00" departDelay="22.01" arrival="177.00" arrivalLane="1369578054_0" arrivalPos="245.51" arrivalSpeed="16.23" duration="59.00" routeLength="420.79" waitingTime="4.00" waitingCount="1" stopTime="0.00" timeLoss="33.00" rerouteNo="0" devices="tripinfo_route_36.9" vType="car" speedFactor="1.01" vaporized=""/>
    <tripinfo id="route_37.10" depart="153.00" departLane="485211947#0_0" departPos="79.13" departSpeed="0.00" departDelay="51.60" arrival="182.00" arrivalLane="137415945#0_1" arrivalPos="11.66" arrivalSpeed="16.54" duration="29.00" routeLength="277.06" waitingTime="0.00" waitingCount="0" stopTime="0.00" timeLoss="12.16" rerouteNo="0" devices="tripinfo_route_37.10" vType="car" speedFactor="1.06" vaporized=""/>
    <tripinfo id="route_36.14" depart="157.00" departLane="485211947#0_0" departPos="138.36" departSpeed="0.00" departDelay="52.68" arrival="182.00" arrivalLane="1369578054_0" arrivalPos="143.53" arrivalSpeed="16.59" duration="25.00" routeLength="202.63" waitingTime="0.00" waitingCount="0" stopTime="0.00" timeLoss="11.53" rerouteNo="0" devices="tripinfo_route_36.14" vType="car" speedFactor="1.02" vaporized=""/>
    <tripinfo id="route_31.0" depart="81.00" departLane="1235147073.116_0" departPos="7.14" departSpeed="0.00" departDelay="0.00" arrival="184.00" arrivalLane="133126030#0_0" arrivalPos="8.43" arrivalSpeed="6.76" duration="103.00" routeLength="175.81" waitingTime="72.00" waitingCount="1" stopTime="0.00" timeLoss="92.36" rerouteNo="0" devices="tripinfo_route_31.0" vType="car" speedFactor="1.01" vaporized=""/>
    <tripinfo id="route_32.1" depart="101.00" departLane="1235147073.116_0" departPos="15.04" departSpeed="0.00" departDelay="17.64" arrival="185.00" arrivalLane="-430406005#1_0" arrivalPos="5.79" arrivalSpeed="6.34" duration="84.00" routeLength="153.71" waitingTime="56.00" waitingCount="1" stopTime="0.00" timeLoss="72.38" rerouteNo="0" devices="tripinfo_route_32.1" vType="car" speedFactor="0.88" vaporized=""/>
    <tripinfo id="route_36.15" depart="157.00" departLane="485211947#0_0" departPos="154.06" departSpeed="0.00" departDelay="51.01" arrival="189.00" arrivalLane="1369578054_0" arrivalPos="298.02" arrivalSpeed="16.22" duration="32.00" routeLength="341.42" waitingTime="0.00" waitingCount="0" stopTime="0.00" timeLoss="10.25" rerouteNo="0" devices="tripinfo_route_36.15" vType="car" speedFactor="1.12" vaporized=""/>
    <tripinfo id="route_31.3" depart="112.00" departLane="1235147073.116_0" departPos="2.29" departSpeed="0.00" departDelay="25.08" arrival="191.00" arrivalLane="133126030#0_1" arrivalPos="28.13" arrivalSpeed="10.01" duration="79.00" routeLength="200.36" waitingTime="44.00" waitingCount="1" stopTime="0.00" timeLoss="66.56" rerouteNo="0" devices="tripinfo_route_31.3" vType="car" speedFactor="1.17" vaporized=""/>
    <tripinfo id="route_33.3" depart="116.00" departLane="1235147073.116_0" departPos="2.14" departSpeed="0.00" departDelay="29.31" arrival="191.00" arrivalLane="1369578054_1" arrivalPos="8.34" arrivalSpeed="8.73" duration="75.00" routeLength="185.93" waitingTime="42.00" waitingCount="1" stopTime="0.00" timeLoss="62.96" rerouteNo="0" devices="tripinfo_route_33.3" vType="car" speedFactor="0.99" vaporized=""/>
    <tripinfo id="route_32.0" depart="84.00" departLane="1235147073.116_0" departPos="0.46" departSpeed="0.00" departDelay="3.00" arrival="192.00" arrivalLane="-430406005#1_0" arrivalPos="87.77" arrivalSpeed="12.70" duration="108.00" routeLength="250.27" waitingTime="65.00" waitingCount="2" stopTime="0.00" timeLoss="91.63" rerouteNo="0" devices="tripinfo_route_32.0" vType="car" speedFactor="1.08" vaporized=""/>
    <tripinfo id="route_31.1" depart="93.00" departLane="1235147073.116_0" departPos="6.60" departSpeed="0.00" departDelay="10.03" arrival="192.00" arrivalLane="133126030#0_1" arrivalPos="56.90" arrivalSpeed="11.70" duration="99.00" routeLength="224.82" waitingTime="62.00" waitingCount="1" stopTime="0.00" timeLoss="84.92" rerouteNo="0" devices="tripinfo_route_31.1" vType="car" speedFactor="1.05" vaporized=""/>