<?xml version="1.0" encoding="UTF-8"?>

<!-- generated on 2025-05-04 22:11:27 by Eclipse SUMO sumo Version 1.20.0
<configuration xmlns:xsi="http://www.w3.org/2001/XMLSchema-instance" xsi:noNamespaceSchemaLocation="http://sumo.dlr.de/xsd/sumoConfiguration.xsd">

    <input>
        <net-file value="config/osm.net.xml"/>
        <route-files value="draft/generated_0_093_5_069_0_649_7_027_99_.rou.xml"/>
    </input>

    <output>
        <tripinfo-output value="draft/tripinfo_0_093_5_069_0_649_7_027_99.xml"/>
    </output>

    <time>
        <step-length value="1"/>
    </time>

    <traci_server>
        <remote-port value="51243"/>
    </traci_server>

    <gui_only>
        <start value="true"/>
    </gui_only>

</configuration>
-->

<tripinfos xmlns:xsi="http://www.w3.org/2001/XMLSchema-instance" xsi:noNamespaceSchemaLocation="http://sumo.dlr.de/xsd/tripinfo_file.xsd">
    <tripinfo id="route_29.1" depart="101.00" departLane="-422986370#2_0" departPos="265.89" departSpeed="0.00" departDelay="0.54" arrival="115.00" arrivalLane="-430406005#1_1" arrivalPos="8.25" arrivalSpeed="11.07" duration="14.00" routeLength="76.79" waitingTime="0.00" waitingCount="0" stopTime="0.00" timeLoss="8.83" rerouteNo="0" devices="tripinfo_route_29.1" vType="car" speedFactor="1.09" vaporized=""/>
    <tripinfo id="route_34.0" depart="99.00" departLane="133126008#0_0" departPos="101.07" departSpeed="0.00" departDelay="0.00" arrival="117.00" arrivalLane="1369578054_1" arrivalPos="13.07" arrivalSpeed="13.82" duration="18.00" routeLength="125.36" waitingTime="0.00" waitingCount="0" stopTime="0.00" timeLoss="9.69" rerouteNo="0" devices="tripinfo_route_34.0" vType="car" speedFactor="0.83" vaporized=""/>
    <tripinfo id="route_29.4" depart="105.00" departLane="-422986370#2_0" departPos="297.23" departSpeed="0.00" departDelay="0.15" arrival="118.00" arrivalLane="-430406005#1_0" arrivalPos="32.75" arrivalSpeed="10.55" duration="13.00" routeLength="69.94" waitingTime="0.00" waitingCount="0" stopTime="0.00" timeLoss="8.55" rerouteNo="0" devices="tripinfo_route_29.4" vType="car" speedFactor="1.15" vaporized=""/>
    <tripinfo id="route_34.3" depart="110.00" departLane="133126008#0_0" departPos="127.31" departSpeed="0.00" departDelay="4.18" arrival="128.00" arrivalLane="1369578054_1" arrivalPos="25.77" arrivalSpeed="12.43" duration="18.00" routeLength="111.83" waitingTime="0.00" waitingCount="0" stopTime="0.00" timeLoss="11.17" rerouteNo="0" devices="tripinfo_route_34.3" vType="car" speedFactor="0.97" vaporized=""/>
    <tripinfo id="route_35.1" depart="103.00" departLane="133126008#0_0" departPos="144.87" departSpeed="0.00" departDelay="1.17" arrival="129.00" arrivalLane="133126030#0_0" arrivalPos="141.65" arrivalSpeed="15.30" duration="26.00" routeLength="184.30" waitingTime="0.00" waitingCount="0" stopTime="0.00" timeLoss="12.89" rerouteNo="0" devices="tripinfo_route_35.1" vType="car" speedFactor="0.94" vaporized=""/>
    <tripinfo id="route_34.5" depart="112.00" departLane="133126008#0_0" departPos="146.55" departSpeed="0.00" departDelay="1.64" arrival="130.00" arrivalLane="1369578054_0" arrivalPos="46.01" arrivalSpeed="13.86" duration="18.00" routeLength="112.82" waitingTime="0.00" waitingCount="0" stopTime="0.00" timeLoss="10.35" rerouteNo="0" devices="tripinfo_route_34.5" vType="car" speedFactor="0.99" vaporized=""/>
    <tripinfo id="route_35.2" depart="108.00" departLane="133126008#0_0" departPos="111.59" departSpeed="0.00" departDelay="3.34" arrival="131.00" arrivalLane="133126030#0_0" arrivalPos="51.67" arrivalSpeed="10.66" duration="23.00" routeLength="127.60" waitingTime="0.00" waitingCount="0" stopTime="0.00" timeLoss="14.54" rerouteNo="0" devices="tripinfo_route_35.2" vType="car" speedFactor="1.02" vaporized=""/>
    <tripinfo id="route_30.0" depart="99.00" departLane="-422986370#2_0" departPos="201.60" departSpeed="0.00" departDelay="0.00" arrival="132.00" arrivalLane="137415945#0_0" arrivalPos="9.07" arrivalSpeed="15.19" duration="33.00" routeLength="253.29" waitingTime="0.00" waitingCount="0" stopTime="0.00" timeLoss="15.00" rerouteNo="0" devices="tripinfo_route_30.0" vType="car" speedFactor="0.94" vaporized=""/>
    <tripinfo id="route_34.2" depart="105.00" departLane="133126008#0_0" departPos="165.65" departSpeed="0.00" departDelay="1.46" arrival="133.00" arrivalLane="1369578054_0" arrivalPos="207.23" arrivalSpeed="15.47" duration="28.00" routeLength="254.95" waitingTime="0.00" waitingCount="0" stopTime="0.00" timeLoss="11.23" rerouteNo="0" devices="tripinfo_route_34.2" vType="car" speedFactor="0.95" vaporized=""/>
    <tripinfo id="route_29.3" depart="104.00" departLane="-422986370#2_0" departPos="173.76" departSpeed="0.00" departDelay="0.61" arrival="134.00" arrivalLane="-430406005#1_1" arrivalPos="127.79" arrivalSpeed="16.32" duration="30.00" routeLength="288.46" waitingTime="0.00" waitingCount="0" stopTime="0.00" timeLoss="11.40" rerouteNo="0" devices="tripinfo_route_29.3" vType="car" speedFactor="0.87" vaporized=""/>
    <tripinfo id="route_38.2" depart="108.00" departLane="485211947#0_0" departPos="162.23" departSpeed="0.00" departDelay="4.39" arrival="146.00" arrivalLane="-430406005#1_1" arrivalPos="54.97" arrivalSpeed="11.10" duration="38.00" routeLength="105.72" waitingTime="14.00" waitingCount="1" stopTime="0.00" timeLoss="30.72" rerouteNo="0" devices="tripinfo_route_38.2" vType="car" speedFactor="1.18" vaporized=""/>
    <tripinfo id="route_38.3" depart="117.00" departLane="485211947#0_0" departPos="35.30" departSpeed="0.00" departDelay="11.08" arrival="148.00" arrivalLane="-430406005#1_1" arrivalPos="32.26" arrivalSpeed="10.06" duration="31.00" routeLength="209.94" waitingTime="0.00" waitingCount="0" stopTime="0.00" timeLoss="15.70" rerouteNo="0" devices="tripinfo_route_38.3" vType="car" speedFactor="0.90" vaporized=""/>
    <tripinfo id="route_37.0" depart="99.00" departLane="485211947#0_0" departPos="162.24" departSpeed="0.00" departDelay="0.00" arrival="149.00" arrivalLane="137415945#0_0" arrivalPos="6.94" arrivalSpeed="15.60" duration="50.00" routeLength="189.23" waitingTime="20.00" waitingCount="1" stopTime="0.00" timeLoss="37.36" rerouteNo="0" devices="tripinfo_route_37.0" vType="car" speedFactor="0.94" vaporized=""/>
    <tripinfo id="route_37.1" depart="102.00" departLane="485211947#0_0" departPos="76.22" departSpeed="0.00" departDelay="0.96" arrival="149.00" arrivalLane="137415945#0_1" arrivalPos="2.03" arrivalSpeed="16.26" duration="47.00" routeLength="270.34" waitingTime="7.00" waitingCount="1" stopTime="0.00" timeLoss="29.79" rerouteNo="0" devices="tripinfo_route_37.1" vType="car" speedFactor="1.16" vaporized=""/>
    <tripinfo id="route_36.0" depart="99.00" departLane="485211947#0_0" departPos="11.17" departSpeed="0.00" departDelay="0.00" arrival="150.00" arrivalLane="1369578054_0" arrivalPos="74.16" arrivalSpeed="12.58" duration="51.00" routeLength="260.46" waitingTime="6.00" waitingCount="1" stopTime="0.00" timeLoss="31.64" rerouteNo="0" devices="tripinfo_route_36.0" vType="car" speedFactor="0.89" vaporized=""/>
    <tripinfo id="route_38.1" depart="102.00" departLane="485211947#0_0" departPos="178.72" departSpeed="0.00" departDelay="0.69" arrival="152.00" arrivalLane="-430406005#1_1" arrivalPos="170.84" arrivalSpeed="16.12" duration="50.00" routeLength="205.10" waitingTime="21.00" waitingCount="1" stopTime="0.00" timeLoss="36.26" rerouteNo="0" devices="tripinfo_route_38.1" vType="car" speedFactor="1.02" vaporized=""/>
    <tripinfo id="route_37.2" depart="107.00" departLane="485211947#0_0" departPos="72.22" departSpeed="0.00" departDelay="3.92" arrival="152.00" arrivalLane="137415945#0_1" arrivalPos="12.22" arrivalSpeed="15.23" duration="45.00" routeLength="284.53" waitingTime="5.00" waitingCount="1" stopTime="0.00" timeLoss="25.89" rerouteNo="0" devices="tripinfo_route_37.2" vType="car" speedFactor="0.93" vaporized=""/>
    <tripinfo id="route_36.2" depart="103.00" departLane="485211947#0_0" departPos="123.80" departSpeed="0.00" departDelay="0.67" arrival="153.00" arrivalLane="1369578054_0" arrivalPos="171.28" arrivalSpeed="13.72" duration="50.00" routeLength="244.94" waitingTime="13.00" waitingCount="1" stopTime="0.00" timeLoss="30.44" rerouteNo="0" devices="tripinfo_route_36.2" vType="car" speedFactor="0.83" vaporized=""/>
    <tripinfo id="route_37.3" depart="114.00" departLane="485211947#0_0" departPos="21.19" departSpeed="0.00" departDelay="8.88" arrival="153.00" arrivalLane="137415945#0_1" arrivalPos="2.64" arrivalSpeed="16.24" duration="39.00" routeLength="325.98" waitingTime="0.00" waitingCount="0" stopTime="0.00" timeLoss="18.57" rerouteNo="0" devices="tripinfo_route_37.3" vType="car" speedFactor="1.10" vaporized=""/>
    <tripinfo id="route_38.0" depart="99.00" departLane="485211947#0_0" departPos="59.66" departSpeed="0.00" departDelay="0.00" arrival="154.00" arrivalLane="-430406005#1_1" arrivalPos="133.07" arrivalSpeed="15.07" duration="55.00" routeLength="286.39" waitingTime="13.00" waitingCount="1" stopTime="0.00" timeLoss="34.67" rerouteNo="0" devices="tripinfo_route_38.0" vType="car" speedFactor="0.86" vaporized=""/>
    <tripinfo id="route_37.4" depart="122.00" departLane="485211947#0_0" departPos="9.07" departSpeed="0.00" departDelay="14.84" arrival="156.00" arrivalLane="137415945#0_1" arrivalPos="0.30" arrivalSpeed="14.30" duration="34.00" routeLength="335.76" waitingTime="0.00" waitingCount="0" stopTime="0.00" timeLoss="10.13" rerouteNo="0" devices="tripinfo_route_37.4" vType="car" speedFactor="0.88" vaporized=""/>
    <tripinfo id="route_36.4" depart="111.00" departLane="485211947#0_0" departPos="51.38" departSpeed="0.00" departDelay="5.34" arrival="158.00" arrivalLane="1369578054_0" arrivalPos="169.94" arrivalSpeed="16.35" duration="47.00" routeLength="316.02" waitingTime="2.00" waitingCount="1" stopTime="0.00" timeLoss="26.59" rerouteNo="0" devices="tripinfo_route_36.4" vType="car" speedFactor="1.18" vaporized=""/>
    <tripinfo id="route_36.1" depart="101.00" departLane="485211947#0_0" departPos="100.86" departSpeed="0.00" departDelay="0.33" arrival="161.00" arrivalLane="1369578054_0" arrivalPos="281.37" arrivalSpeed="16.29" duration="60.00" routeLength="377.98" waitingTime="13.00" waitingCount="1" stopTime="0.00" timeLoss="36.01" rerouteNo="0" devices="tripinfo_route_36.1" vType="car" speedFactor="0.99" vaporized=""/>
    <tripinfo id="route_37.5" depart="133.00" departLane="485211947#0_0" departPos="100.11" departSpeed="0.00" departDelay="23.80" arrival="161.00" arrivalLane="137415945#0_0" arrivalPos="9.07" arrivalSpeed="16.60" duration="28.00" routeLength="253.49" waitingTime="0.00" waitingCount="0" stopTime="0.00" timeLoss="12.12" rerouteNo="0" devices="tripinfo_route_37.5" vType="car" speedFactor="1.14" vaporized=""/>
    <tripinfo id="route_36.6" depart="131.00" departLane="485211947#0_0" departPos="78.35" departSpeed="0.00" departDelay="22.00" arrival="162.00" arrivalLane="1369578054_0" arrivalPos="102.74" arrivalSpeed="14.36" duration="31.00" routeLength="221.85" waitingTime="0.00" waitingCount="0" stopTime="0.00" timeLoss="16.33" rerouteNo="0" devices="tripinfo_route_36.6" vType="car" speedFactor="1.00" vaporized=""/>
    <tripinfo id="route_38.5" depart="138.00" departLane="485211947#0_0" departPos="132.41" departSpeed="0.00" departDelay="27.47" arrival="162.00" arrivalLane="-430406005#1_1" arrivalPos="118.46" arrivalSpeed="16.46" duration="24.00" routeLength="199.03" waitingTime="0.00" waitingCount="0" stopTime="0.00" timeLoss="10.02" rerouteNo="0" devices="tripinfo_route_38.5" vType="car" speedFactor="0.91" vaporized=""/>
    <tripinfo id="route_38.6" depart="145.00" departLane="485211947#0_0" departPos="123.10" departSpeed="0.00" departDelay="32.16" arrival="164.00" arrivalLane="-430406005#1_1" arrivalPos="29.91" arrivalSpeed="11.53" duration="19.00" routeLength="119.79" waitingTime="0.00" waitingCount="0" stopTime="0.00" timeLoss="10.05" rerouteNo="0" devices="tripinfo_route_38.6" vType="car" speedFactor="0.96" vaporized=""/>
    <tripinfo id="route_36.3" depart="105.00" departLane="485211947#0_0" departPos="12.41" departSpeed="0.00" departDelay="1.00" arrival="166.00" arrivalLane="1369578054_0" arrivalPos="280.18" arrivalSpeed="16.26" duration="61.00" routeLength="465.23" waitingTime="1.00" waitingCount="1" stopTime="0.00" timeLoss="32.06" rerouteNo="0" devices="tripinfo_route_36.3" vType="car" speedFactor="1.13" vaporized=""/>
    <tripinfo id="route_37.6" depart="138.00" departLane="485211947#0_0" departPos="61.84" departSpeed="0.00" departDelay="26.76" arrival="169.00" arrivalLane="137415945#0_1" arrivalPos="7.30" arrivalSpeed="15.08" duration="31.00" routeLength="289.99" waitingTime="0.00" waitingCount="0" stopTime="0.00" timeLoss="11.72" rerouteNo="0" devices="tripinfo_route_37.6" vType="car" speedFactor="0.91" vaporized=""/>
    <tripinfo id="route_36.5" depart="117.00" departLane="485211947#0_0" departPos="44.18" departSpeed="0.00" departDelay="9.67" arrival="171.00" arrivalLane="1369578054_0" arrivalPos="292.70" arrivalSpeed="14.96" duration="54.00" routeLength="445.98" waitingTime="0.00" waitingCount="0" stopTime="0.00" timeLoss="23.10" rerouteNo="0" devices="tripinfo_route_36.5" vType="car" speedFactor="0.90" vaporized=""/>
    <tripinfo id="route_38.4" depart="133.00" departLane="485211947#0_0" departPos="0.95" departSpeed="0.00" departDelay="24.77" arrival="175.00" arrivalLane="-430406005#1_1" arrivalPos="124.92" arrivalSpeed="15.75" duration="42.00" routeLength="336.95" waitingTime="0.00" waitingCount="0" stopTime="0.00" timeLoss="20.25" rerouteNo="0" devices="tripinfo_route_38.4" vType="car" speedFactor="1.00" vaporized=""/>
    <tripinfo id="route_37.7" depart="147.00" departLane="485211947#0_0" departPos="26.22" departSpeed="0.00" departDelay="33.72" arrival="178.00" arrivalLane="137415945#0_1" arrivalPos="11.57" arrivalSpeed="16.50" duration="31.00" routeLength="329.88" waitingTime="0.00" waitingCount="0" stopTime="0.00" timeLoss="10.68" rerouteNo="0" devices="tripinfo_route_37.7" vType="car" speedFactor="1.09" vaporized=""/>
    <tripinfo id="route_36.7" depart="136.00" departLane="485211947#0_0" departPos="22.18" departSpeed="0.00" departDelay="25.34" arrival="180.00" arrivalLane="1369578054_0" arrivalPos="103.24" arrivalSpeed="13.46" duration="44.00" routeLength="278.52" waitingTime="0.00" waitingCount="0" stopTime="0.00" timeLoss="23.45" rerouteNo="0" devices="tripinfo_route_36.7" vType="car" speedFactor="0.88" vaporized=""/>
    <tripinfo id="route_38.7" depart="153.00" departLane="485211947#0_0" departPos="160.60" departSpeed="0.00" departDelay="37.85" arrival="180.00" arrivalLane="-430406005#1_1" arrivalPos="103.50" arrivalSpeed="14.54" duration="27.00" routeLength="155.88" waitingTime="1.00" waitingCount="1" stopTime="0.00" timeLoss="16.71" rerouteNo="0" devices="tripinfo_route_38.7" vType="car" speedFactor="1.02" vaporized=""/>
    <tripinfo id="route_36.10" depart="148.00" departLane="485211947#0_0" departPos="135.93" departSpeed="0.00" departDelay="32.34" arrival="183.00" arrivalLane="1369578054_0" arrivalPos="240.24" arrivalSpeed="16.52" duration="35.00" routeLength="301.77" waitingTime="0.00" waitingCount="0" stopTime="0.00" timeLoss="15.35" rerouteNo="0" devices="tripinfo_route_36.10" vType="car" speedFactor="1.04" vaporized=""/>
    <tripinfo id="route_31.0" depart="99.00" departLane="1235147073.116_0" departPos="7.14" departSpeed="0.00" departDelay="0.00" arrival="185.00" arrivalLane="133126030#0_0" arrivalPos="8.43" arrivalSpeed="7.15" duration="86.00" routeLength="175.81" waitingTime="56.00" waitingCount="1" stopTime="0.00" timeLoss="75.24" rerouteNo="0" devices="tripinfo_route_31.0" vType="car" speedFactor="1.01" vaporized=""/>
    <tripinfo id="route_36.8" depart="139.00" departLane="485211947#0_0" departPos="78.39" departSpeed="0.00" departDelay="26.67" arrival="186.00" arrivalLane="1369578054_0" arrivalPos="270.68" arrivalSpeed="16.38" duration="47.00" routeLength="389.76" waitingTime="0.00" waitingCount="0" stopTime="0.00" timeLoss="22.93" rerouteNo="0" devices="tripinfo_route_36.8" vType="car" speedFactor="1.06" vaporized=""/>
    <tripinfo id="route_32.1" depart="120.00" departLane="1235147073.116_0" departPos="3.53" departSpeed="0.00" departDelay="18.64" arrival="188.00" arrivalLane="-430406005#1_0" arrivalPos="5.79" arrivalSpeed="6.99" duration="68.00" routeLength="165.22" waitingTime="36.00" waitingCount="1" stopTime="0.00" timeLoss="55.29" rerouteNo="0" devices="tripinfo_route_32.1" vType="car" speedFactor="0.88" vaporized=""/>
    <tripinfo id="route_31.1" depart="111.00" departLane="1235147073.116_0" departPos="6.60" departSpeed="0.00" departDelay="10.03" arrival="189.00" arrivalLane="133126030#0_0" arrivalPos="56.90" arrivalSpeed="11.36" duration="78.00" routeLength="224.82" waitingTime="43.00" waitingCount="1" stopTime="0.00" timeLoss="64.24" rerouteNo="0" devices="tripinfo_route_31.1" vType="car" speedFactor="1.05" vaporized=""/>
    <tripinfo id="route_31.2" depart="124.00" departLane="1235147073.116_0" departPos="2.35" departSpeed="0.00" departDelay="21.05" arrival="190.00" arrivalLane="133126030#0_1" arrivalPos="41.34" arrivalSpeed="10.83" duration="66.00" routeLength="213.51" waitingTime="32.00" waitingCount="2" stopTime="0.00" timeLoss="52.38" rerouteNo="0" devices="tripinfo_route_31.2" vType="car" speedFactor="0.97" vaporized=""/>
    <tripinfo id="route_31.3" depart="134.00" departLane="1235147073.116_0" departPos="0.61" departSpeed="0.00" departDelay="29.08" arrival="191.00" arrivalLane="133126030#0_1" arrivalPos="28.13" arrivalSpeed="9.94" duration="57.00" routeLength="202.04" waitingTime="22.00" waitingCount="1" stopTime="0.00" timeLoss="44.33" rerouteNo="0" devices="tripinfo_route_31.3" vType="car" speedFactor="1.17" vaporized=""/>
    <tripinfo id="route_33.3" depart="139.00" departLane="1235147073.116_0" departPos="4.45" departSpeed="0.00" departDelay="34.31" arrival="191.00" arrivalLane="1369578054_1" arrivalPos="8.34" arrivalSpeed="9.21" duration="52.00" routeLength="183.63" waitingTime="18.00" waitingCount="1" stopTime="0.00" timeLoss="39.89" rerouteNo="0" devices="tripinfo_route_33.3" vType="car" speedFactor="0.99" vaporized=""/>
    <tripinfo id="route_32.0" depart="102.00" departLane="1235147073.116_0" departPos="0.46" departSpeed="0.00" departDelay="3.00" arrival="194.00" arrivalLane="-430406005#1_0" arrivalPos="87.77" arrivalSpeed="13.13" duration="92.00" routeLength="250.27" waitingTime="53.00" waitingCount="1" stopTime="0.00" timeLoss="75.68" rerouteNo="0" devices="tripinfo_route_32.0" vType="car" speedFactor="1.08" vaporized=""/>
    <tripinfo id="route_33.2" depart="132.00" departLane="1235147073.116_0" departPos="5.49" departSpeed="0.00" departDelay="29.20" arrival="194.00" arrivalLane="1369578054_1" arrivalPos="50.33" arrivalSpeed="12.05" duration="62.00" routeLength="224.56" waitingTime="25.00" waitingCount="2" stopTime="0.00" timeLoss="45.13" rerouteNo="0" devices="tripinfo_route_33.2" vType="car" speedFactor="0.89" vaporized=""/>
    <tripinfo id="route_31.4" depart="143.00" departLane="1235147073.116_0" departPos="10.31" departSpeed="0.00" departDelay="36.11" arrival="194.00" arrivalLane="133126030#0_1" arrivalPos="39.35" arrivalSpeed="11.87" duration="51.00" routeLength="203.56" waitingTime="16.00" waitingCount="1" stopTime="0.00" timeLoss="38.29" rerouteNo="0" devices="tripinfo_route_31.4" vType="car" speedFactor="1.09" vaporized=""/>
    <tripinfo id="route_33.0" depart="108.00" departLane="1235147073.116_0" departPos="4.63" departSpeed="0.00" departDelay="9.00" arrival="199.00" arrivalLane="1369578054_1" arrivalPos="176.77" arrivalSpeed="16.52" duration="91.00" routeLength="351.87" waitingTime="46.00" waitingCount="1" stopTime="0.00" timeLoss="68.08" rerouteNo="0" devices="tripinfo_route_33.0" vType="car" speedFactor="1.03" vaporized=""/>
    <tripinfo id="route_32.2" depart="132.00" departLane="1235147073.116_0" departPos="13.08" departSpeed="0.00" departDelay="28.28" arrival="199.00" arrivalLane="-430406005#1_0" arrivalPos="106.48" arrivalSpeed="13.81" duration="67.00" routeLength="256.36" waitingTime="27.00" waitingCount="1" stopTime="0.00" timeLoss="49.89" rerouteNo="0" devices="tripinfo_route_32.2" vType="car" speedFactor="0.92" vaporized=""/>
    <tripinfo id="route_33.1" depart="116.00" departLane="1235147073.116_0" departPos="1.98" departSpeed="0.00" departDelay="15.10" arrival="201.00" arrivalLane="1369578054_1" arrivalPos="189.81" arrivalSpeed="16.44" duration="85.00" routeLength="367.56" waitingTime="39.00" waitingCount="1" stopTime="0.00" timeLoss="61.69" rerouteNo="0" devices="tripinfo_route_33.1" vType="car" speedFactor="1.12" vaporized=""/>
    <tripinfo id="route_31.5" depart="155.00" departLane="1235147073.116_0" departPos="7.64" departSpeed="0.00" departDelay="46.14" arrival="201.00" arrivalLane="133126030#0_1" arrivalPos="106.29" arrivalSpeed="14.08" duration="46.00" routeLength="273.17" waitingTime="5.00" waitingCount="1" stopTime="0.00" timeLoss="26.46" rerouteNo="0" devices="tripinfo_route_31.5" vType="car" speedFactor="0.85" vaporized=""/>
    <tripinfo id="route_32.3" depart="146.00" departLane="1235147073.116_0" departPos="2.03" departSpeed="0.00" departDelay="39.91" arrival="202.00" arrivalLane="-430406005#1_0" arrivalPos="121.21" arrivalSpeed="14.47" duration="56.00" routeLength="282.13" waitingTime="14.00" waitingCount="1" stopTime="0.00" timeLoss="38.35" rerouteNo="0" devices="tripinfo_route_32.3" vType="car" speedFactor="1.04" vaporized=""/>
    <tripinfo id="route_33.4" depart="152.00" departLane="1235147073.116_0" departPos="7.36" departSpeed="0.00" departDelay="45.41" arrival="202.00" arrivalLane="1369578054_1" arrivalPos="126.81" arrivalSpeed="16.16" duration="50.00" routeLength="299.19" waitingTime="8.00" waitingCount="1" stopTime="0.00" timeLoss="30.95" rerouteNo="0" devices="tripinfo_route_33.4" vType="car" speedFactor="1.04" vaporized=""/>
    <tripinfo id="route_33.5" depart="161.00" departLane="1235147073.116_0" departPos="15.07" departSpeed="0.00" departDelay="52.51" arrival="202.00" arrivalLane="1369578054_1" arrivalPos="88.79" arrivalSpeed="14.77" duration="41.00" routeLength="253.45" waitingTime="2.00" waitingCount="1" stopTime="0.00" timeLoss="24.43" rerouteNo="0" devices="tripinfo_route_33.5" vType="car" speedFactor="1.02" vaporized=""/>
    <tripinfo id="route_31.6" depart="166.00" departLane="1235147073.116_0" departPos="6.87" departSpeed="0.00" departDelay="55.16" arrival="204.00" arrivalLane="133126030#0_1" arrivalPos="125.13" arrivalSpeed="16.33" duration="38.00" routeLength="292.79" waitingTime="0.00" waitingCount="0" stopTime="0.00" timeLoss="19.80" rerouteNo="0" devices="tripinfo_route_31.6" vType="car" speedFactor="1.08" vaporized=""/>
    <tripinfo id="route_32.4" depart="160.00" departLane="1235147073.116_0" departPos="1.12" departSpeed="0.00" departDelay="51.55" arrival="207.00" arrivalLane="-430406005#1_0" arrivalPos="173.50" arrivalSpeed="16.43" duration="47.00" routeLength="335.33" waitingTime="3.00" waitingCount="1" stopTime="0.00" timeLoss="25.55" rerouteNo="0" devices="tripinfo_route_32.4" vType="car" speedFactor="1.17" vaporized=""/>
    <tripinfo id="route_32.5" depart="171.00" departLane="1235147073.116_0" departPos="4.62" departSpeed="0.00" departDelay="60.19" arrival="209.00" arrivalLane="-430406005#1_0" arrivalPos="174.70" arrivalSpeed="16.44" duration="38.00" routeLength="333.04" waitingTime="0.00" waitingCount="0" stopTime="0.00" timeLoss="16.20" rerouteNo="0" devices="tripinfo_route_32.5" vType="car" speedFactor="1.12" vaporized=""/>
    <tripinfo id="route_31.7" depart="180.00" departLane="1235147073.116_0" departPos="3.11" departSpeed="0.00" departDelay="67.19" arrival="214.00" arrivalLane="133126030#0_0" arrivalPos="181.76" arrivalSpeed="16.20" duration="34.00" routeLength="353.17" waitingTime="0.00" waitingCount="0" stopTime="0.00" timeLoss="12.15" rerouteNo="0" devices="tripinfo_route_31.7" vType="car" speedFactor="1.02" vaporized=""/>
    <tripinfo id="route_33.6" depart="177.00" departLane="1235147073.116_0" departPos="2.79" departSpeed="0.00" departDelay="66.61" arrival="220.00" arrivalLane="1369578054_1" arrivalPos="253.34" arrivalSpeed="16.39" duration="43.00" routeLength="430.28" waitingTime="0.00" waitingCount="0" stopTime="0.00" timeLoss="15.52" rerouteNo="0" devices="tripinfo_route_33.6" vType="car" speedFactor="1.02" vaporized=""/>
    <tripinfo id="route_32.6" depart="188.00" departLane="1235147073.116_0" departPos="6.04" departSpeed="0.00" departDelay="74.83" arrival="223.00" arrivalLane="-430406005#1_0" arrivalPos="164.06" arrivalSpeed="16.50" duration="35.00" routeLength="320.98" waitingTime="0.00" waitingCount="0" stopTime="0.00" timeLoss="14.55" rerouteNo="0" devices="tripinfo_route_32.6" vType="car" speedFactor="1.03" vaporized=""/>
    <tripinfo id="route_31.8" depart="191.00" departLane="1235147073.116_0" departPos="1.34" departSpeed="0.00" departDelay="76.22" arrival="223.00" arrivalLane="133126030#0_1" arrivalPos="173.46" arrivalSpeed="16.55" duration="32.00" routeLength="346.64" waitingTime="0.00" waitingCount="0" stopTime="0.00" timeLoss="10.91" rerouteNo="0" devices="tripinfo_route_31.8" vType="car" speedFactor="1.00" vaporized=""/>
    <tripinfo id="route_33.7" depart="185.00" departLane="1235147073.116_0" departPos="3.15" departSpeed="0.00" departDelay="72.71" arrival="228.00" arrivalLane="1369578054_1" arrivalPos="265.84" arrivalSpeed="15.95" duration="43.00" routeLength="442.42" waitingTime="0.00" waitingCount="0" stopTime="0.00" timeLoss="14.24" rerouteNo="0" devices="tripinfo_route_33.7" vType="car" speedFactor="0.97" vaporized=""/>
    <tripinfo id="route_29.2" depart="102.00" departLane="-422986370#2_0" departPos="99.24" departSpeed="0.00" departDelay="0.07" arrival="236.00" arrivalLane="-430406005#1_1" arrivalPos="42.28" arrivalSpeed="10.37" duration="134.00" routeLength="277.46" waitingTime="93.00" waitingCount="1" stopTime="0.00" timeLoss="116.12" rerouteNo="0" devices="tripinfo_route_29.2" vType="car" speedFactor="0.93" vaporized=""/>
    <tripinfo id="route_35.3" depart="110.00" departLane="133126008#0_0" departPos="66.33" departSpeed="0.00" departDelay="2.51" arrival="237.00" arrivalLane="133126030#0_0" arrivalPos="67.66" arrivalSpeed="11.09" duration="127.00" routeLength="188.86" waitingTime="92.00" waitingCount="1" stopTime="0.00" timeLoss="114.54" rerouteNo="0" devices="tripinfo_route_35.3" vType="car" speedFactor="1.00" vaporized=""/>
    <tripinfo id="route_34.1" depart="102.00" departLane="133126008#0_0" departPos="23.09" departSpeed="0.00" departDelay="0.73" arrival="239.00" arrivalLane="1369578054_0" arrivalPos="90.42" arrivalSpeed="13.79" duration="137.00" routeLength="280.69" waitingTime="94.00" waitingCount="1" stopTime="0.00" timeLoss="119.53" rerouteNo="0" devices="tripinfo_route_34.1" vType="car" speedFactor="0.94" vaporized=""/>
    <tripinfo id="route_29.9" depart="120.00" departLane="-422986370#2_0" departPos="271.05" departSpeed="0.00" departDelay="7.83" arrival="239.00" arrivalLane="-430406005#1_0" arrivalPos="98.09" arrivalSpeed="14.58" duration="119.00" routeLength="161.47" waitingTime="92.00" waitingCount="1" stopTime="0.00" timeLoss="108.95" rerouteNo="0" devices="tripinfo_route_29.9" vType="car" speedFactor="1.04" vaporized=""/>
    <tripinfo id="route_35.5" depart="116.00" departLane="133126008#0_0" departPos="40.65" departSpeed="0.00" departDelay="2.85" arrival="239.00" arrivalLane="133126030#0_0" arrivalPos="2.16" arrivalSpeed="6.12" duration="123.00" routeLength="149.03" waitingTime="87.00" waitingCount="1" stopTime="0.00" timeLoss="113.41" rerouteNo="0" devices="tripinfo_route_35.5" vType="car" speedFactor="0.98" vaporized=""/>
    <tripinfo id="route_29.6" depart="114.00" departLane="-422986370#2_0" departPos="245.44" departSpeed="0.00" departDelay="6.22" arrival="240.00" arrivalLane="-430406005#1_0" arrivalPos="74.50" arrivalSpeed="13.49" duration="126.00" routeLength="163.50" waitingTime="90.00" waitingCount="1" stopTime="0.00" timeLoss="115.70" rerouteNo="0" devices="tripinfo_route_29.6" vType="car" speedFactor="1.09" vaporized=""/>
    <tripinfo id="route_35.0" depart="99.00" departLane="133126008#0_0" departPos="47.21" departSpeed="0.00" departDelay="0.00" arrival="241.00" arrivalLane="133126030#0_0" arrivalPos="137.72" arrivalSpeed="15.06" duration="142.00" routeLength="278.03" waitingTime="94.00" waitingCount="1" stopTime="0.00" timeLoss="123.95" rerouteNo="0" devices="tripinfo_route_35.0" vType="car" speedFactor="1.05" vaporized=""/>
    <tripinfo id="route_29.5" depart="108.00" departLane="-422986370#2_0" departPos="127.34" departSpeed="0.00" departDelay="1.69" arrival="241.00" arrivalLane="-430406005#1_1" arrivalPos="62.84" arrivalSpeed="12.31" duration="133.00" routeLength="269.93" waitingTime="89.00" waitingCount="1" stopTime="0.00" timeLoss="116.59" rerouteNo="0" devices="tripinfo_route_29.5" vType="car" speedFactor="1.03" vaporized=""/>
    <tripinfo id="route_29.8" depart="116.00" departLane="-422986370#2_0" departPos="29.27" departSpeed="0.00" departDelay="5.30" arrival="241.00" arrivalLane="-430406005#1_1" arrivalPos="7.61" arrivalSpeed="10.53" duration="125.00" routeLength="312.77" waitingTime="80.00" waitingCount="1" stopTime="0.00" timeLoss="105.55" rerouteNo="0" devices="tripinfo_route_29.8" vType="car" speedFactor="1.02" vaporized=""/>
    <tripinfo id="route_29.7" depart="115.00" departLane="-422986370#2_0" departPos="45.93" departSpeed="0.00" departDelay="5.76" arrival="242.00" arrivalLane="-430406005#1_1" arrivalPos="50.22" arrivalSpeed="12.79" duration="127.00" routeLength="338.72" waitingTime="82.00" waitingCount="1" stopTime="0.00" timeLoss="104.63" rerouteNo="0" devices="tripinfo_route_29.7" vType="car" speedFactor="0.90" vaporized=""/>