<?xml version="1.0" encoding="UTF-8"?>

<!-- generated on 2025-05-04 22:11:17 by Eclipse SUMO sumo Version 1.20.0
<configuration xmlns:xsi="http://www.w3.org/2001/XMLSchema-instance" xsi:noNamespaceSchemaLocation="http://sumo.dlr.de/xsd/sumoConfiguration.xsd">

    <input>
        <net-file value="config/osm.net.xml"/>
        <route-files value="draft/generated_0_093_5_069_0_649_7_027_87_.rou.xml"/>
    </input>

    <output>
        <tripinfo-output value="draft/tripinfo_0_093_5_069_0_649_7_027_87.xml"/>
    </output>

    <time>
        <step-length value="1"/>
    </time>

    <traci_server>
        <remote-port value="39313"/>
    </traci_server>

    <gui_only>
        <start value="true"/>
    </gui_only>

</configuration>
-->

<tripinfos xmlns:xsi="http://www.w3.org/2001/XMLSchema-instance" xsi:noNamespaceSchemaLocation="http://sumo.dlr.de/xsd/tripinfo_file.xsd">
    <tripinfo id="route_29.1" depart="89.00" departLane="-422986370#2_0" departPos="265.89" departSpeed="0.00" departDelay="0.54" arrival="103.00" arrivalLane="-430406005#1_1" arrivalPos="8.25" arrivalSpeed="11.07" duration="14.00" routeLength="76.79" waitingTime="0.00" waitingCount="0" stopTime="0.00" timeLoss="8.83" rerouteNo="0" devices="tripinfo_route_29.1" vType="car" speedFactor="1.09" vaporized=""/>
    <tripinfo id="route_34.0" depart="87.00" departLane="133126008#0_0" departPos="101.07" departSpeed="0.00" departDelay="0.00" arrival="105.00" arrivalLane="1369578054_1" arrivalPos="13.07" arrivalSpeed="13.82" duration="18.00" routeLength="125.36" waitingTime="0.00" waitingCount="0" stopTime="0.00" timeLoss="9.69" rerouteNo="0" devices="tripinfo_route_34.0" vType="car" speedFactor="0.83" vaporized=""/>
    <tripinfo id="route_29.4" depart="93.00" departLane="-422986370#2_0" departPos="297.23" departSpeed="0.00" departDelay="0.15" arrival="106.00" arrivalLane="-430406005#1_0" arrivalPos="32.75" arrivalSpeed="10.55" duration="13.00" routeLength="69.94" waitingTime="0.00" waitingCount="0" stopTime="0.00" timeLoss="8.55" rerouteNo="0" devices="tripinfo_route_29.4" vType="car" speedFactor="1.15" vaporized=""/>
    <tripinfo id="route_34.3" depart="98.00" departLane="133126008#0_0" departPos="127.31" departSpeed="0.00" departDelay="4.18" arrival="116.00" arrivalLane="1369578054_1" arrivalPos="25.77" arrivalSpeed="12.43" duration="18.00" routeLength="111.83" waitingTime="0.00" waitingCount="0" stopTime="0.00" timeLoss="11.17" rerouteNo="0" devices="tripinfo_route_34.3" vType="car" speedFactor="0.97" vaporized=""/>
    <tripinfo id="route_35.1" depart="91.00" departLane="133126008#0_0" departPos="144.87" departSpeed="0.00" departDelay="1.17" arrival="117.00" arrivalLane="133126030#0_0" arrivalPos="141.65" arrivalSpeed="15.31" duration="26.00" routeLength="184.30" waitingTime="0.00" waitingCount="0" stopTime="0.00" timeLoss="12.89" rerouteNo="0" devices="tripinfo_route_35.1" vType="car" speedFactor="0.94" vaporized=""/>
    <tripinfo id="route_34.5" depart="100.00" departLane="133126008#0_0" departPos="146.55" departSpeed="0.00" departDelay="1.64" arrival="118.00" arrivalLane="1369578054_0" arrivalPos="46.01" arrivalSpeed="13.86" duration="18.00" routeLength="112.82" waitingTime="0.00" waitingCount="0" stopTime="0.00" timeLoss="10.35" rerouteNo="0" devices="tripinfo_route_34.5" vType="car" speedFactor="0.99" vaporized=""/>
    <tripinfo id="route_29.2" depart="90.00" departLane="-422986370#2_0" departPos="99.24" departSpeed="0.00" departDelay="0.07" arrival="119.00" arrivalLane="-430406005#1_1" arrivalPos="42.28" arrivalSpeed="16.14" duration="29.00" routeLength="277.46" waitingTime="0.00" waitingCount="0" stopTime="0.00" timeLoss="10.79" rerouteNo="0" devices="tripinfo_route_29.2" vType="car" speedFactor="0.93" vaporized=""/>
    <tripinfo id="route_35.2" depart="96.00" departLane="133126008#0_0" departPos="111.59" departSpeed="0.00" departDelay="3.34" arrival="119.00" arrivalLane="133126030#0_0" arrivalPos="51.67" arrivalSpeed="10.59" duration="23.00" routeLength="127.60" waitingTime="0.00" waitingCount="0" stopTime="0.00" timeLoss="14.53" rerouteNo="0" devices="tripinfo_route_35.2" vType="car" speedFactor="1.02" vaporized=""/>
    <tripinfo id="route_30.0" depart="87.00" departLane="-422986370#2_0" departPos="201.60" departSpeed="0.00" departDelay="0.00" arrival="120.00" arrivalLane="137415945#0_0" arrivalPos="9.07" arrivalSpeed="15.19" duration="33.00" routeLength="253.29" waitingTime="0.00" waitingCount="0" stopTime="0.00" timeLoss="15.00" rerouteNo="0" devices="tripinfo_route_30.0" vType="car" speedFactor="0.94" vaporized=""/>
    <tripinfo id="route_34.2" depart="93.00" departLane="133126008#0_0" departPos="165.65" departSpeed="0.00" departDelay="1.46" arrival="121.00" arrivalLane="1369578054_0" arrivalPos="207.23" arrivalSpeed="15.47" duration="28.00" routeLength="254.95" waitingTime="0.00" waitingCount="0" stopTime="0.00" timeLoss="11.23" rerouteNo="0" devices="tripinfo_route_34.2" vType="car" speedFactor="0.95" vaporized=""/>
    <tripinfo id="route_29.3" depart="92.00" departLane="-422986370#2_0" departPos="173.76" departSpeed="0.00" departDelay="0.61" arrival="122.00" arrivalLane="-430406005#1_1" arrivalPos="127.79" arrivalSpeed="16.31" duration="30.00" routeLength="288.46" waitingTime="0.00" waitingCount="0" stopTime="0.00" timeLoss="11.40" rerouteNo="0" devices="tripinfo_route_29.3" vType="car" speedFactor="0.87" vaporized=""/>
    <tripinfo id="route_34.1" depart="90.00" departLane="133126008#0_0" departPos="23.09" departSpeed="0.00" departDelay="0.73" arrival="123.00" arrivalLane="1369578054_1" arrivalPos="90.42" arrivalSpeed="15.28" duration="33.00" routeLength="280.69" waitingTime="0.00" waitingCount="0" stopTime="0.00" timeLoss="14.87" rerouteNo="0" devices="tripinfo_route_34.1" vType="car" speedFactor="0.94" vaporized=""/>
    <tripinfo id="route_35.3" depart="98.00" departLane="133126008#0_0" departPos="66.33" departSpeed="0.00" departDelay="2.51" arrival="126.00" arrivalLane="133126030#0_0" arrivalPos="67.66" arrivalSpeed="11.58" duration="28.00" routeLength="188.86" waitingTime="0.00" waitingCount="0" stopTime="0.00" timeLoss="15.40" rerouteNo="0" devices="tripinfo_route_35.3" vType="car" speedFactor="1.00" vaporized=""/>
    <tripinfo id="route_34.4" depart="98.00" departLane="133126008#0_0" departPos="85.67" departSpeed="0.00" departDelay="1.91" arrival="126.00" arrivalLane="1369578054_1" arrivalPos="123.18" arrivalSpeed="16.34" duration="28.00" routeLength="250.86" waitingTime="0.00" waitingCount="0" stopTime="0.00" timeLoss="12.56" rerouteNo="0" devices="tripinfo_route_34.4" vType="car" speedFactor="1.10" vaporized=""/>
    <tripinfo id="route_29.0" depart="87.00" departLane="-422986370#2_0" departPos="1.81" departSpeed="0.00" departDelay="0.00" arrival="128.00" arrivalLane="-430406005#1_1" arrivalPos="159.13" arrivalSpeed="16.44" duration="41.00" routeLength="491.75" waitingTime="0.00" waitingCount="0" stopTime="0.00" timeLoss="10.71" rerouteNo="0" devices="tripinfo_route_29.0" vType="car" speedFactor="1.06" vaporized=""/>
    <tripinfo id="route_35.0" depart="87.00" departLane="133126008#0_0" departPos="47.21" departSpeed="0.00" departDelay="0.00" arrival="129.00" arrivalLane="133126030#0_0" arrivalPos="137.72" arrivalSpeed="15.54" duration="42.00" routeLength="278.03" waitingTime="0.00" waitingCount="0" stopTime="0.00" timeLoss="23.17" rerouteNo="0" devices="tripinfo_route_35.0" vType="car" speedFactor="1.05" vaporized=""/>
    <tripinfo id="route_29.6" depart="102.00" departLane="-422986370#2_0" departPos="245.44" departSpeed="0.00" departDelay="6.22" arrival="129.00" arrivalLane="-430406005#1_1" arrivalPos="74.50" arrivalSpeed="14.77" duration="27.00" routeLength="163.50" waitingTime="0.00" waitingCount="0" stopTime="0.00" timeLoss="16.50" rerouteNo="0" devices="tripinfo_route_29.6" vType="car" speedFactor="1.09" vaporized=""/>
    <tripinfo id="route_29.9" depart="108.00" departLane="-422986370#2_0" departPos="271.05" departSpeed="0.00" departDelay="7.83" arrival="129.00" arrivalLane="-430406005#1_0" arrivalPos="98.09" arrivalSpeed="16.00" duration="21.00" routeLength="161.47" waitingTime="0.00" waitingCount="0" stopTime="0.00" timeLoss="10.45" rerouteNo="0" devices="tripinfo_route_29.9" vType="car" speedFactor="1.04" vaporized=""/>
    <tripinfo id="route_29.5" depart="96.00" departLane="-422986370#2_0" departPos="127.34" departSpeed="0.00" departDelay="1.69" arrival="130.00" arrivalLane="-430406005#1_1" arrivalPos="62.84" arrivalSpeed="15.38" duration="34.00" routeLength="269.93" waitingTime="0.00" waitingCount="0" stopTime="0.00" timeLoss="16.94" rerouteNo="0" devices="tripinfo_route_29.5" vType="car" speedFactor="1.03" vaporized=""/>
    <tripinfo id="route_34.6" depart="101.00" departLane="133126008#0_0" departPos="0.15" departSpeed="0.00" departDelay="0.37" arrival="134.00" arrivalLane="1369578054_1" arrivalPos="144.63" arrivalSpeed="15.56" duration="33.00" routeLength="357.84" waitingTime="0.00" waitingCount="0" stopTime="0.00" timeLoss="10.44" rerouteNo="0" devices="tripinfo_route_34.6" vType="car" speedFactor="0.94" vaporized=""/>
    <tripinfo id="route_35.4" depart="101.00" departLane="133126008#0_0" departPos="60.48" departSpeed="0.00" departDelay="2.68" arrival="135.00" arrivalLane="133126030#0_0" arrivalPos="167.58" arrivalSpeed="15.20" duration="34.00" routeLength="294.62" waitingTime="0.00" waitingCount="0" stopTime="0.00" timeLoss="14.32" rerouteNo="0" devices="tripinfo_route_35.4" vType="car" speedFactor="0.94" vaporized=""/>
    <tripinfo id="route_29.11" depart="116.00" departLane="-422986370#2_0" departPos="286.87" departSpeed="0.00" departDelay="12.91" arrival="138.00" arrivalLane="-430406005#1_0" arrivalPos="129.15" arrivalSpeed="16.32" duration="22.00" routeLength="176.71" waitingTime="0.00" waitingCount="0" stopTime="0.00" timeLoss="10.80" rerouteNo="0" devices="tripinfo_route_29.11" vType="car" speedFactor="1.15" vaporized=""/>
    <tripinfo id="route_38.2" depart="96.00" departLane="485211947#0_0" departPos="162.23" departSpeed="0.00" departDelay="4.39" arrival="146.00" arrivalLane="-430406005#1_1" arrivalPos="54.97" arrivalSpeed="11.25" duration="50.00" routeLength="105.72" waitingTime="26.00" waitingCount="1" stopTime="0.00" timeLoss="42.47" rerouteNo="0" devices="tripinfo_route_38.2" vType="car" speedFactor="1.18" vaporized=""/>
    <tripinfo id="route_38.3" depart="105.00" departLane="485211947#0_0" departPos="35.30" departSpeed="0.00" departDelay="11.08" arrival="147.00" arrivalLane="-430406005#1_1" arrivalPos="32.26" arrivalSpeed="10.42" duration="42.00" routeLength="209.94" waitingTime="7.00" waitingCount="1" stopTime="0.00" timeLoss="26.91" rerouteNo="0" devices="tripinfo_route_38.3" vType="car" speedFactor="0.90" vaporized=""/>
    <tripinfo id="route_37.0" depart="87.00" departLane="485211947#0_0" departPos="162.24" departSpeed="0.00" departDelay="0.00" arrival="148.00" arrivalLane="137415945#0_0" arrivalPos="6.94" arrivalSpeed="15.40" duration="61.00" routeLength="189.23" waitingTime="32.00" waitingCount="1" stopTime="0.00" timeLoss="48.90" rerouteNo="0" devices="tripinfo_route_37.0" vType="car" speedFactor="0.94" vaporized=""/>
    <tripinfo id="route_36.0" depart="87.00" departLane="485211947#0_0" departPos="11.17" departSpeed="0.00" departDelay="0.00" arrival="149.00" arrivalLane="1369578054_0" arrivalPos="74.16" arrivalSpeed="12.35" duration="62.00" routeLength="260.46" waitingTime="18.00" waitingCount="1" stopTime="0.00" timeLoss="43.36" rerouteNo="0" devices="tripinfo_route_36.0" vType="car" speedFactor="0.89" vaporized=""/>
    <tripinfo id="route_37.1" depart="90.00" departLane="485211947#0_0" departPos="76.22" departSpeed="0.00" departDelay="0.96" arrival="149.00" arrivalLane="137415945#0_1" arrivalPos="2.03" arrivalSpeed="15.82" duration="59.00" routeLength="270.34" waitingTime="19.00" waitingCount="1" stopTime="0.00" timeLoss="42.21" rerouteNo="0" devices="tripinfo_route_37.1" vType="car" speedFactor="1.16" vaporized=""/>
    <tripinfo id="route_38.1" depart="90.00" departLane="485211947#0_0" departPos="178.72" departSpeed="0.00" departDelay="0.69" arrival="151.00" arrivalLane="-430406005#1_1" arrivalPos="170.84" arrivalSpeed="16.20" duration="61.00" routeLength="205.10" waitingTime="33.00" waitingCount="1" stopTime="0.00" timeLoss="47.66" rerouteNo="0" devices="tripinfo_route_38.1" vType="car" speedFactor="1.02" vaporized=""/>
    <tripinfo id="route_37.2" depart="95.00" departLane="485211947#0_0" departPos="72.22" departSpeed="0.00" departDelay="3.92" arrival="151.00" arrivalLane="137415945#0_1" arrivalPos="12.22" arrivalSpeed="15.31" duration="56.00" routeLength="284.53" waitingTime="17.00" waitingCount="1" stopTime="0.00" timeLoss="37.60" rerouteNo="0" devices="tripinfo_route_37.2" vType="car" speedFactor="0.93" vaporized=""/>
    <tripinfo id="route_36.2" depart="91.00" departLane="485211947#0_0" departPos="123.80" departSpeed="0.00" departDelay="0.67" arrival="152.00" arrivalLane="1369578054_0" arrivalPos="171.28" arrivalSpeed="13.61" duration="61.00" routeLength="244.94" waitingTime="25.00" waitingCount="1" stopTime="0.00" timeLoss="41.93" rerouteNo="0" devices="tripinfo_route_36.2" vType="car" speedFactor="0.83" vaporized=""/>
    <tripinfo id="route_37.3" depart="102.00" departLane="485211947#0_0" departPos="21.19" departSpeed="0.00" departDelay="8.88" arrival="152.00" arrivalLane="137415945#0_1" arrivalPos="2.64" arrivalSpeed="15.70" duration="50.00" routeLength="325.98" waitingTime="2.00" waitingCount="1" stopTime="0.00" timeLoss="30.21" rerouteNo="0" devices="tripinfo_route_37.3" vType="car" speedFactor="1.10" vaporized=""/>
    <tripinfo id="route_38.0" depart="87.00" departLane="485211947#0_0" departPos="59.66" departSpeed="0.00" departDelay="0.00" arrival="153.00" arrivalLane="-430406005#1_1" arrivalPos="133.07" arrivalSpeed="15.79" duration="66.00" routeLength="286.39" waitingTime="25.00" waitingCount="1" stopTime="0.00" timeLoss="45.73" rerouteNo="0" devices="tripinfo_route_38.0" vType="car" speedFactor="0.86" vaporized=""/>
    <tripinfo id="route_37.4" depart="110.00" departLane="485211947#0_0" departPos="9.07" departSpeed="0.00" departDelay="14.84" arrival="154.00" arrivalLane="137415945#0_1" arrivalPos="0.30" arrivalSpeed="14.42" duration="44.00" routeLength="335.76" waitingTime="0.00" waitingCount="0" stopTime="0.00" timeLoss="21.00" rerouteNo="0" devices="tripinfo_route_37.4" vType="car" speedFactor="0.88" vaporized=""/>
    <tripinfo id="route_38.6" depart="126.00" departLane="485211947#0_0" departPos="77.66" departSpeed="0.00" departDelay="25.16" arrival="155.00" arrivalLane="-430406005#1_1" arrivalPos="29.91" arrivalSpeed="11.13" duration="29.00" routeLength="165.23" waitingTime="0.00" waitingCount="0" stopTime="0.00" timeLoss="16.98" rerouteNo="0" devices="tripinfo_route_38.6" vType="car" speedFactor="0.96" vaporized=""/>
    <tripinfo id="route_38.5" depart="121.00" departLane="485211947#0_0" departPos="114.14" departSpeed="0.00" departDelay="22.47" arrival="156.00" arrivalLane="-430406005#1_1" arrivalPos="118.46" arrivalSpeed="15.67" duration="35.00" routeLength="217.30" waitingTime="0.00" waitingCount="0" stopTime="0.00" timeLoss="20.03" rerouteNo="0" devices="tripinfo_route_38.5" vType="car" speedFactor="0.91" vaporized=""/>
    <tripinfo id="route_36.4" depart="99.00" departLane="485211947#0_0" departPos="51.38" departSpeed="0.00" departDelay="5.34" arrival="157.00" arrivalLane="1369578054_0" arrivalPos="169.94" arrivalSpeed="16.37" duration="58.00" routeLength="316.02" waitingTime="14.00" waitingCount="1" stopTime="0.00" timeLoss="37.47" rerouteNo="0" devices="tripinfo_route_36.4" vType="car" speedFactor="1.18" vaporized=""/>
    <tripinfo id="route_37.5" depart="119.00" departLane="485211947#0_0" departPos="37.56" departSpeed="0.00" departDelay="21.80" arrival="157.00" arrivalLane="137415945#0_1" arrivalPos="9.07" arrivalSpeed="16.38" duration="38.00" routeLength="316.03" waitingTime="0.00" waitingCount="0" stopTime="0.00" timeLoss="17.99" rerouteNo="0" devices="tripinfo_route_37.5" vType="car" speedFactor="1.14" vaporized=""/>
    <tripinfo id="route_37.6" depart="121.00" departLane="485211947#0_0" departPos="0.95" departSpeed="0.00" departDelay="21.76" arrival="158.00" arrivalLane="137415945#0_1" arrivalPos="7.30" arrivalSpeed="14.77" duration="37.00" routeLength="350.87" waitingTime="0.00" waitingCount="0" stopTime="0.00" timeLoss="13.64" rerouteNo="0" devices="tripinfo_route_37.6" vType="car" speedFactor="0.91" vaporized=""/>
    <tripinfo id="route_38.4" depart="117.00" departLane="485211947#0_0" departPos="46.22" departSpeed="0.00" departDelay="20.77" arrival="159.00" arrivalLane="-430406005#1_1" arrivalPos="124.92" arrivalSpeed="16.01" duration="42.00" routeLength="291.69" waitingTime="0.00" waitingCount="0" stopTime="0.00" timeLoss="23.01" rerouteNo="0" devices="tripinfo_route_38.4" vType="car" speedFactor="1.00" vaporized=""/>
    <tripinfo id="route_36.1" depart="89.00" departLane="485211947#0_0" departPos="100.86" departSpeed="0.00" departDelay="0.33" arrival="161.00" arrivalLane="1369578054_0" arrivalPos="281.37" arrivalSpeed="16.19" duration="72.00" routeLength="377.98" waitingTime="25.00" waitingCount="1" stopTime="0.00" timeLoss="47.66" rerouteNo="0" devices="tripinfo_route_36.1" vType="car" speedFactor="0.99" vaporized=""/>
    <tripinfo id="route_36.7" depart="120.00" departLane="485211947#0_0" departPos="66.50" departSpeed="0.00" departDelay="21.34" arrival="163.00" arrivalLane="1369578054_0" arrivalPos="103.24" arrivalSpeed="13.83" duration="43.00" routeLength="234.21" waitingTime="3.00" waitingCount="1" stopTime="0.00" timeLoss="25.37" rerouteNo="0" devices="tripinfo_route_36.7" vType="car" speedFactor="0.88" vaporized=""/>
    <tripinfo id="route_37.7" depart="135.00" departLane="485211947#0_0" departPos="74.66" departSpeed="0.00" departDelay="33.72" arrival="163.00" arrivalLane="137415945#0_1" arrivalPos="11.57" arrivalSpeed="16.30" duration="28.00" routeLength="281.44" waitingTime="0.00" waitingCount="0" stopTime="0.00" timeLoss="10.73" rerouteNo="0" devices="tripinfo_route_37.7" vType="car" speedFactor="1.09" vaporized=""/>
    <tripinfo id="route_36.6" depart="117.00" departLane="485211947#0_0" departPos="11.69" departSpeed="0.00" departDelay="20.00" arrival="164.00" arrivalLane="1369578054_0" arrivalPos="102.74" arrivalSpeed="14.02" duration="47.00" routeLength="288.51" waitingTime="0.00" waitingCount="0" stopTime="0.00" timeLoss="28.64" rerouteNo="0" devices="tripinfo_route_36.6" vType="car" speedFactor="1.00" vaporized=""/>
    <tripinfo id="route_36.3" depart="93.00" departLane="485211947#0_0" departPos="12.41" departSpeed="0.00" departDelay="1.00" arrival="165.00" arrivalLane="1369578054_0" arrivalPos="280.18" arrivalSpeed="16.36" duration="72.00" routeLength="465.23" waitingTime="13.00" waitingCount="1" stopTime="0.00" timeLoss="42.99" rerouteNo="0" devices="tripinfo_route_36.3" vType="car" speedFactor="1.13" vaporized=""/>
    <tripinfo id="route_36.9" depart="132.00" departLane="485211947#0_0" departPos="37.80" departSpeed="0.00" departDelay="30.01" arrival="169.00" arrivalLane="1369578054_0" arrivalPos="145.75" arrivalSpeed="16.00" duration="37.00" routeLength="305.41" waitingTime="0.00" waitingCount="0" stopTime="0.00" timeLoss="17.53" rerouteNo="0" devices="tripinfo_route_36.9" vType="car" speedFactor="1.01" vaporized=""/>
    <tripinfo id="route_36.5" depart="105.00" departLane="485211947#0_0" departPos="44.18" departSpeed="0.00" departDelay="9.67" arrival="171.00" arrivalLane="1369578054_0" arrivalPos="292.70" arrivalSpeed="14.93" duration="66.00" routeLength="445.98" waitingTime="11.00" waitingCount="1" stopTime="0.00" timeLoss="35.42" rerouteNo="0" devices="tripinfo_route_36.5" vType="car" speedFactor="0.90" vaporized=""/>
    <tripinfo id="route_36.8" depart="121.00" departLane="485211947#0_0" departPos="100.11" departSpeed="0.00" departDelay="20.67" arrival="171.00" arrivalLane="1369578054_1" arrivalPos="270.68" arrivalSpeed="16.20" duration="50.00" routeLength="368.04" waitingTime="4.00" waitingCount="1" stopTime="0.00" timeLoss="26.25" rerouteNo="0" devices="tripinfo_route_36.8" vType="car" speedFactor="1.06" vaporized=""/>
    <tripinfo id="route_37.10" depart="153.00" departLane="485211947#0_0" departPos="143.76" departSpeed="0.00" departDelay="45.60" arrival="176.00" arrivalLane="137415945#0_1" arrivalPos="0.15" arrivalSpeed="16.54" duration="23.00" routeLength="200.91" waitingTime="0.00" waitingCount="0" stopTime="0.00" timeLoss="10.18" rerouteNo="0" devices="tripinfo_route_37.10" vType="car" speedFactor="1.06" vaporized=""/>
    <tripinfo id="route_36.10" depart="135.00" departLane="485211947#0_0" departPos="26.52" departSpeed="0.00" departDelay="31.34" arrival="177.00" arrivalLane="1369578054_0" arrivalPos="240.24" arrivalSpeed="16.49" duration="42.00" routeLength="411.17" waitingTime="0.00" waitingCount="0" stopTime="0.00" timeLoss="15.92" rerouteNo="0" devices="tripinfo_route_36.10" vType="car" speedFactor="1.04" vaporized=""/>
    <tripinfo id="route_38.7" depart="144.00" departLane="485211947#0_0" departPos="45.09" departSpeed="0.00" departDelay="40.85" arrival="177.00" arrivalLane="-430406005#1_1" arrivalPos="103.50" arrivalSpeed="15.13" duration="33.00" routeLength="271.40" waitingTime="0.00" waitingCount="0" stopTime="0.00" timeLoss="15.51" rerouteNo="0" devices="tripinfo_route_38.7" vType="car" speedFactor="1.02" vaporized=""/>
    <tripinfo id="route_37.8" depart="144.00" departLane="485211947#0_0" departPos="10.24" departSpeed="0.00" departDelay="40.68" arrival="178.00" arrivalLane="137415945#0_1" arrivalPos="2.01" arrivalSpeed="16.50" duration="34.00" routeLength="336.30" waitingTime="0.00" waitingCount="0" stopTime="0.00" timeLoss="12.78" rerouteNo="0" devices="tripinfo_route_37.8" vType="car" speedFactor="1.01" vaporized=""/>
    <tripinfo id="route_38.9" depart="157.00" departLane="485211947#0_0" departPos="123.94" departSpeed="0.00" departDelay="49.24" arrival="183.00" arrivalLane="-430406005#1_1" arrivalPos="103.44" arrivalSpeed="15.78" duration="26.00" routeLength="192.48" waitingTime="0.00" waitingCount="0" stopTime="0.00" timeLoss="12.73" rerouteNo="0" devices="tripinfo_route_38.9" vType="car" speedFactor="0.96" vaporized=""/>
    <tripinfo id="route_37.11" depart="158.00" departLane="485211947#0_0" departPos="160.74" departSpeed="0.00" departDelay="48.56" arrival="183.00" arrivalLane="137415945#0_0" arrivalPos="2.70" arrivalSpeed="15.70" duration="25.00" routeLength="186.48" waitingTime="0.00" waitingCount="0" stopTime="0.00" timeLoss="13.38" rerouteNo="0" devices="tripinfo_route_37.11" vType="car" speedFactor="0.99" vaporized=""/>
    <tripinfo id="route_36.13" depart="158.00" departLane="485211947#0_0" departPos="152.73" departSpeed="0.00" departDelay="49.34" arrival="184.00" arrivalLane="1369578054_0" arrivalPos="133.93" arrivalSpeed="15.84" duration="26.00" routeLength="178.66" waitingTime="0.00" waitingCount="0" stopTime="0.00" timeLoss="14.29" rerouteNo="0" devices="tripinfo_route_36.13" vType="car" speedFactor="1.10" vaporized=""/>
    <tripinfo id="route_31.0" depart="87.00" departLane="1235147073.116_0" departPos="7.14" departSpeed="0.00" departDelay="0.00" arrival="185.00" arrivalLane="133126030#0_0" arrivalPos="8.43" arrivalSpeed="7.31" duration="98.00" routeLength="175.81" waitingTime="68.00" waitingCount="1" stopTime="0.00" timeLoss="87.11" rerouteNo="0" devices="tripinfo_route_31.0" vType="car" speedFactor="1.01" vaporized=""/>
    <tripinfo id="route_37.12" depart="160.00" departLane="485211947#0_0" departPos="144.16" departSpeed="0.00" departDelay="48.52" arrival="186.00" arrivalLane="137415945#0_0" arrivalPos="3.74" arrivalSpeed="16.54" duration="26.00" routeLength="204.10" waitingTime="0.00" waitingCount="0" stopTime="0.00" timeLoss="13.25" rerouteNo="0" devices="tripinfo_route_37.12" vType="car" speedFactor="1.01" vaporized=""/>
    <tripinfo id="route_32.1" depart="108.00" departLane="1235147073.116_0" departPos="3.53" departSpeed="0.00" departDelay="18.64" arrival="187.00" arrivalLane="-430406005#1_0" arrivalPos="5.79" arrivalSpeed="6.12" duration="79.00" routeLength="165.22" waitingTime="48.00" waitingCount="1" stopTime="0.00" timeLoss="66.65" rerouteNo="0" devices="tripinfo_route_32.1" vType="car" speedFactor="0.88" vaporized=""/>
    <tripinfo id="route_36.15" depart="159.00" departLane="485211947#0_0" departPos="170.71" departSpeed="0.00" departDelay="47.01" arrival="188.00" arrivalLane="1369578054_0" arrivalPos="266.01" arrivalSpeed="16.50" duration="29.00" routeLength="292.77" waitingTime="0.00" waitingCount="0" stopTime="0.00" timeLoss="9.64" rerouteNo="0" devices="tripinfo_route_36.15" vType="car" speedFactor="1.12" vaporized=""/>
    <tripinfo id="route_31.1" depart="99.00" departLane="1235147073.116_0" departPos="6.60" departSpeed="0.00" departDelay="10.03" arrival="190.00" arrivalLane="133126030#0_0" arrivalPos="56.90" arrivalSpeed="11.79" duration="91.00" routeLength="224.82" waitingTime="56.00" waitingCount="1" stopTime="0.00" timeLoss="76.85" rerouteNo="0" devices="tripinfo_route_31.1" vType="car" speedFactor="1.05" vaporized=""/>
    <tripinfo id="route_31.2" depart="112.00" departLane="1235147073.116_0" departPos="2.35" departSpeed="0.00" departDelay="21.05" arrival="191.00" arrivalLane="133126030#0_1" arrivalPos="41.34" arrivalSpeed="11.03" duration="79.00" routeLength="213.51" waitingTime="43.00" waitingCount="2" stopTime="0.00" timeLoss="65.25" rerouteNo="0" devices="tripinfo_route_31.2" vType="car" speedFactor="0.97" vaporized=""/>
    <tripinfo id="route_31.3" depart="122.00" departLane="1235147073.116_0" departPos="14.87" departSpeed="0.00" departDelay="29.08" arrival="191.00" arrivalLane="133126030#0_1" arrivalPos="28.13" arrivalSpeed="9.92" duration="69.00" routeLength="187.78" waitingTime="36.00" waitingCount="1" stopTime="0.00" timeLoss="57.49" rerouteNo="0" devices="tripinfo_route_31.3" vType="car" speedFactor="1.17" vaporized=""/>
    <tripinfo id="route_33.3" depart="127.00" departLane="1235147073.116_0" departPos="2.48" departSpeed="0.00" departDelay="34.31" arrival="192.00" arrivalLane="1369578054_1" arrivalPos="8.34" arrivalSpeed="9.35" duration="65.00" routeLength="185.59" waitingTime="31.00" waitingCount="1" stopTime="0.00" timeLoss="52.74" rerouteNo="0" devices="tripinfo_route_33.3" vType="car" speedFactor="0.99" vaporized=""/>
    <tripinfo id="route_32.0" depart="90.00" departLane="1235147073.116_0" departPos="0.46" departSpeed="0.00" departDelay="3.00" arrival="193.00" arrivalLane="-430406005#1_0" arrivalPos="87.77" arrivalSpeed="12.63" duration="103.00" routeLength="250.27" waitingTime="65.00" waitingCount="1" stopTime="0.00" timeLoss="87.12" rerouteNo="0" devices="tripinfo_route_32.0" vType="car" speedFactor="1.08" vaporized=""/>
    <tripinfo id="route_33.2" depart="117.00" departLane="1235147073.116_0" departPos="2.20" departSpeed="0.00" departDelay="26.20" arrival="194.00" arrivalLane="1369578054_1" arrivalPos="50.33" arrivalSpeed="11.72" duration="77.00" routeLength="227.85" waitingTime="40.00" waitingCount="1" stopTime="0.00" timeLoss="60.32" rerouteNo="0" devices="tripinfo_route_33.2" vType="car" speedFactor="0.89" vaporized=""/>
    <tripinfo id="route_31.4" depart="130.00" departLane="1235147073.116_0" departPos="2.11" departSpeed="0.00" departDelay="35.11" arrival="194.00" arrivalLane="133126030#0_1" arrivalPos="39.35" arrivalSpeed="11.31" duration="64.00" routeLength="211.76" waitingTime="28.00" waitingCount="1" stopTime="0.00" timeLoss="51.00" rerouteNo="0" devices="tripinfo_route_31.4" vType="car" speedFactor="1.09" vaporized=""/>
    <tripinfo id="route_33.0" depart="96.00" departLane="1235147073.116_0" departPos="4.63" departSpeed="0.00" departDelay="9.00" arrival="198.00" arrivalLane="1369578054_1" arrivalPos="176.77" arrivalSpeed="16.23" duration="102.00" routeLength="351.87" waitingTime="58.00" waitingCount="1" stopTime="0.00" timeLoss="80.07" rerouteNo="0" devices="tripinfo_route_33.0" vType="car" speedFactor="1.03" vaporized=""/>
    <tripinfo id="route_32.2" depart="120.00" departLane="1235147073.116_0" departPos="1.83" departSpeed="0.00" departDelay="28.28" arrival="199.00" arrivalLane="-430406005#1_0" arrivalPos="106.48" arrivalSpeed="14.38" duration="79.00" routeLength="267.61" waitingTime="36.00" waitingCount="1" stopTime="0.00" timeLoss="60.62" rerouteNo="0" devices="tripinfo_route_32.2" vType="car" speedFactor="0.92" vaporized=""/>
    <tripinfo id="route_33.1" depart="104.00" departLane="1235147073.116_0" departPos="1.98" departSpeed="0.00" departDelay="15.10" arrival="201.00" arrivalLane="1369578054_1" arrivalPos="189.81" arrivalSpeed="16.28" duration="97.00" routeLength="367.56" waitingTime="52.00" waitingCount="1" stopTime="0.00" timeLoss="73.85" rerouteNo="0" devices="tripinfo_route_33.1" vType="car" speedFactor="1.12" vaporized=""/>
    <tripinfo id="route_32.3" depart="136.00" departLane="1235147073.116_0" departPos="3.26" departSpeed="0.00" departDelay="41.91" arrival="201.00" arrivalLane="-430406005#1_0" arrivalPos="121.21" arrivalSpeed="15.07" duration="65.00" routeLength="280.91" waitingTime="23.00" waitingCount="1" stopTime="0.00" timeLoss="47.23" rerouteNo="0" devices="tripinfo_route_32.3" vType="car" speedFactor="1.04" vaporized=""/>
    <tripinfo id="route_31.5" depart="144.00" departLane="1235147073.116_0" departPos="3.28" departSpeed="0.00" departDelay="47.14" arrival="201.00" arrivalLane="133126030#0_1" arrivalPos="106.29" arrivalSpeed="14.08" duration="57.00" routeLength="277.54" waitingTime="15.00" waitingCount="1" stopTime="0.00" timeLoss="37.10" rerouteNo="0" devices="tripinfo_route_31.5" vType="car" speedFactor="0.85" vaporized=""/>