<?xml version="1.0" encoding="UTF-8"?>

<!-- generated on 2025-05-04 22:11:32 by Eclipse SUMO sumo Version 1.20.0
<configuration xmlns:xsi="http://www.w3.org/2001/XMLSchema-instance" xsi:noNamespaceSchemaLocation="http://sumo.dlr.de/xsd/sumoConfiguration.xsd">

    <input>
        <net-file value="config/osm.net.xml"/>
        <route-files value="draft/generated_0_093_5_069_0_649_7_027_105_.rou.xml"/>
    </input>

    <output>
        <tripinfo-output value="draft/tripinfo_0_093_5_069_0_649_7_027_105.xml"/>
    </output>

    <time>
        <step-length value="1"/>
    </time>

    <traci_server>
        <remote-port value="34915"/>
    </traci_server>

    <gui_only>
        <start value="true"/>
    </gui_only>

</configuration>
-->

<tripinfos xmlns:xsi="http://www.w3.org/2001/XMLSchema-instance" xsi:noNamespaceSchemaLocation="http://sumo.dlr.de/xsd/tripinfo_file.xsd">
    <tripinfo id="route_29.1" depart="107.00" departLane="-422986370#2_0" departPos="265.89" departSpeed="0.00" departDelay="0.54" arrival="121.00" arrivalLane="-430406005#1_1" arrivalPos="8.25" arrivalSpeed="11.07" duration="14.00" routeLength="76.79" waitingTime="0.00" waitingCount="0" stopTime="0.00" timeLoss="8.83" rerouteNo="0" devices="tripinfo_route_29.1" vType="car" speedFactor="1.09" vaporized=""/>
    <tripinfo id="route_34.0" depart="105.00" departLane="133126008#0_0" departPos="101.07" departSpeed="0.00" departDelay="0.00" arrival="123.00" arrivalLane="1369578054_1" arrivalPos="13.07" arrivalSpeed="13.82" duration="18.00" routeLength="125.36" waitingTime="0.00" waitingCount="0" stopTime="0.00" timeLoss="9.69" rerouteNo="0" devices="tripinfo_route_34.0" vType="car" speedFactor="0.83" vaporized=""/>
    <tripinfo id="route_29.4" depart="111.00" departLane="-422986370#2_0" departPos="297.23" departSpeed="0.00" departDelay="0.15" arrival="124.00" arrivalLane="-430406005#1_0" arrivalPos="32.75" arrivalSpeed="10.55" duration="13.00" routeLength="69.94" waitingTime="0.00" waitingCount="0" stopTime="0.00" timeLoss="8.55" rerouteNo="0" devices="tripinfo_route_29.4" vType="car" speedFactor="1.15" vaporized=""/>
    <tripinfo id="route_35.1" depart="109.00" departLane="133126008#0_0" departPos="144.87" departSpeed="0.00" departDelay="1.17" arrival="135.00" arrivalLane="133126030#0_0" arrivalPos="141.65" arrivalSpeed="15.12" duration="26.00" routeLength="184.30" waitingTime="0.00" waitingCount="0" stopTime="0.00" timeLoss="12.85" rerouteNo="0" devices="tripinfo_route_35.1" vType="car" speedFactor="0.94" vaporized=""/>
    <tripinfo id="route_30.0" depart="105.00" departLane="-422986370#2_0" departPos="201.60" departSpeed="0.00" departDelay="0.00" arrival="138.00" arrivalLane="137415945#0_0" arrivalPos="9.07" arrivalSpeed="15.19" duration="33.00" routeLength="253.29" waitingTime="0.00" waitingCount="0" stopTime="0.00" timeLoss="15.00" rerouteNo="0" devices="tripinfo_route_30.0" vType="car" speedFactor="0.94" vaporized=""/>
    <tripinfo id="route_34.2" depart="111.00" departLane="133126008#0_0" departPos="165.65" departSpeed="0.00" departDelay="1.46" arrival="139.00" arrivalLane="1369578054_0" arrivalPos="207.23" arrivalSpeed="15.79" duration="28.00" routeLength="254.95" waitingTime="0.00" waitingCount="0" stopTime="0.00" timeLoss="11.20" rerouteNo="0" devices="tripinfo_route_34.2" vType="car" speedFactor="0.95" vaporized=""/>
    <tripinfo id="route_38.2" depart="114.00" departLane="485211947#0_0" departPos="162.23" departSpeed="0.00" departDelay="4.39" arrival="145.00" arrivalLane="-430406005#1_1" arrivalPos="54.97" arrivalSpeed="10.82" duration="31.00" routeLength="105.72" waitingTime="8.00" waitingCount="1" stopTime="0.00" timeLoss="24.12" rerouteNo="0" devices="tripinfo_route_38.2" vType="car" speedFactor="1.18" vaporized=""/>
    <tripinfo id="route_36.0" depart="105.00" departLane="485211947#0_0" departPos="11.17" departSpeed="0.00" departDelay="0.00" arrival="149.00" arrivalLane="1369578054_0" arrivalPos="74.16" arrivalSpeed="12.08" duration="44.00" routeLength="260.46" waitingTime="0.00" waitingCount="0" stopTime="0.00" timeLoss="25.66" rerouteNo="0" devices="tripinfo_route_36.0" vType="car" speedFactor="0.89" vaporized=""/>
    <tripinfo id="route_37.0" depart="105.00" departLane="485211947#0_0" departPos="162.24" departSpeed="0.00" departDelay="0.00" arrival="149.00" arrivalLane="137415945#0_0" arrivalPos="6.94" arrivalSpeed="15.20" duration="44.00" routeLength="189.23" waitingTime="14.00" waitingCount="1" stopTime="0.00" timeLoss="31.60" rerouteNo="0" devices="tripinfo_route_37.0" vType="car" speedFactor="0.94" vaporized=""/>
    <tripinfo id="route_37.1" depart="108.00" departLane="485211947#0_0" departPos="76.22" departSpeed="0.00" departDelay="0.96" arrival="149.00" arrivalLane="137415945#0_1" arrivalPos="2.03" arrivalSpeed="15.85" duration="41.00" routeLength="270.34" waitingTime="1.00" waitingCount="1" stopTime="0.00" timeLoss="24.13" rerouteNo="0" devices="tripinfo_route_37.1" vType="car" speedFactor="1.16" vaporized=""/>
    <tripinfo id="route_38.3" depart="123.00" departLane="485211947#0_0" departPos="35.30" departSpeed="0.00" departDelay="11.08" arrival="149.00" arrivalLane="-430406005#1_1" arrivalPos="32.26" arrivalSpeed="11.37" duration="26.00" routeLength="209.94" waitingTime="0.00" waitingCount="0" stopTime="0.00" timeLoss="10.94" rerouteNo="0" devices="tripinfo_route_38.3" vType="car" speedFactor="0.90" vaporized=""/>
    <tripinfo id="route_38.1" depart="108.00" departLane="485211947#0_0" departPos="178.72" departSpeed="0.00" departDelay="0.69" arrival="151.00" arrivalLane="-430406005#1_1" arrivalPos="170.84" arrivalSpeed="16.29" duration="43.00" routeLength="205.10" waitingTime="15.00" waitingCount="1" stopTime="0.00" timeLoss="29.77" rerouteNo="0" devices="tripinfo_route_38.1" vType="car" speedFactor="1.02" vaporized=""/>
    <tripinfo id="route_37.2" depart="113.00" departLane="485211947#0_0" departPos="72.22" departSpeed="0.00" departDelay="3.92" arrival="151.00" arrivalLane="137415945#0_1" arrivalPos="12.22" arrivalSpeed="15.30" duration="38.00" routeLength="284.53" waitingTime="0.00" waitingCount="0" stopTime="0.00" timeLoss="19.46" rerouteNo="0" devices="tripinfo_route_37.2" vType="car" speedFactor="0.93" vaporized=""/>
    <tripinfo id="route_36.2" depart="109.00" departLane="485211947#0_0" departPos="123.80" departSpeed="0.00" departDelay="0.67" arrival="152.00" arrivalLane="1369578054_0" arrivalPos="171.28" arrivalSpeed="13.49" duration="43.00" routeLength="244.94" waitingTime="7.00" waitingCount="1" stopTime="0.00" timeLoss="24.14" rerouteNo="0" devices="tripinfo_route_36.2" vType="car" speedFactor="0.83" vaporized=""/>
    <tripinfo id="route_38.0" depart="105.00" departLane="485211947#0_0" departPos="59.66" departSpeed="0.00" departDelay="0.00" arrival="153.00" arrivalLane="-430406005#1_1" arrivalPos="133.07" arrivalSpeed="15.25" duration="48.00" routeLength="286.39" waitingTime="7.00" waitingCount="1" stopTime="0.00" timeLoss="28.18" rerouteNo="0" devices="tripinfo_route_38.0" vType="car" speedFactor="0.86" vaporized=""/>
    <tripinfo id="route_37.3" depart="120.00" departLane="485211947#0_0" departPos="21.19" departSpeed="0.00" departDelay="8.88" arrival="155.00" arrivalLane="137415945#0_1" arrivalPos="2.64" arrivalSpeed="16.26" duration="35.00" routeLength="325.98" waitingTime="0.00" waitingCount="0" stopTime="0.00" timeLoss="15.11" rerouteNo="0" devices="tripinfo_route_37.3" vType="car" speedFactor="1.10" vaporized=""/>
    <tripinfo id="route_36.4" depart="117.00" departLane="485211947#0_0" departPos="51.38" departSpeed="0.00" departDelay="5.34" arrival="157.00" arrivalLane="1369578054_0" arrivalPos="169.94" arrivalSpeed="16.19" duration="40.00" routeLength="316.02" waitingTime="0.00" waitingCount="0" stopTime="0.00" timeLoss="20.01" rerouteNo="0" devices="tripinfo_route_36.4" vType="car" speedFactor="1.18" vaporized=""/>
    <tripinfo id="route_36.1" depart="107.00" departLane="485211947#0_0" departPos="100.86" departSpeed="0.00" departDelay="0.33" arrival="161.00" arrivalLane="1369578054_0" arrivalPos="281.37" arrivalSpeed="16.09" duration="54.00" routeLength="377.98" waitingTime="7.00" waitingCount="1" stopTime="0.00" timeLoss="30.02" rerouteNo="0" devices="tripinfo_route_36.1" vType="car" speedFactor="0.99" vaporized=""/>
    <tripinfo id="route_37.4" depart="128.00" departLane="485211947#0_0" departPos="9.07" departSpeed="0.00" departDelay="14.84" arrival="162.00" arrivalLane="137415945#0_1" arrivalPos="0.30" arrivalSpeed="14.54" duration="34.00" routeLength="335.76" waitingTime="0.00" waitingCount="0" stopTime="0.00" timeLoss="10.11" rerouteNo="0" devices="tripinfo_route_37.4" vType="car" speedFactor="0.88" vaporized=""/>
    <tripinfo id="route_38.5" depart="141.00" departLane="485211947#0_0" departPos="139.10" departSpeed="0.00" departDelay="24.47" arrival="164.00" arrivalLane="-430406005#1_1" arrivalPos="118.46" arrivalSpeed="16.06" duration="23.00" routeLength="192.34" waitingTime="0.00" waitingCount="0" stopTime="0.00" timeLoss="9.50" rerouteNo="0" devices="tripinfo_route_38.5" vType="car" speedFactor="0.91" vaporized=""/>
    <tripinfo id="route_36.3" depart="111.00" departLane="485211947#0_0" departPos="12.41" departSpeed="0.00" departDelay="1.00" arrival="165.00" arrivalLane="1369578054_0" arrivalPos="280.18" arrivalSpeed="16.53" duration="54.00" routeLength="465.23" waitingTime="0.00" waitingCount="0" stopTime="0.00" timeLoss="25.13" rerouteNo="0" devices="tripinfo_route_36.3" vType="car" speedFactor="1.13" vaporized=""/>
    <tripinfo id="route_36.6" depart="138.00" departLane="485211947#0_0" departPos="96.45" departSpeed="0.00" departDelay="23.00" arrival="166.00" arrivalLane="1369578054_0" arrivalPos="102.74" arrivalSpeed="14.40" duration="28.00" routeLength="203.75" waitingTime="0.00" waitingCount="0" stopTime="0.00" timeLoss="14.62" rerouteNo="0" devices="tripinfo_route_36.6" vType="car" speedFactor="1.00" vaporized=""/>
    <tripinfo id="route_37.6" depart="143.00" departLane="485211947#0_0" departPos="150.21" departSpeed="0.00" departDelay="25.76" arrival="167.00" arrivalLane="137415945#0_0" arrivalPos="7.30" arrivalSpeed="14.85" duration="24.00" routeLength="201.61" waitingTime="0.00" waitingCount="0" stopTime="0.00" timeLoss="10.73" rerouteNo="0" devices="tripinfo_route_37.6" vType="car" speedFactor="0.91" vaporized=""/>
    <tripinfo id="route_38.4" depart="138.00" departLane="485211947#0_0" departPos="66.50" departSpeed="0.00" departDelay="23.77" arrival="169.00" arrivalLane="-430406005#1_1" arrivalPos="124.92" arrivalSpeed="16.25" duration="31.00" routeLength="271.40" waitingTime="0.00" waitingCount="0" stopTime="0.00" timeLoss="13.23" rerouteNo="0" devices="tripinfo_route_38.4" vType="car" speedFactor="1.00" vaporized=""/>
    <tripinfo id="route_38.6" depart="145.00" departLane="485211947#0_0" departPos="78.39" departSpeed="0.00" departDelay="26.16" arrival="169.00" arrivalLane="-430406005#1_1" arrivalPos="29.91" arrivalSpeed="11.22" duration="24.00" routeLength="164.51" waitingTime="0.00" waitingCount="0" stopTime="0.00" timeLoss="12.72" rerouteNo="0" devices="tripinfo_route_38.6" vType="car" speedFactor="0.96" vaporized=""/>
    <tripinfo id="route_36.5" depart="123.00" departLane="485211947#0_0" departPos="44.18" departSpeed="0.00" departDelay="9.67" arrival="171.00" arrivalLane="1369578054_0" arrivalPos="292.70" arrivalSpeed="14.58" duration="48.00" routeLength="445.98" waitingTime="0.00" waitingCount="0" stopTime="0.00" timeLoss="17.47" rerouteNo="0" devices="tripinfo_route_36.5" vType="car" speedFactor="0.90" vaporized=""/>
    <tripinfo id="route_37.5" depart="140.00" departLane="485211947#0_0" departPos="2.65" departSpeed="0.00" departDelay="24.80" arrival="173.00" arrivalLane="137415945#0_1" arrivalPos="9.07" arrivalSpeed="16.30" duration="33.00" routeLength="350.94" waitingTime="0.00" waitingCount="0" stopTime="0.00" timeLoss="11.13" rerouteNo="0" devices="tripinfo_route_37.5" vType="car" speedFactor="1.14" vaporized=""/>
    <tripinfo id="route_36.9" depart="146.00" departLane="485211947#0_0" departPos="110.06" departSpeed="0.00" departDelay="26.01" arrival="174.00" arrivalLane="1369578054_0" arrivalPos="145.75" arrivalSpeed="16.08" duration="28.00" routeLength="233.15" waitingTime="0.00" waitingCount="0" stopTime="0.00" timeLoss="12.70" rerouteNo="0" devices="tripinfo_route_36.9" vType="car" speedFactor="1.01" vaporized=""/>
    <tripinfo id="route_37.7" depart="146.00" departLane="485211947#0_0" departPos="96.61" departSpeed="0.00" departDelay="26.72" arrival="175.00" arrivalLane="137415945#0_0" arrivalPos="11.57" arrivalSpeed="16.60" duration="29.00" routeLength="259.50" waitingTime="0.00" waitingCount="0" stopTime="0.00" timeLoss="12.93" rerouteNo="0" devices="tripinfo_route_37.7" vType="car" speedFactor="1.09" vaporized=""/>
    <tripinfo id="route_36.7" depart="140.00" departLane="485211947#0_0" departPos="22.10" departSpeed="0.00" departDelay="23.34" arrival="178.00" arrivalLane="1369578054_0" arrivalPos="103.24" arrivalSpeed="13.77" duration="38.00" routeLength="278.60" waitingTime="0.00" waitingCount="0" stopTime="0.00" timeLoss="18.24" rerouteNo="0" devices="tripinfo_route_36.7" vType="car" speedFactor="0.88" vaporized=""/>
    <tripinfo id="route_31.0" depart="105.00" departLane="1235147073.116_0" departPos="7.14" departSpeed="0.00" departDelay="0.00" arrival="185.00" arrivalLane="133126030#0_0" arrivalPos="8.43" arrivalSpeed="7.55" duration="80.00" routeLength="175.81" waitingTime="50.00" waitingCount="1" stopTime="0.00" timeLoss="69.08" rerouteNo="0" devices="tripinfo_route_31.0" vType="car" speedFactor="1.01" vaporized=""/>
    <tripinfo id="route_36.8" depart="144.00" departLane="485211947#0_0" departPos="61.84" departSpeed="0.00" departDelay="25.67" arrival="185.00" arrivalLane="1369578054_0" arrivalPos="270.68" arrivalSpeed="16.36" duration="41.00" routeLength="406.31" waitingTime="0.00" waitingCount="0" stopTime="0.00" timeLoss="15.91" rerouteNo="0" devices="tripinfo_route_36.8" vType="car" speedFactor="1.06" vaporized=""/>
    <tripinfo id="route_32.1" depart="126.00" departLane="1235147073.116_0" departPos="3.53" departSpeed="0.00" departDelay="18.64" arrival="187.00" arrivalLane="-430406005#1_0" arrivalPos="5.79" arrivalSpeed="6.78" duration="61.00" routeLength="165.22" waitingTime="31.00" waitingCount="1" stopTime="0.00" timeLoss="48.91" rerouteNo="0" devices="tripinfo_route_32.1" vType="car" speedFactor="0.88" vaporized=""/>
    <tripinfo id="route_31.1" depart="117.00" departLane="1235147073.116_0" departPos="6.60" departSpeed="0.00" departDelay="10.03" arrival="190.00" arrivalLane="133126030#0_0" arrivalPos="56.90" arrivalSpeed="11.17" duration="73.00" routeLength="224.82" waitingTime="37.00" waitingCount="1" stopTime="0.00" timeLoss="58.95" rerouteNo="0" devices="tripinfo_route_31.1" vType="car" speedFactor="1.05" vaporized=""/>
    <tripinfo id="route_31.2" depart="130.00" departLane="1235147073.116_0" departPos="2.35" departSpeed="0.00" departDelay="21.05" arrival="190.00" arrivalLane="133126030#0_1" arrivalPos="41.34" arrivalSpeed="10.08" duration="60.00" routeLength="213.51" waitingTime="26.00" waitingCount="2" stopTime="0.00" timeLoss="46.73" rerouteNo="0" devices="tripinfo_route_31.2" vType="car" speedFactor="0.97" vaporized=""/>
    <tripinfo id="route_31.3" depart="141.00" departLane="1235147073.116_0" departPos="9.86" departSpeed="0.00" departDelay="30.08" arrival="192.00" arrivalLane="133126030#0_1" arrivalPos="28.13" arrivalSpeed="10.10" duration="51.00" routeLength="192.79" waitingTime="15.00" waitingCount="1" stopTime="0.00" timeLoss="39.00" rerouteNo="0" devices="tripinfo_route_31.3" vType="car" speedFactor="1.17" vaporized=""/>
    <tripinfo id="route_33.3" depart="142.00" departLane="1235147073.116_0" departPos="1.26" departSpeed="0.00" departDelay="31.31" arrival="192.00" arrivalLane="1369578054_1" arrivalPos="8.34" arrivalSpeed="9.40" duration="50.00" routeLength="186.81" waitingTime="17.00" waitingCount="1" stopTime="0.00" timeLoss="37.24" rerouteNo="0" devices="tripinfo_route_33.3" vType="car" speedFactor="0.99" vaporized=""/>
    <tripinfo id="route_32.0" depart="108.00" departLane="1235147073.116_0" departPos="0.46" departSpeed="0.00" departDelay="3.00" arrival="193.00" arrivalLane="-430406005#1_0" arrivalPos="87.77" arrivalSpeed="12.56" duration="85.00" routeLength="250.27" waitingTime="47.00" waitingCount="1" stopTime="0.00" timeLoss="68.89" rerouteNo="0" devices="tripinfo_route_32.0" vType="car" speedFactor="1.08" vaporized=""/>
    <tripinfo id="route_33.2" depart="137.00" departLane="1235147073.116_0" departPos="1.26" departSpeed="0.00" departDelay="28.20" arrival="194.00" arrivalLane="1369578054_1" arrivalPos="50.33" arrivalSpeed="12.16" duration="57.00" routeLength="228.80" waitingTime="19.00" waitingCount="1" stopTime="0.00" timeLoss="40.07" rerouteNo="0" devices="tripinfo_route_33.2" vType="car" speedFactor="0.89" vaporized=""/>
    <tripinfo id="route_31.4" depart="145.00" departLane="1235147073.116_0" departPos="4.45" departSpeed="0.00" departDelay="32.11" arrival="195.00" arrivalLane="133126030#0_1" arrivalPos="39.35" arrivalSpeed="10.97" duration="50.00" routeLength="209.42" waitingTime="14.00" waitingCount="1" stopTime="0.00" timeLoss="36.91" rerouteNo="0" devices="tripinfo_route_31.4" vType="car" speedFactor="1.09" vaporized=""/>
    <tripinfo id="route_33.0" depart="114.00" departLane="1235147073.116_0" departPos="4.63" departSpeed="0.00" departDelay="9.00" arrival="199.00" arrivalLane="1369578054_1" arrivalPos="176.77" arrivalSpeed="16.12" duration="85.00" routeLength="351.87" waitingTime="40.00" waitingCount="1" stopTime="0.00" timeLoss="62.58" rerouteNo="0" devices="tripinfo_route_33.0" vType="car" speedFactor="1.03" vaporized=""/>
    <tripinfo id="route_32.2" depart="139.00" departLane="1235147073.116_0" departPos="15.16" departSpeed="0.00" departDelay="29.28" arrival="199.00" arrivalLane="-430406005#1_0" arrivalPos="106.48" arrivalSpeed="14.54" duration="60.00" routeLength="254.28" waitingTime="20.00" waitingCount="1" stopTime="0.00" timeLoss="42.08" rerouteNo="0" devices="tripinfo_route_32.2" vType="car" speedFactor="0.92" vaporized=""/>
    <tripinfo id="route_33.1" depart="122.00" departLane="1235147073.116_0" departPos="1.98" departSpeed="0.00" departDelay="15.10" arrival="201.00" arrivalLane="1369578054_1" arrivalPos="189.81" arrivalSpeed="16.35" duration="79.00" routeLength="367.56" waitingTime="33.00" waitingCount="1" stopTime="0.00" timeLoss="56.25" rerouteNo="0" devices="tripinfo_route_33.1" vType="car" speedFactor="1.12" vaporized=""/>
    <tripinfo id="route_32.3" depart="151.00" departLane="1235147073.116_0" departPos="2.39" departSpeed="0.00" departDelay="38.91" arrival="202.00" arrivalLane="-430406005#1_0" arrivalPos="121.21" arrivalSpeed="15.08" duration="51.00" routeLength="281.77" waitingTime="9.00" waitingCount="1" stopTime="0.00" timeLoss="32.50" rerouteNo="0" devices="tripinfo_route_32.3" vType="car" speedFactor="1.04" vaporized=""/>
    <tripinfo id="route_33.4" depart="157.00" departLane="1235147073.116_0" departPos="6.17" departSpeed="0.00" departDelay="44.41" arrival="202.00" arrivalLane="1369578054_1" arrivalPos="126.81" arrivalSpeed="16.32" duration="45.00" routeLength="300.37" waitingTime="4.00" waitingCount="1" stopTime="0.00" timeLoss="25.78" rerouteNo="0" devices="tripinfo_route_33.4" vType="car" speedFactor="1.04" vaporized=""/>
    <tripinfo id="route_31.5" depart="160.00" departLane="1235147073.116_0" departPos="1.75" departSpeed="0.00" departDelay="45.14" arrival="202.00" arrivalLane="133126030#0_1" arrivalPos="106.29" arrivalSpeed="13.77" duration="42.00" routeLength="279.06" waitingTime="0.00" waitingCount="0" stopTime="0.00" timeLoss="21.50" rerouteNo="0" devices="tripinfo_route_31.5" vType="car" speedFactor="0.85" vaporized=""/>
    <tripinfo id="route_33.5" depart="168.00" departLane="1235147073.116_0" departPos="10.48" departSpeed="0.00" departDelay="53.51" arrival="204.00" arrivalLane="1369578054_1" arrivalPos="88.79" arrivalSpeed="14.41" duration="36.00" routeLength="258.04" waitingTime="0.00" waitingCount="0" stopTime="0.00" timeLoss="19.22" rerouteNo="0" devices="tripinfo_route_33.5" vType="car" speedFactor="1.02" vaporized=""/>
    <tripinfo id="route_31.6" depart="168.00" departLane="1235147073.116_0" departPos="2.07" departSpeed="0.00" departDelay="51.16" arrival="204.00" arrivalLane="133126030#0_1" arrivalPos="125.13" arrivalSpeed="16.40" duration="36.00" routeLength="297.58" waitingTime="0.00" waitingCount="0" stopTime="0.00" timeLoss="18.07" rerouteNo="0" devices="tripinfo_route_31.6" vType="car" speedFactor="1.08" vaporized=""/>
    <tripinfo id="route_32.4" depart="160.00" departLane="1235147073.116_0" departPos="14.11" departSpeed="0.00" departDelay="45.55" arrival="207.00" arrivalLane="-430406005#1_0" arrivalPos="173.50" arrivalSpeed="16.22" duration="47.00" routeLength="322.35" waitingTime="3.00" waitingCount="1" stopTime="0.00" timeLoss="26.10" rerouteNo="0" devices="tripinfo_route_32.4" vType="car" speedFactor="1.17" vaporized=""/>
    <tripinfo id="route_32.5" depart="171.00" departLane="1235147073.116_0" departPos="15.13" departSpeed="0.00" departDelay="54.19" arrival="208.00" arrivalLane="-430406005#1_0" arrivalPos="174.70" arrivalSpeed="16.59" duration="37.00" routeLength="322.53" waitingTime="0.00" waitingCount="0" stopTime="0.00" timeLoss="16.51" rerouteNo="0" devices="tripinfo_route_32.5" vType="car" speedFactor="1.12" vaporized=""/>
    <tripinfo id="route_31.7" depart="176.00" departLane="1235147073.116_0" departPos="5.93" departSpeed="0.00" departDelay="57.19" arrival="209.00" arrivalLane="133126030#0_0" arrivalPos="181.76" arrivalSpeed="16.17" duration="33.00" routeLength="350.35" waitingTime="0.00" waitingCount="0" stopTime="0.00" timeLoss="11.43" rerouteNo="0" devices="tripinfo_route_31.7" vType="car" speedFactor="1.02" vaporized=""/>
    <tripinfo id="route_33.6" depart="173.00" departLane="1235147073.116_0" departPos="1.02" departSpeed="0.00" departDelay="56.61" arrival="217.00" arrivalLane="1369578054_1" arrivalPos="253.34" arrivalSpeed="16.41" duration="44.00" routeLength="432.06" waitingTime="0.00" waitingCount="0" stopTime="0.00" timeLoss="16.52" rerouteNo="0" devices="tripinfo_route_33.6" vType="car" speedFactor="1.02" vaporized=""/>
    <tripinfo id="route_32.6" depart="184.00" departLane="1235147073.116_0" departPos="10.19" departSpeed="0.00" departDelay="64.83" arrival="218.00" arrivalLane="-430406005#1_0" arrivalPos="164.06" arrivalSpeed="16.44" duration="34.00" routeLength="316.83" waitingTime="0.00" waitingCount="0" stopTime="0.00" timeLoss="13.89" rerouteNo="0" devices="tripinfo_route_32.6" vType="car" speedFactor="1.03" vaporized=""/>
    <tripinfo id="route_31.8" depart="185.00" departLane="1235147073.116_0" departPos="2.79" departSpeed="0.00" departDelay="64.22" arrival="219.00" arrivalLane="133126030#0_1" arrivalPos="173.46" arrivalSpeed="16.23" duration="34.00" routeLength="345.20" waitingTime="0.00" waitingCount="0" stopTime="0.00" timeLoss="12.28" rerouteNo="0" devices="tripinfo_route_31.8" vType="car" speedFactor="1.00" vaporized=""/>
    <tripinfo id="route_33.7" depart="181.00" departLane="1235147073.116_0" departPos="6.90" departSpeed="0.00" departDelay="62.71" arrival="222.00" arrivalLane="1369578054_1" arrivalPos="265.84" arrivalSpeed="15.88" duration="41.00" routeLength="438.67" waitingTime="0.00" waitingCount="0" stopTime="0.00" timeLoss="12.42" rerouteNo="0" devices="tripinfo_route_33.7" vType="car" speedFactor="0.97" vaporized=""/>
    <tripinfo id="route_32.7" depart="192.00" departLane="1235147073.116_0" departPos="0.81" departSpeed="0.00" departDelay="70.47" arrival="223.00" arrivalLane="-430406005#1_0" arrivalPos="79.40" arrivalSpeed="13.32" duration="31.00" routeLength="241.55" waitingTime="0.00" waitingCount="0" stopTime="0.00" timeLoss="15.29" rerouteNo="0" devices="tripinfo_route_32.7" vType="car" speedFactor="0.98" vaporized=""/>
    <tripinfo id="route_31.9" depart="198.00" departLane="1235147073.116_0" departPos="0.15" departSpeed="0.00" departDelay="75.24" arrival="223.00" arrivalLane="133126030#0_0" arrivalPos="46.42" arrivalSpeed="13.70" duration="25.00" routeLength="220.78" waitingTime="0.00" waitingCount="0" stopTime="0.00" timeLoss="8.61" rerouteNo="0" devices="tripinfo_route_31.9" vType="car" speedFactor="0.83" vaporized=""/>
    <tripinfo id="route_34.3" depart="116.00" departLane="133126008#0_0" departPos="127.31" departSpeed="0.00" departDelay="4.18" arrival="233.00" arrivalLane="1369578054_1" arrivalPos="25.77" arrivalSpeed="9.74" duration="117.00" routeLength="111.83" waitingTime="91.00" waitingCount="1" stopTime="0.00" timeLoss="110.14" rerouteNo="0" devices="tripinfo_route_34.3" vType="car" speedFactor="0.97" vaporized=""/>
    <tripinfo id="route_33.8" depart="192.00" departLane="1235147073.116_0" departPos="10.10" departSpeed="0.00" departDelay="71.82" arrival="233.00" arrivalLane="1369578054_1" arrivalPos="234.93" arrivalSpeed="16.59" duration="41.00" routeLength="404.56" waitingTime="0.00" waitingCount="0" stopTime="0.00" timeLoss="15.27" rerouteNo="0" devices="tripinfo_route_33.8" vType="car" speedFactor="1.02" vaporized=""/>
    <tripinfo id="route_35.2" depart="114.00" departLane="133126008#0_0" departPos="111.59" departSpeed="0.00" departDelay="3.34" arrival="235.00" arrivalLane="133126030#0_0" arrivalPos="51.67" arrivalSpeed="10.36" duration="121.00" routeLength="127.60" waitingTime="92.00" waitingCount="1" stopTime="0.00" timeLoss="112.35" rerouteNo="0" devices="tripinfo_route_35.2" vType="car" speedFactor="1.02" vaporized=""/>
    <tripinfo id="route_34.5" depart="118.00" departLane="133126008#0_0" departPos="146.55" departSpeed="0.00" departDelay="1.64" arrival="235.00" arrivalLane="1369578054_0" arrivalPos="46.01" arrivalSpeed="10.66" duration="117.00" routeLength="112.82" waitingTime="93.00" waitingCount="1" stopTime="0.00" timeLoss="110.05" rerouteNo="0" devices="tripinfo_route_34.5" vType="car" speedFactor="0.99" vaporized=""/>
    <tripinfo id="route_29.2" depart="108.00" departLane="-422986370#2_0" departPos="99.24" departSpeed="0.00" departDelay="0.07" arrival="238.00" arrivalLane="-430406005#1_1" arrivalPos="42.28" arrivalSpeed="10.85" duration="130.00" routeLength="277.46" waitingTime="89.00" waitingCount="1" stopTime="0.00" timeLoss="112.20" rerouteNo="0" devices="tripinfo_route_29.2" vType="car" speedFactor="0.93" vaporized=""/>
    <tripinfo id="route_29.6" depart="120.00" departLane="-422986370#2_0" departPos="245.44" departSpeed="0.00" departDelay="6.22" arrival="240.00" arrivalLane="-430406005#1_0" arrivalPos="74.50" arrivalSpeed="13.07" duration="120.00" routeLength="163.50" waitingTime="84.00" waitingCount="1" stopTime="0.00" timeLoss="110.02" rerouteNo="0" devices="tripinfo_route_29.6" vType="car" speedFactor="1.09" vaporized=""/>
    <tripinfo id="route_29.9" depart="126.00" departLane="-422986370#2_0" departPos="271.05" departSpeed="0.00" departDelay="7.83" arrival="240.00" arrivalLane="-430406005#1_0" arrivalPos="98.09" arrivalSpeed="14.54" duration="114.00" routeLength="161.47" waitingTime="86.00" waitingCount="1" stopTime="0.00" timeLoss="103.41" rerouteNo="0" devices="tripinfo_route_29.9" vType="car" speedFactor="1.04" vaporized=""/>
    <tripinfo id="route_34.1" depart="108.00" departLane="133126008#0_0" departPos="23.09" departSpeed="0.00" departDelay="0.73" arrival="241.00" arrivalLane="1369578054_1" arrivalPos="90.42" arrivalSpeed="14.65" duration="133.00" routeLength="280.69" waitingTime="91.00" waitingCount="1" stopTime="0.00" timeLoss="115.09" rerouteNo="0" devices="tripinfo_route_34.1" vType="car" speedFactor="0.94" vaporized=""/>
    <tripinfo id="route_35.3" depart="116.00" departLane="133126008#0_0" departPos="66.33" departSpeed="0.00" departDelay="2.51" arrival="242.00" arrivalLane="133126030#0_0" arrivalPos="67.66" arrivalSpeed="11.68" duration="126.00" routeLength="188.86" waitingTime="91.00" waitingCount="1" stopTime="0.00" timeLoss="113.60" rerouteNo="0" devices="tripinfo_route_35.3" vType="car" speedFactor="1.00" vaporized=""/>
    <tripinfo id="route_35.5" depart="122.00" departLane="133126008#0_0" departPos="40.65" departSpeed="0.00" departDelay="2.85" arrival="242.00" arrivalLane="133126030#0_0" arrivalPos="2.16" arrivalSpeed="6.95" duration="120.00" routeLength="149.03" waitingTime="84.00" waitingCount="1" stopTime="0.00" timeLoss="110.08" rerouteNo="0" devices="tripinfo_route_35.5" vType="car" speedFactor="0.98" vaporized=""/>
    <tripinfo id="route_29.3" depart="110.00" departLane="-422986370#2_0" departPos="173.76" departSpeed="0.00" departDelay="0.61" arrival="243.00" arrivalLane="-430406005#1_0" arrivalPos="127.79" arrivalSpeed="15.66" duration="133.00" routeLength="288.46" waitingTime="90.00" waitingCount="1" stopTime="0.00" timeLoss="113.91" rerouteNo="0" devices="tripinfo_route_29.3" vType="car" speedFactor="0.87" vaporized=""/>
    <tripinfo id="route_29.8" depart="122.00" departLane="-422986370#2_0" departPos="29.27" departSpeed="0.00" departDelay="5.30" arrival="243.00" arrivalLane="-430406005#1_1" arrivalPos="7.61" arrivalSpeed="10.23" duration="121.00" routeLength="312.77" waitingTime="77.00" waitingCount="1" stopTime="0.00" timeLoss="101.76" rerouteNo="0" devices="tripinfo_route_29.8" vType="car" speedFactor="1.02" vaporized=""/>
    <tripinfo id="route_29.5" depart="114.00" departLane="-422986370#2_0" departPos="127.34" departSpeed="0.00" departDelay="1.69" arrival="244.00" arrivalLane="-430406005#1_1" arrivalPos="62.84" arrivalSpeed="13.04" duration="130.00" routeLength="269.93" waitingTime="83.00" waitingCount="1" stopTime="0.00" timeLoss="113.35" rerouteNo="0" devices="tripinfo_route_29.5" vType="car" speedFactor="1.03" vaporized=""/>