<?xml version="1.0" encoding="UTF-8"?>

<!-- generated on 2025-05-04 22:11:30 by Eclipse SUMO sumo Version 1.20.0
<configuration xmlns:xsi="http://www.w3.org/2001/XMLSchema-instance" xsi:noNamespaceSchemaLocation="http://sumo.dlr.de/xsd/sumoConfiguration.xsd">

    <input>
        <net-file value="config/osm.net.xml"/>
        <route-files value="draft/generated_0_093_5_069_0_649_7_027_102_.rou.xml"/>
    </input>

    <output>
        <tripinfo-output value="draft/tripinfo_0_093_5_069_0_649_7_027_102.xml"/>
    </output>

    <time>
        <step-length value="1"/>
    </time>

    <traci_server>
        <remote-port value="37047"/>
    </traci_server>

    <gui_only>
        <start value="true"/>
    </gui_only>

</configuration>
-->

<tripinfos xmlns:xsi="http://www.w3.org/2001/XMLSchema-instance" xsi:noNamespaceSchemaLocation="http://sumo.dlr.de/xsd/tripinfo_file.xsd">
    <tripinfo id="route_29.1" depart="104.00" departLane="-422986370#2_0" departPos="265.89" departSpeed="0.00" departDelay="0.54" arrival="118.00" arrivalLane="-430406005#1_1" arrivalPos="8.25" arrivalSpeed="11.07" duration="14.00" routeLength="76.79" waitingTime="0.00" waitingCount="0" stopTime="0.00" timeLoss="8.83" rerouteNo="0" devices="tripinfo_route_29.1" vType="car" speedFactor="1.09" vaporized=""/>
    <tripinfo id="route_34.0" depart="102.00" departLane="133126008#0_0" departPos="101.07" departSpeed="0.00" departDelay="0.00" arrival="120.00" arrivalLane="1369578054_1" arrivalPos="13.07" arrivalSpeed="13.82" duration="18.00" routeLength="125.36" waitingTime="0.00" waitingCount="0" stopTime="0.00" timeLoss="9.69" rerouteNo="0" devices="tripinfo_route_34.0" vType="car" speedFactor="0.83" vaporized=""/>
    <tripinfo id="route_29.4" depart="108.00" departLane="-422986370#2_0" departPos="297.23" departSpeed="0.00" departDelay="0.15" arrival="121.00" arrivalLane="-430406005#1_0" arrivalPos="32.75" arrivalSpeed="10.55" duration="13.00" routeLength="69.94" waitingTime="0.00" waitingCount="0" stopTime="0.00" timeLoss="8.55" rerouteNo="0" devices="tripinfo_route_29.4" vType="car" speedFactor="1.15" vaporized=""/>
    <tripinfo id="route_35.1" depart="106.00" departLane="133126008#0_0" departPos="144.87" departSpeed="0.00" departDelay="1.17" arrival="132.00" arrivalLane="133126030#0_0" arrivalPos="141.65" arrivalSpeed="15.12" duration="26.00" routeLength="184.30" waitingTime="0.00" waitingCount="0" stopTime="0.00" timeLoss="12.85" rerouteNo="0" devices="tripinfo_route_35.1" vType="car" speedFactor="0.94" vaporized=""/>
    <tripinfo id="route_30.0" depart="102.00" departLane="-422986370#2_0" departPos="201.60" departSpeed="0.00" departDelay="0.00" arrival="135.00" arrivalLane="137415945#0_0" arrivalPos="9.07" arrivalSpeed="15.19" duration="33.00" routeLength="253.29" waitingTime="0.00" waitingCount="0" stopTime="0.00" timeLoss="15.00" rerouteNo="0" devices="tripinfo_route_30.0" vType="car" speedFactor="0.94" vaporized=""/>
    <tripinfo id="route_34.2" depart="108.00" departLane="133126008#0_0" departPos="165.65" departSpeed="0.00" departDelay="1.46" arrival="136.00" arrivalLane="1369578054_0" arrivalPos="207.23" arrivalSpeed="15.68" duration="28.00" routeLength="254.95" waitingTime="0.00" waitingCount="0" stopTime="0.00" timeLoss="11.20" rerouteNo="0" devices="tripinfo_route_34.2" vType="car" speedFactor="0.95" vaporized=""/>
    <tripinfo id="route_38.2" depart="111.00" departLane="485211947#0_0" departPos="162.23" departSpeed="0.00" departDelay="4.39" arrival="145.00" arrivalLane="-430406005#1_1" arrivalPos="54.97" arrivalSpeed="10.84" duration="34.00" routeLength="105.72" waitingTime="11.00" waitingCount="1" stopTime="0.00" timeLoss="27.10" rerouteNo="0" devices="tripinfo_route_38.2" vType="car" speedFactor="1.18" vaporized=""/>
    <tripinfo id="route_38.3" depart="120.00" departLane="485211947#0_0" departPos="35.30" departSpeed="0.00" departDelay="11.08" arrival="148.00" arrivalLane="-430406005#1_1" arrivalPos="32.26" arrivalSpeed="9.99" duration="28.00" routeLength="209.94" waitingTime="0.00" waitingCount="0" stopTime="0.00" timeLoss="13.10" rerouteNo="0" devices="tripinfo_route_38.3" vType="car" speedFactor="0.90" vaporized=""/>
    <tripinfo id="route_37.0" depart="102.00" departLane="485211947#0_0" departPos="162.24" departSpeed="0.00" departDelay="0.00" arrival="149.00" arrivalLane="137415945#0_0" arrivalPos="6.94" arrivalSpeed="15.63" duration="47.00" routeLength="189.23" waitingTime="17.00" waitingCount="1" stopTime="0.00" timeLoss="34.31" rerouteNo="0" devices="tripinfo_route_37.0" vType="car" speedFactor="0.94" vaporized=""/>
    <tripinfo id="route_37.1" depart="105.00" departLane="485211947#0_0" departPos="76.22" departSpeed="0.00" departDelay="0.96" arrival="149.00" arrivalLane="137415945#0_1" arrivalPos="2.03" arrivalSpeed="15.18" duration="44.00" routeLength="270.34" waitingTime="4.00" waitingCount="1" stopTime="0.00" timeLoss="27.36" rerouteNo="0" devices="tripinfo_route_37.1" vType="car" speedFactor="1.16" vaporized=""/>
    <tripinfo id="route_36.0" depart="102.00" departLane="485211947#0_0" departPos="11.17" departSpeed="0.00" departDelay="0.00" arrival="150.00" arrivalLane="1369578054_0" arrivalPos="74.16" arrivalSpeed="12.74" duration="48.00" routeLength="260.46" waitingTime="3.00" waitingCount="1" stopTime="0.00" timeLoss="28.70" rerouteNo="0" devices="tripinfo_route_36.0" vType="car" speedFactor="0.89" vaporized=""/>
    <tripinfo id="route_38.1" depart="105.00" departLane="485211947#0_0" departPos="178.72" departSpeed="0.00" departDelay="0.69" arrival="151.00" arrivalLane="-430406005#1_1" arrivalPos="170.84" arrivalSpeed="16.29" duration="46.00" routeLength="205.10" waitingTime="18.00" waitingCount="1" stopTime="0.00" timeLoss="32.75" rerouteNo="0" devices="tripinfo_route_38.1" vType="car" speedFactor="1.02" vaporized=""/>
    <tripinfo id="route_37.2" depart="110.00" departLane="485211947#0_0" departPos="72.22" departSpeed="0.00" departDelay="3.92" arrival="151.00" arrivalLane="137415945#0_1" arrivalPos="12.22" arrivalSpeed="15.08" duration="41.00" routeLength="284.53" waitingTime="2.00" waitingCount="1" stopTime="0.00" timeLoss="22.56" rerouteNo="0" devices="tripinfo_route_37.2" vType="car" speedFactor="0.93" vaporized=""/>
    <tripinfo id="route_37.3" depart="117.00" departLane="485211947#0_0" departPos="21.19" departSpeed="0.00" departDelay="8.88" arrival="152.00" arrivalLane="137415945#0_1" arrivalPos="2.64" arrivalSpeed="16.28" duration="35.00" routeLength="325.98" waitingTime="0.00" waitingCount="0" stopTime="0.00" timeLoss="15.34" rerouteNo="0" devices="tripinfo_route_37.3" vType="car" speedFactor="1.10" vaporized=""/>
    <tripinfo id="route_38.0" depart="102.00" departLane="485211947#0_0" departPos="59.66" departSpeed="0.00" departDelay="0.00" arrival="153.00" arrivalLane="-430406005#1_1" arrivalPos="133.07" arrivalSpeed="15.82" duration="51.00" routeLength="286.39" waitingTime="10.00" waitingCount="1" stopTime="0.00" timeLoss="30.94" rerouteNo="0" devices="tripinfo_route_38.0" vType="car" speedFactor="0.86" vaporized=""/>
    <tripinfo id="route_36.2" depart="106.00" departLane="485211947#0_0" departPos="123.80" departSpeed="0.00" departDelay="0.67" arrival="153.00" arrivalLane="1369578054_0" arrivalPos="171.28" arrivalSpeed="13.27" duration="47.00" routeLength="244.94" waitingTime="10.00" waitingCount="1" stopTime="0.00" timeLoss="27.56" rerouteNo="0" devices="tripinfo_route_36.2" vType="car" speedFactor="0.83" vaporized=""/>
    <tripinfo id="route_37.4" depart="125.00" departLane="485211947#0_0" departPos="9.07" departSpeed="0.00" departDelay="14.84" arrival="157.00" arrivalLane="137415945#0_1" arrivalPos="0.30" arrivalSpeed="14.23" duration="32.00" routeLength="335.76" waitingTime="0.00" waitingCount="0" stopTime="0.00" timeLoss="9.00" rerouteNo="0" devices="tripinfo_route_37.4" vType="car" speedFactor="0.88" vaporized=""/>
    <tripinfo id="route_36.4" depart="114.00" departLane="485211947#0_0" departPos="51.38" departSpeed="0.00" departDelay="5.34" arrival="158.00" arrivalLane="1369578054_0" arrivalPos="169.94" arrivalSpeed="16.42" duration="44.00" routeLength="316.02" waitingTime="0.00" waitingCount="0" stopTime="0.00" timeLoss="23.59" rerouteNo="0" devices="tripinfo_route_36.4" vType="car" speedFactor="1.18" vaporized=""/>
    <tripinfo id="route_36.6" depart="136.00" departLane="485211947#0_0" departPos="117.75" departSpeed="0.00" departDelay="24.00" arrival="160.00" arrivalLane="1369578054_0" arrivalPos="102.74" arrivalSpeed="14.85" duration="24.00" routeLength="182.45" waitingTime="0.00" waitingCount="0" stopTime="0.00" timeLoss="12.09" rerouteNo="0" devices="tripinfo_route_36.6" vType="car" speedFactor="1.00" vaporized=""/>
    <tripinfo id="route_36.1" depart="104.00" departLane="485211947#0_0" departPos="100.86" departSpeed="0.00" departDelay="0.33" arrival="161.00" arrivalLane="1369578054_1" arrivalPos="281.37" arrivalSpeed="16.19" duration="57.00" routeLength="377.98" waitingTime="10.00" waitingCount="1" stopTime="0.00" timeLoss="32.69" rerouteNo="0" devices="tripinfo_route_36.1" vType="car" speedFactor="0.99" vaporized=""/>
    <tripinfo id="route_38.4" depart="136.00" departLane="485211947#0_0" departPos="95.85" departSpeed="0.00" departDelay="24.77" arrival="164.00" arrivalLane="-430406005#1_1" arrivalPos="124.92" arrivalSpeed="16.32" duration="28.00" routeLength="242.05" waitingTime="0.00" waitingCount="0" stopTime="0.00" timeLoss="12.58" rerouteNo="0" devices="tripinfo_route_38.4" vType="car" speedFactor="1.00" vaporized=""/>
    <tripinfo id="route_36.3" depart="108.00" departLane="485211947#0_0" departPos="12.41" departSpeed="0.00" departDelay="1.00" arrival="166.00" arrivalLane="1369578054_0" arrivalPos="280.18" arrivalSpeed="16.27" duration="58.00" routeLength="465.23" waitingTime="0.00" waitingCount="0" stopTime="0.00" timeLoss="29.41" rerouteNo="0" devices="tripinfo_route_36.3" vType="car" speedFactor="1.13" vaporized=""/>
    <tripinfo id="route_37.5" depart="139.00" departLane="485211947#0_0" departPos="48.01" departSpeed="0.00" departDelay="26.80" arrival="168.00" arrivalLane="137415945#0_1" arrivalPos="9.07" arrivalSpeed="16.27" duration="29.00" routeLength="305.59" waitingTime="0.00" waitingCount="0" stopTime="0.00" timeLoss="10.16" rerouteNo="0" devices="tripinfo_route_37.5" vType="car" speedFactor="1.14" vaporized=""/>
    <tripinfo id="route_36.5" depart="120.00" departLane="485211947#0_0" departPos="44.18" departSpeed="0.00" departDelay="9.67" arrival="171.00" arrivalLane="1369578054_0" arrivalPos="292.70" arrivalSpeed="14.59" duration="51.00" routeLength="445.98" waitingTime="0.00" waitingCount="0" stopTime="0.00" timeLoss="20.06" rerouteNo="0" devices="tripinfo_route_36.5" vType="car" speedFactor="0.90" vaporized=""/>
    <tripinfo id="route_38.5" depart="143.00" departLane="485211947#0_0" departPos="90.38" departSpeed="0.00" departDelay="29.47" arrival="173.00" arrivalLane="-430406005#1_1" arrivalPos="118.46" arrivalSpeed="15.48" duration="30.00" routeLength="241.06" waitingTime="0.00" waitingCount="0" stopTime="0.00" timeLoss="13.52" rerouteNo="0" devices="tripinfo_route_38.5" vType="car" speedFactor="0.91" vaporized=""/>
    <tripinfo id="route_37.6" depart="143.00" departLane="485211947#0_0" departPos="42.92" departSpeed="0.00" departDelay="28.76" arrival="174.00" arrivalLane="137415945#0_1" arrivalPos="7.30" arrivalSpeed="15.02" duration="31.00" routeLength="308.91" waitingTime="0.00" waitingCount="0" stopTime="0.00" timeLoss="10.14" rerouteNo="0" devices="tripinfo_route_37.6" vType="car" speedFactor="0.91" vaporized=""/>
    <tripinfo id="route_38.6" depart="148.00" departLane="485211947#0_0" departPos="29.56" departSpeed="0.00" departDelay="32.16" arrival="175.00" arrivalLane="-430406005#1_1" arrivalPos="29.91" arrivalSpeed="12.09" duration="27.00" routeLength="213.33" waitingTime="0.00" waitingCount="0" stopTime="0.00" timeLoss="12.23" rerouteNo="0" devices="tripinfo_route_38.6" vType="car" speedFactor="0.96" vaporized=""/>
    <tripinfo id="route_37.8" depart="154.00" departLane="485211947#0_0" departPos="172.91" departSpeed="0.00" departDelay="35.68" arrival="176.00" arrivalLane="137415945#0_0" arrivalPos="2.01" arrivalSpeed="15.71" duration="22.00" routeLength="173.63" waitingTime="0.00" waitingCount="0" stopTime="0.00" timeLoss="10.91" rerouteNo="0" devices="tripinfo_route_37.8" vType="car" speedFactor="1.01" vaporized=""/>
    <tripinfo id="route_36.9" depart="149.00" departLane="485211947#0_0" departPos="139.91" departSpeed="0.00" departDelay="32.01" arrival="177.00" arrivalLane="1369578054_0" arrivalPos="145.75" arrivalSpeed="16.16" duration="28.00" routeLength="203.30" waitingTime="0.00" waitingCount="0" stopTime="0.00" timeLoss="14.30" rerouteNo="0" devices="tripinfo_route_36.9" vType="car" speedFactor="1.01" vaporized=""/>
    <tripinfo id="route_37.7" depart="152.00" departLane="485211947#0_0" departPos="97.59" departSpeed="0.00" departDelay="35.72" arrival="179.00" arrivalLane="137415945#0_0" arrivalPos="11.57" arrivalSpeed="16.24" duration="27.00" routeLength="258.51" waitingTime="0.00" waitingCount="0" stopTime="0.00" timeLoss="11.31" rerouteNo="0" devices="tripinfo_route_37.7" vType="car" speedFactor="1.09" vaporized=""/>
    <tripinfo id="route_36.7" depart="139.00" departLane="485211947#0_0" departPos="22.18" departSpeed="0.00" departDelay="25.34" arrival="181.00" arrivalLane="1369578054_0" arrivalPos="103.24" arrivalSpeed="14.50" duration="42.00" routeLength="278.52" waitingTime="0.00" waitingCount="0" stopTime="0.00" timeLoss="22.13" rerouteNo="0" devices="tripinfo_route_36.7" vType="car" speedFactor="0.88" vaporized=""/>
    <tripinfo id="route_31.0" depart="102.00" departLane="1235147073.116_0" departPos="7.14" departSpeed="0.00" departDelay="0.00" arrival="185.00" arrivalLane="133126030#0_0" arrivalPos="8.43" arrivalSpeed="7.47" duration="83.00" routeLength="175.81" waitingTime="53.00" waitingCount="1" stopTime="0.00" timeLoss="72.12" rerouteNo="0" devices="tripinfo_route_31.0" vType="car" speedFactor="1.01" vaporized=""/>
    <tripinfo id="route_36.8" depart="147.00" departLane="485211947#0_0" departPos="101.49" departSpeed="0.00" departDelay="31.67" arrival="186.00" arrivalLane="1369578054_0" arrivalPos="270.68" arrivalSpeed="16.18" duration="39.00" routeLength="366.66" waitingTime="0.00" waitingCount="0" stopTime="0.00" timeLoss="16.02" rerouteNo="0" devices="tripinfo_route_36.8" vType="car" speedFactor="1.06" vaporized=""/>
    <tripinfo id="route_32.1" depart="123.00" departLane="1235147073.116_0" departPos="3.53" departSpeed="0.00" departDelay="18.64" arrival="187.00" arrivalLane="-430406005#1_0" arrivalPos="5.79" arrivalSpeed="6.41" duration="64.00" routeLength="165.22" waitingTime="34.00" waitingCount="1" stopTime="0.00" timeLoss="51.58" rerouteNo="0" devices="tripinfo_route_32.1" vType="car" speedFactor="0.88" vaporized=""/>
    <tripinfo id="route_31.1" depart="114.00" departLane="1235147073.116_0" departPos="6.60" departSpeed="0.00" departDelay="10.03" arrival="190.00" arrivalLane="133126030#0_0" arrivalPos="56.90" arrivalSpeed="11.15" duration="76.00" routeLength="224.82" waitingTime="40.00" waitingCount="1" stopTime="0.00" timeLoss="61.96" rerouteNo="0" devices="tripinfo_route_31.1" vType="car" speedFactor="1.05" vaporized=""/>
    <tripinfo id="route_31.2" depart="127.00" departLane="1235147073.116_0" departPos="2.35" departSpeed="0.00" departDelay="21.05" arrival="191.00" arrivalLane="133126030#0_1" arrivalPos="41.34" arrivalSpeed="10.82" duration="64.00" routeLength="213.51" waitingTime="28.00" waitingCount="2" stopTime="0.00" timeLoss="50.40" rerouteNo="0" devices="tripinfo_route_31.2" vType="car" speedFactor="0.97" vaporized=""/>
    <tripinfo id="route_31.3" depart="137.00" departLane="1235147073.116_0" departPos="0.22" departSpeed="0.00" departDelay="29.08" arrival="192.00" arrivalLane="133126030#0_1" arrivalPos="28.13" arrivalSpeed="10.05" duration="55.00" routeLength="202.43" waitingTime="20.00" waitingCount="1" stopTime="0.00" timeLoss="42.28" rerouteNo="0" devices="tripinfo_route_31.3" vType="car" speedFactor="1.17" vaporized=""/>
    <tripinfo id="route_33.3" depart="142.00" departLane="1235147073.116_0" departPos="1.26" departSpeed="0.00" departDelay="34.31" arrival="192.00" arrivalLane="1369578054_1" arrivalPos="8.34" arrivalSpeed="8.90" duration="50.00" routeLength="186.81" waitingTime="16.00" waitingCount="1" stopTime="0.00" timeLoss="37.86" rerouteNo="0" devices="tripinfo_route_33.3" vType="car" speedFactor="0.99" vaporized=""/>
    <tripinfo id="route_36.10" depart="154.00" departLane="485211947#0_0" departPos="56.78" departSpeed="0.00" departDelay="35.34" arrival="192.00" arrivalLane="1369578054_0" arrivalPos="240.24" arrivalSpeed="16.38" duration="38.00" routeLength="380.92" waitingTime="0.00" waitingCount="0" stopTime="0.00" timeLoss="13.80" rerouteNo="0" devices="tripinfo_route_36.10" vType="car" speedFactor="1.04" vaporized=""/>
    <tripinfo id="route_33.2" depart="134.00" departLane="1235147073.116_0" departPos="1.26" departSpeed="0.00" departDelay="28.20" arrival="193.00" arrivalLane="1369578054_1" arrivalPos="50.33" arrivalSpeed="11.82" duration="59.00" routeLength="228.80" waitingTime="23.00" waitingCount="1" stopTime="0.00" timeLoss="42.63" rerouteNo="0" devices="tripinfo_route_33.2" vType="car" speedFactor="0.89" vaporized=""/>
    <tripinfo id="route_32.0" depart="105.00" departLane="1235147073.116_0" departPos="0.46" departSpeed="0.00" departDelay="3.00" arrival="194.00" arrivalLane="-430406005#1_0" arrivalPos="87.77" arrivalSpeed="13.46" duration="89.00" routeLength="250.27" waitingTime="50.00" waitingCount="1" stopTime="0.00" timeLoss="72.43" rerouteNo="0" devices="tripinfo_route_32.0" vType="car" speedFactor="1.08" vaporized=""/>
    <tripinfo id="route_31.4" depart="145.00" departLane="1235147073.116_0" departPos="8.59" departSpeed="0.00" departDelay="35.11" arrival="194.00" arrivalLane="133126030#0_1" arrivalPos="39.35" arrivalSpeed="11.13" duration="49.00" routeLength="205.28" waitingTime="15.00" waitingCount="1" stopTime="0.00" timeLoss="36.61" rerouteNo="0" devices="tripinfo_route_31.4" vType="car" speedFactor="1.09" vaporized=""/>
    <tripinfo id="route_33.0" depart="111.00" departLane="1235147073.116_0" departPos="4.63" departSpeed="0.00" departDelay="9.00" arrival="198.00" arrivalLane="1369578054_1" arrivalPos="176.77" arrivalSpeed="16.30" duration="87.00" routeLength="351.87" waitingTime="43.00" waitingCount="1" stopTime="0.00" timeLoss="64.65" rerouteNo="0" devices="tripinfo_route_33.0" vType="car" speedFactor="1.03" vaporized=""/>
    <tripinfo id="route_32.2" depart="136.00" departLane="1235147073.116_0" departPos="13.11" departSpeed="0.00" departDelay="29.28" arrival="199.00" arrivalLane="-430406005#1_0" arrivalPos="106.48" arrivalSpeed="13.76" duration="63.00" routeLength="256.33" waitingTime="24.00" waitingCount="1" stopTime="0.00" timeLoss="45.60" rerouteNo="0" devices="tripinfo_route_32.2" vType="car" speedFactor="0.92" vaporized=""/>
    <tripinfo id="route_33.1" depart="119.00" departLane="1235147073.116_0" departPos="1.98" departSpeed="0.00" departDelay="15.10" arrival="201.00" arrivalLane="1369578054_1" arrivalPos="189.81" arrivalSpeed="16.26" duration="82.00" routeLength="367.56" waitingTime="36.00" waitingCount="1" stopTime="0.00" timeLoss="58.37" rerouteNo="0" devices="tripinfo_route_33.1" vType="car" speedFactor="1.12" vaporized=""/>
    <tripinfo id="route_31.5" depart="157.00" departLane="1235147073.116_0" departPos="3.75" departSpeed="0.00" departDelay="45.14" arrival="201.00" arrivalLane="133126030#0_1" arrivalPos="106.29" arrivalSpeed="14.08" duration="44.00" routeLength="277.06" waitingTime="3.00" waitingCount="1" stopTime="0.00" timeLoss="24.36" rerouteNo="0" devices="tripinfo_route_31.5" vType="car" speedFactor="0.85" vaporized=""/>
    <tripinfo id="route_32.3" depart="150.00" departLane="1235147073.116_0" departPos="3.65" departSpeed="0.00" departDelay="40.91" arrival="202.00" arrivalLane="-430406005#1_0" arrivalPos="121.21" arrivalSpeed="15.41" duration="52.00" routeLength="280.52" waitingTime="8.00" waitingCount="1" stopTime="0.00" timeLoss="33.68" rerouteNo="0" devices="tripinfo_route_32.3" vType="car" speedFactor="1.04" vaporized=""/>
    <tripinfo id="route_33.4" depart="152.00" departLane="1235147073.116_0" departPos="15.04" departSpeed="0.00" departDelay="42.41" arrival="203.00" arrivalLane="1369578054_1" arrivalPos="126.81" arrivalSpeed="16.16" duration="51.00" routeLength="291.51" waitingTime="10.00" waitingCount="1" stopTime="0.00" timeLoss="32.52" rerouteNo="0" devices="tripinfo_route_33.4" vType="car" speedFactor="1.04" vaporized=""/>
    <tripinfo id="route_33.5" depart="169.00" departLane="1235147073.116_0" departPos="0.70" departSpeed="0.00" departDelay="57.51" arrival="203.00" arrivalLane="1369578054_1" arrivalPos="88.79" arrivalSpeed="14.72" duration="34.00" routeLength="267.82" waitingTime="0.00" waitingCount="0" stopTime="0.00" timeLoss="16.82" rerouteNo="0" devices="tripinfo_route_33.5" vType="car" speedFactor="1.02" vaporized=""/>
    <tripinfo id="route_31.6" depart="170.00" departLane="1235147073.116_0" departPos="12.73" departSpeed="0.00" departDelay="56.16" arrival="204.00" arrivalLane="133126030#0_1" arrivalPos="125.13" arrivalSpeed="15.98" duration="34.00" routeLength="286.93" waitingTime="0.00" waitingCount="0" stopTime="0.00" timeLoss="16.29" rerouteNo="0" devices="tripinfo_route_31.6" vType="car" speedFactor="1.08" vaporized=""/>
    <tripinfo id="route_32.4" depart="164.00" departLane="1235147073.116_0" departPos="3.87" departSpeed="0.00" departDelay="52.55" arrival="207.00" arrivalLane="-430406005#1_0" arrivalPos="173.50" arrivalSpeed="16.43" duration="43.00" routeLength="332.58" waitingTime="0.00" waitingCount="0" stopTime="0.00" timeLoss="21.54" rerouteNo="0" devices="tripinfo_route_32.4" vType="car" speedFactor="1.17" vaporized=""/>
    <tripinfo id="route_32.5" depart="172.00" departLane="1235147073.116_0" departPos="5.38" departSpeed="0.00" departDelay="58.19" arrival="209.00" arrivalLane="-430406005#1_0" arrivalPos="174.70" arrivalSpeed="16.15" duration="37.00" routeLength="332.28" waitingTime="0.00" waitingCount="0" stopTime="0.00" timeLoss="15.20" rerouteNo="0" devices="tripinfo_route_32.5" vType="car" speedFactor="1.12" vaporized=""/>
    <tripinfo id="route_31.7" depart="178.00" departLane="1235147073.116_0" departPos="0.06" departSpeed="0.00" departDelay="62.19" arrival="215.00" arrivalLane="133126030#0_0" arrivalPos="181.76" arrivalSpeed="16.36" duration="37.00" routeLength="356.22" waitingTime="0.00" waitingCount="0" stopTime="0.00" timeLoss="14.64" rerouteNo="0" devices="tripinfo_route_31.7" vType="car" speedFactor="1.02" vaporized=""/>
    <tripinfo id="route_33.6" depart="177.00" departLane="1235147073.116_0" departPos="7.06" departSpeed="0.00" departDelay="63.61" arrival="219.00" arrivalLane="1369578054_1" arrivalPos="253.34" arrivalSpeed="16.33" duration="42.00" routeLength="426.02" waitingTime="0.00" waitingCount="0" stopTime="0.00" timeLoss="14.76" rerouteNo="0" devices="tripinfo_route_33.6" vType="car" speedFactor="1.02" vaporized=""/>
    <tripinfo id="route_31.8" depart="188.00" departLane="1235147073.116_0" departPos="8.67" departSpeed="0.00" departDelay="70.22" arrival="221.00" arrivalLane="133126030#0_0" arrivalPos="173.46" arrivalSpeed="16.42" duration="33.00" routeLength="339.31" waitingTime="0.00" waitingCount="0" stopTime="0.00" timeLoss="12.22" rerouteNo="0" devices="tripinfo_route_31.8" vType="car" speedFactor="1.00" vaporized=""/>
    <tripinfo id="route_33.7" depart="180.00" departLane="1235147073.116_0" departPos="9.88" departSpeed="0.00" departDelay="64.71" arrival="223.00" arrivalLane="1369578054_1" arrivalPos="265.84" arrivalSpeed="16.13" duration="43.00" routeLength="435.69" waitingTime="0.00" waitingCount="0" stopTime="0.00" timeLoss="15.12" rerouteNo="0" devices="tripinfo_route_33.7" vType="car" speedFactor="0.97" vaporized=""/>
    <tripinfo id="route_32.6" depart="188.00" departLane="1235147073.116_0" departPos="0.74" departSpeed="0.00" departDelay="71.83" arrival="225.00" arrivalLane="-430406005#1_0" arrivalPos="164.06" arrivalSpeed="16.51" duration="37.00" routeLength="326.28" waitingTime="0.00" waitingCount="0" stopTime="0.00" timeLoss="16.09" rerouteNo="0" devices="tripinfo_route_32.6" vType="car" speedFactor="1.03" vaporized=""/>
    <tripinfo id="route_32.7" depart="198.00" departLane="1235147073.116_0" departPos="8.02" departSpeed="0.00" departDelay="79.47" arrival="227.00" arrivalLane="-430406005#1_0" arrivalPos="79.40" arrivalSpeed="13.65" duration="29.00" routeLength="234.34" waitingTime="0.00" waitingCount="0" stopTime="0.00" timeLoss="12.93" rerouteNo="0" devices="tripinfo_route_32.7" vType="car" speedFactor="0.98" vaporized=""/>
    <tripinfo id="route_34.3" depart="113.00" departLane="133126008#0_0" departPos="127.31" departSpeed="0.00" departDelay="4.18" arrival="233.00" arrivalLane="1369578054_1" arrivalPos="25.77" arrivalSpeed="10.06" duration="120.00" routeLength="111.83" waitingTime="94.00" waitingCount="1" stopTime="0.00" timeLoss="113.10" rerouteNo="0" devices="tripinfo_route_34.3" vType="car" speedFactor="0.97" vaporized=""/>
    <tripinfo id="route_33.8" depart="195.00" departLane="1235147073.116_0" departPos="0.68" departSpeed="0.00" departDelay="77.82" arrival="234.00" arrivalLane="1369578054_1" arrivalPos="234.93" arrivalSpeed="16.40" duration="39.00" routeLength="413.98" waitingTime="0.00" waitingCount="0" stopTime="0.00" timeLoss="13.13" rerouteNo="0" devices="tripinfo_route_33.8" vType="car" speedFactor="1.02" vaporized=""/>
    <tripinfo id="route_35.2" depart="111.00" departLane="133126008#0_0" departPos="111.59" departSpeed="0.00" departDelay="3.34" arrival="236.00" arrivalLane="133126030#0_0" arrivalPos="51.67" arrivalSpeed="9.35" duration="125.00" routeLength="127.60" waitingTime="95.00" waitingCount="1" stopTime="0.00" timeLoss="116.59" rerouteNo="0" devices="tripinfo_route_35.2" vType="car" speedFactor="1.02" vaporized=""/>
    <tripinfo id="route_34.5" depart="115.00" departLane="133126008#0_0" departPos="146.55" departSpeed="0.00" departDelay="1.64" arrival="236.00" arrivalLane="1369578054_0" arrivalPos="46.01" arrivalSpeed="11.81" duration="121.00" routeLength="112.82" waitingTime="96.00" waitingCount="1" stopTime="0.00" timeLoss="113.54" rerouteNo="0" devices="tripinfo_route_34.5" vType="car" speedFactor="0.99" vaporized=""/>
    <tripinfo id="route_29.2" depart="105.00" departLane="-422986370#2_0" departPos="99.24" departSpeed="0.00" departDelay="0.07" arrival="238.00" arrivalLane="-430406005#1_1" arrivalPos="42.28" arrivalSpeed="11.10" duration="133.00" routeLength="277.46" waitingTime="92.00" waitingCount="1" stopTime="0.00" timeLoss="114.92" rerouteNo="0" devices="tripinfo_route_29.2" vType="car" speedFactor="0.93" vaporized=""/>
    <tripinfo id="route_29.6" depart="117.00" departLane="-422986370#2_0" departPos="245.44" departSpeed="0.00" departDelay="6.22" arrival="240.00" arrivalLane="-430406005#1_0" arrivalPos="74.50" arrivalSpeed="12.96" duration="123.00" routeLength="163.50" waitingTime="87.00" waitingCount="1" stopTime="0.00" timeLoss="112.79" rerouteNo="0" devices="tripinfo_route_29.6" vType="car" speedFactor="1.09" vaporized=""/>
    <tripinfo id="route_29.9" depart="123.00" departLane="-422986370#2_0" departPos="271.05" departSpeed="0.00" departDelay="7.83" arrival="240.00" arrivalLane="-430406005#1_0" arrivalPos="98.09" arrivalSpeed="14.71" duration="117.00" routeLength="161.47" waitingTime="89.00" waitingCount="1" stopTime="0.00" timeLoss="106.77" rerouteNo="0" devices="tripinfo_route_29.9" vType="car" speedFactor="1.04" vaporized=""/>
    <tripinfo id="route_34.1" depart="105.00" departLane="133126008#0_0" departPos="23.09" departSpeed="0.00" departDelay="0.73" arrival="241.00" arrivalLane="1369578054_1" arrivalPos="90.42" arrivalSpeed="14.40" duration="136.00" routeLength="280.69" waitingTime="94.00" waitingCount="1" stopTime="0.00" timeLoss="118.01" rerouteNo="0" devices="tripinfo_route_34.1" vType="car" speedFactor="0.94" vaporized=""/>
    <tripinfo id="route_29.3" depart="107.00" departLane="-422986370#2_0" departPos="173.76" departSpeed="0.00" departDelay="0.61" arrival="242.00" arrivalLane="-430406005#1_0" arrivalPos="127.79" arrivalSpeed="16.01" duration="135.00" routeLength="288.46" waitingTime="93.00" waitingCount="1" stopTime="0.00" timeLoss="115.88" rerouteNo="0" devices="tripinfo_route_29.3" vType="car" speedFactor="0.87" vaporized=""/>
    <tripinfo id="route_35.3" depart="113.00" departLane="133126008#0_0" departPos="66.33" departSpeed="0.00" departDelay="2.51" arrival="242.00" arrivalLane="133126030#0_0" arrivalPos="67.66" arrivalSpeed="11.59" duration="129.00" routeLength="188.86" waitingTime="94.00" waitingCount="1" stopTime="0.00" timeLoss="116.37" rerouteNo="0" devices="tripinfo_route_35.3" vType="car" speedFactor="1.00" vaporized=""/>
    <tripinfo id="route_35.5" depart="119.00" departLane="133126008#0_0" departPos="40.65" departSpeed="0.00" departDelay="2.85" arrival="242.00" arrivalLane="133126030#0_0" arrivalPos="2.16" arrivalSpeed="6.12" duration="123.00" routeLength="149.03" waitingTime="88.00" waitingCount="1" stopTime="0.00" timeLoss="112.70" rerouteNo="0" devices="tripinfo_route_35.5" vType="car" speedFactor="0.98" vaporized=""/>
    <tripinfo id="route_29.8" depart="119.00" departLane="-422986370#2_0" departPos="29.27" departSpeed="0.00" departDelay="5.30" arrival="243.00" arrivalLane="-430406005#1_1" arrivalPos="7.61" arrivalSpeed="11.12" duration="124.00" routeLength="312.77" waitingTime="79.00" waitingCount="1" stopTime="0.00" timeLoss="104.64" rerouteNo="0" devices="tripinfo_route_29.8" vType="car" speedFactor="1.02" vaporized=""/>