<?xml version="1.0" encoding="UTF-8"?>

<!-- generated on 2025-05-04 22:11:35 by Eclipse SUMO sumo Version 1.20.0
<configuration xmlns:xsi="http://www.w3.org/2001/XMLSchema-instance" xsi:noNamespaceSchemaLocation="http://sumo.dlr.de/xsd/sumoConfiguration.xsd">

    <input>
        <net-file value="config/osm.net.xml"/>
        <route-files value="draft/generated_0_093_5_069_0_649_7_027_108_.rou.xml"/>
    </input>

    <output>
        <tripinfo-output value="draft/tripinfo_0_093_5_069_0_649_7_027_108.xml"/>
    </output>

    <time>
        <step-length value="1"/>
    </time>

    <traci_server>
        <remote-port value="56957"/>
    </traci_server>

    <gui_only>
        <start value="true"/>
    </gui_only>

</configuration>
-->

<tripinfos xmlns:xsi="http://www.w3.org/2001/XMLSchema-instance" xsi:noNamespaceSchemaLocation="http://sumo.dlr.de/xsd/tripinfo_file.xsd">
    <tripinfo id="route_29.1" depart="110.00" departLane="-422986370#2_0" departPos="265.89" departSpeed="0.00" departDelay="0.54" arrival="124.00" arrivalLane="-430406005#1_1" arrivalPos="8.25" arrivalSpeed="11.07" duration="14.00" routeLength="76.79" waitingTime="0.00" waitingCount="0" stopTime="0.00" timeLoss="8.83" rerouteNo="0" devices="tripinfo_route_29.1" vType="car" speedFactor="1.09" vaporized=""/>
    <tripinfo id="route_34.0" depart="108.00" departLane="133126008#0_0" departPos="101.07" departSpeed="0.00" departDelay="0.00" arrival="126.00" arrivalLane="1369578054_1" arrivalPos="13.07" arrivalSpeed="13.82" duration="18.00" routeLength="125.36" waitingTime="0.00" waitingCount="0" stopTime="0.00" timeLoss="9.69" rerouteNo="0" devices="tripinfo_route_34.0" vType="car" speedFactor="0.83" vaporized=""/>
    <tripinfo id="route_29.4" depart="114.00" departLane="-422986370#2_0" departPos="297.23" departSpeed="0.00" departDelay="0.15" arrival="127.00" arrivalLane="-430406005#1_0" arrivalPos="32.75" arrivalSpeed="10.55" duration="13.00" routeLength="69.94" waitingTime="0.00" waitingCount="0" stopTime="0.00" timeLoss="8.55" rerouteNo="0" devices="tripinfo_route_29.4" vType="car" speedFactor="1.15" vaporized=""/>
    <tripinfo id="route_35.1" depart="112.00" departLane="133126008#0_0" departPos="144.87" departSpeed="0.00" departDelay="1.17" arrival="138.00" arrivalLane="133126030#0_0" arrivalPos="141.65" arrivalSpeed="15.29" duration="26.00" routeLength="184.30" waitingTime="0.00" waitingCount="0" stopTime="0.00" timeLoss="12.84" rerouteNo="0" devices="tripinfo_route_35.1" vType="car" speedFactor="0.94" vaporized=""/>
    <tripinfo id="route_37.1" depart="111.00" departLane="485211947#0_0" departPos="76.22" departSpeed="0.00" departDelay="0.96" arrival="142.00" arrivalLane="137415945#0_1" arrivalPos="2.03" arrivalSpeed="16.53" duration="31.00" routeLength="270.34" waitingTime="0.00" waitingCount="0" stopTime="0.00" timeLoss="14.42" rerouteNo="0" devices="tripinfo_route_37.1" vType="car" speedFactor="1.16" vaporized=""/>
    <tripinfo id="route_34.2" depart="114.00" departLane="133126008#0_0" departPos="165.65" departSpeed="0.00" departDelay="1.46" arrival="142.00" arrivalLane="1369578054_0" arrivalPos="207.23" arrivalSpeed="15.79" duration="28.00" routeLength="254.95" waitingTime="0.00" waitingCount="0" stopTime="0.00" timeLoss="11.20" rerouteNo="0" devices="tripinfo_route_34.2" vType="car" speedFactor="0.95" vaporized=""/>
    <tripinfo id="route_37.2" depart="116.00" departLane="485211947#0_0" departPos="72.22" departSpeed="0.00" departDelay="3.92" arrival="145.00" arrivalLane="137415945#0_1" arrivalPos="12.22" arrivalSpeed="15.30" duration="29.00" routeLength="284.53" waitingTime="0.00" waitingCount="0" stopTime="0.00" timeLoss="9.95" rerouteNo="0" devices="tripinfo_route_37.2" vType="car" speedFactor="0.93" vaporized=""/>
    <tripinfo id="route_38.2" depart="117.00" departLane="485211947#0_0" departPos="162.23" departSpeed="0.00" departDelay="4.39" arrival="146.00" arrivalLane="-430406005#1_1" arrivalPos="54.97" arrivalSpeed="10.96" duration="29.00" routeLength="105.72" waitingTime="5.00" waitingCount="1" stopTime="0.00" timeLoss="21.61" rerouteNo="0" devices="tripinfo_route_38.2" vType="car" speedFactor="1.18" vaporized=""/>
    <tripinfo id="route_36.0" depart="108.00" departLane="485211947#0_0" departPos="11.17" departSpeed="0.00" departDelay="0.00" arrival="150.00" arrivalLane="1369578054_0" arrivalPos="74.16" arrivalSpeed="13.02" duration="42.00" routeLength="260.46" waitingTime="0.00" waitingCount="0" stopTime="0.00" timeLoss="22.82" rerouteNo="0" devices="tripinfo_route_36.0" vType="car" speedFactor="0.89" vaporized=""/>
    <tripinfo id="route_37.0" depart="108.00" departLane="485211947#0_0" departPos="162.24" departSpeed="0.00" departDelay="0.00" arrival="150.00" arrivalLane="137415945#0_0" arrivalPos="6.94" arrivalSpeed="15.19" duration="42.00" routeLength="189.23" waitingTime="11.00" waitingCount="1" stopTime="0.00" timeLoss="28.97" rerouteNo="0" devices="tripinfo_route_37.0" vType="car" speedFactor="0.94" vaporized=""/>
    <tripinfo id="route_38.1" depart="111.00" departLane="485211947#0_0" departPos="178.72" departSpeed="0.00" departDelay="0.69" arrival="152.00" arrivalLane="-430406005#1_1" arrivalPos="170.84" arrivalSpeed="16.29" duration="41.00" routeLength="205.10" waitingTime="12.00" waitingCount="1" stopTime="0.00" timeLoss="27.38" rerouteNo="0" devices="tripinfo_route_38.1" vType="car" speedFactor="1.02" vaporized=""/>
    <tripinfo id="route_38.0" depart="108.00" departLane="485211947#0_0" departPos="59.66" departSpeed="0.00" departDelay="0.00" arrival="153.00" arrivalLane="-430406005#1_1" arrivalPos="133.07" arrivalSpeed="15.31" duration="45.00" routeLength="286.39" waitingTime="4.00" waitingCount="1" stopTime="0.00" timeLoss="25.07" rerouteNo="0" devices="tripinfo_route_38.0" vType="car" speedFactor="0.86" vaporized=""/>
    <tripinfo id="route_36.2" depart="112.00" departLane="485211947#0_0" departPos="123.80" departSpeed="0.00" departDelay="0.67" arrival="153.00" arrivalLane="1369578054_0" arrivalPos="171.28" arrivalSpeed="13.67" duration="41.00" routeLength="244.94" waitingTime="4.00" waitingCount="1" stopTime="0.00" timeLoss="21.46" rerouteNo="0" devices="tripinfo_route_36.2" vType="car" speedFactor="0.83" vaporized=""/>
    <tripinfo id="route_38.3" depart="126.00" departLane="485211947#0_0" departPos="35.30" departSpeed="0.00" departDelay="11.08" arrival="155.00" arrivalLane="-430406005#1_1" arrivalPos="32.26" arrivalSpeed="11.30" duration="29.00" routeLength="209.94" waitingTime="0.00" waitingCount="0" stopTime="0.00" timeLoss="13.64" rerouteNo="0" devices="tripinfo_route_38.3" vType="car" speedFactor="0.90" vaporized=""/>
    <tripinfo id="route_36.4" depart="120.00" departLane="485211947#0_0" departPos="51.38" departSpeed="0.00" departDelay="5.34" arrival="158.00" arrivalLane="1369578054_0" arrivalPos="169.94" arrivalSpeed="16.45" duration="38.00" routeLength="316.02" waitingTime="0.00" waitingCount="0" stopTime="0.00" timeLoss="18.05" rerouteNo="0" devices="tripinfo_route_36.4" vType="car" speedFactor="1.18" vaporized=""/>
    <tripinfo id="route_36.1" depart="110.00" departLane="485211947#0_0" departPos="100.86" departSpeed="0.00" departDelay="0.33" arrival="161.00" arrivalLane="1369578054_0" arrivalPos="281.37" arrivalSpeed="16.32" duration="51.00" routeLength="377.98" waitingTime="4.00" waitingCount="1" stopTime="0.00" timeLoss="27.27" rerouteNo="0" devices="tripinfo_route_36.1" vType="car" speedFactor="0.99" vaporized=""/>
    <tripinfo id="route_37.3" depart="123.00" departLane="485211947#0_0" departPos="21.19" departSpeed="0.00" departDelay="8.88" arrival="161.00" arrivalLane="137415945#0_1" arrivalPos="2.64" arrivalSpeed="16.29" duration="38.00" routeLength="325.98" waitingTime="0.00" waitingCount="0" stopTime="0.00" timeLoss="18.13" rerouteNo="0" devices="tripinfo_route_37.3" vType="car" speedFactor="1.10" vaporized=""/>
    <tripinfo id="route_37.4" depart="131.00" departLane="485211947#0_0" departPos="9.07" departSpeed="0.00" departDelay="14.84" arrival="164.00" arrivalLane="137415945#0_1" arrivalPos="0.30" arrivalSpeed="14.25" duration="33.00" routeLength="335.76" waitingTime="0.00" waitingCount="0" stopTime="0.00" timeLoss="9.55" rerouteNo="0" devices="tripinfo_route_37.4" vType="car" speedFactor="0.88" vaporized=""/>
    <tripinfo id="route_36.3" depart="114.00" departLane="485211947#0_0" departPos="12.41" departSpeed="0.00" departDelay="1.00" arrival="166.00" arrivalLane="1369578054_0" arrivalPos="280.18" arrivalSpeed="16.38" duration="52.00" routeLength="465.23" waitingTime="0.00" waitingCount="0" stopTime="0.00" timeLoss="23.41" rerouteNo="0" devices="tripinfo_route_36.3" vType="car" speedFactor="1.13" vaporized=""/>
    <tripinfo id="route_38.5" depart="142.00" departLane="485211947#0_0" departPos="117.75" departSpeed="0.00" departDelay="22.47" arrival="168.00" arrivalLane="-430406005#1_1" arrivalPos="118.46" arrivalSpeed="16.12" duration="26.00" routeLength="213.69" waitingTime="0.00" waitingCount="0" stopTime="0.00" timeLoss="11.07" rerouteNo="0" devices="tripinfo_route_38.5" vType="car" speedFactor="0.91" vaporized=""/>
    <tripinfo id="route_36.7" depart="141.00" departLane="485211947#0_0" departPos="96.45" departSpeed="0.00" departDelay="21.34" arrival="169.00" arrivalLane="1369578054_0" arrivalPos="103.24" arrivalSpeed="13.68" duration="28.00" routeLength="204.25" waitingTime="0.00" waitingCount="0" stopTime="0.00" timeLoss="13.43" rerouteNo="0" devices="tripinfo_route_36.7" vType="car" speedFactor="0.88" vaporized=""/>
    <tripinfo id="route_37.6" depart="143.00" departLane="485211947#0_0" departPos="141.07" departSpeed="0.00" departDelay="22.76" arrival="169.00" arrivalLane="137415945#0_0" arrivalPos="7.30" arrivalSpeed="15.25" duration="26.00" routeLength="210.76" waitingTime="0.00" waitingCount="0" stopTime="0.00" timeLoss="11.54" rerouteNo="0" devices="tripinfo_route_37.6" vType="car" speedFactor="0.91" vaporized=""/>
    <tripinfo id="route_36.5" depart="126.00" departLane="485211947#0_0" departPos="44.18" departSpeed="0.00" departDelay="9.67" arrival="171.00" arrivalLane="1369578054_0" arrivalPos="292.70" arrivalSpeed="14.61" duration="45.00" routeLength="445.98" waitingTime="0.00" waitingCount="0" stopTime="0.00" timeLoss="13.99" rerouteNo="0" devices="tripinfo_route_36.5" vType="car" speedFactor="0.90" vaporized=""/>
    <tripinfo id="route_36.6" depart="137.00" departLane="485211947#0_0" departPos="79.26" departSpeed="0.00" departDelay="19.00" arrival="171.00" arrivalLane="1369578054_0" arrivalPos="102.74" arrivalSpeed="14.10" duration="34.00" routeLength="220.94" waitingTime="0.00" waitingCount="0" stopTime="0.00" timeLoss="19.44" rerouteNo="0" devices="tripinfo_route_36.6" vType="car" speedFactor="1.00" vaporized=""/>
    <tripinfo id="route_37.5" depart="140.00" departLane="485211947#0_0" departPos="37.56" departSpeed="0.00" departDelay="21.80" arrival="171.00" arrivalLane="137415945#0_1" arrivalPos="9.07" arrivalSpeed="16.30" duration="31.00" routeLength="316.03" waitingTime="0.00" waitingCount="0" stopTime="0.00" timeLoss="11.35" rerouteNo="0" devices="tripinfo_route_37.5" vType="car" speedFactor="1.14" vaporized=""/>
    <tripinfo id="route_38.4" depart="138.00" departLane="485211947#0_0" departPos="11.69" departSpeed="0.00" departDelay="20.77" arrival="172.00" arrivalLane="-430406005#1_1" arrivalPos="124.92" arrivalSpeed="16.57" duration="34.00" routeLength="326.21" waitingTime="0.00" waitingCount="0" stopTime="0.00" timeLoss="12.97" rerouteNo="0" devices="tripinfo_route_38.4" vType="car" speedFactor="1.00" vaporized=""/>
    <tripinfo id="route_36.8" depart="143.00" departLane="485211947#0_0" departPos="150.45" departSpeed="0.00" departDelay="21.67" arrival="174.00" arrivalLane="1369578054_0" arrivalPos="270.68" arrivalSpeed="16.36" duration="31.00" routeLength="317.69" waitingTime="0.00" waitingCount="0" stopTime="0.00" timeLoss="10.63" rerouteNo="0" devices="tripinfo_route_36.8" vType="car" speedFactor="1.06" vaporized=""/>
    <tripinfo id="route_37.7" depart="148.00" departLane="485211947#0_0" departPos="53.80" departSpeed="0.00" departDelay="25.72" arrival="177.00" arrivalLane="137415945#0_0" arrivalPos="11.57" arrivalSpeed="16.12" duration="29.00" routeLength="302.30" waitingTime="0.00" waitingCount="0" stopTime="0.00" timeLoss="10.73" rerouteNo="0" devices="tripinfo_route_37.7" vType="car" speedFactor="1.09" vaporized=""/>
    <tripinfo id="route_38.7" depart="156.00" departLane="485211947#0_0" departPos="131.55" departSpeed="0.00" departDelay="31.85" arrival="178.00" arrivalLane="-430406005#1_1" arrivalPos="103.50" arrivalSpeed="16.09" duration="22.00" routeLength="184.94" waitingTime="0.00" waitingCount="0" stopTime="0.00" timeLoss="9.92" rerouteNo="0" devices="tripinfo_route_38.7" vType="car" speedFactor="1.02" vaporized=""/>
    <tripinfo id="route_36.9" depart="143.00" departLane="485211947#0_0" departPos="25.89" departSpeed="0.00" departDelay="20.01" arrival="183.00" arrivalLane="1369578054_0" arrivalPos="145.75" arrivalSpeed="15.79" duration="40.00" routeLength="317.32" waitingTime="0.00" waitingCount="0" stopTime="0.00" timeLoss="20.23" rerouteNo="0" devices="tripinfo_route_36.9" vType="car" speedFactor="1.01" vaporized=""/>
    <tripinfo id="route_31.0" depart="108.00" departLane="1235147073.116_0" departPos="7.14" departSpeed="0.00" departDelay="0.00" arrival="185.00" arrivalLane="133126030#0_0" arrivalPos="8.43" arrivalSpeed="6.90" duration="77.00" routeLength="175.81" waitingTime="46.00" waitingCount="1" stopTime="0.00" timeLoss="66.21" rerouteNo="0" devices="tripinfo_route_31.0" vType="car" speedFactor="1.01" vaporized=""/>
    <tripinfo id="route_32.1" depart="129.00" departLane="1235147073.116_0" departPos="3.53" departSpeed="0.00" departDelay="18.64" arrival="188.00" arrivalLane="-430406005#1_0" arrivalPos="5.79" arrivalSpeed="6.67" duration="59.00" routeLength="165.22" waitingTime="28.00" waitingCount="1" stopTime="0.00" timeLoss="46.45" rerouteNo="0" devices="tripinfo_route_32.1" vType="car" speedFactor="0.88" vaporized=""/>
    <tripinfo id="route_31.1" depart="120.00" departLane="1235147073.116_0" departPos="6.60" departSpeed="0.00" departDelay="10.03" arrival="190.00" arrivalLane="133126030#0_1" arrivalPos="56.90" arrivalSpeed="11.54" duration="70.00" routeLength="224.82" waitingTime="35.00" waitingCount="1" stopTime="0.00" timeLoss="55.88" rerouteNo="0" devices="tripinfo_route_31.1" vType="car" speedFactor="1.05" vaporized=""/>
    <tripinfo id="route_31.2" depart="133.00" departLane="1235147073.116_0" departPos="2.35" departSpeed="0.00" departDelay="21.05" arrival="190.00" arrivalLane="133126030#0_1" arrivalPos="41.34" arrivalSpeed="10.16" duration="57.00" routeLength="213.51" waitingTime="23.00" waitingCount="2" stopTime="0.00" timeLoss="43.59" rerouteNo="0" devices="tripinfo_route_31.2" vType="car" speedFactor="0.97" vaporized=""/>
    <tripinfo id="route_31.3" depart="143.00" departLane="1235147073.116_0" departPos="0.22" departSpeed="0.00" departDelay="29.08" arrival="191.00" arrivalLane="133126030#0_1" arrivalPos="28.13" arrivalSpeed="10.57" duration="48.00" routeLength="202.43" waitingTime="14.00" waitingCount="1" stopTime="0.00" timeLoss="35.21" rerouteNo="0" devices="tripinfo_route_31.3" vType="car" speedFactor="1.17" vaporized=""/>
    <tripinfo id="route_33.3" depart="148.00" departLane="1235147073.116_0" departPos="1.26" departSpeed="0.00" departDelay="34.31" arrival="192.00" arrivalLane="1369578054_1" arrivalPos="8.34" arrivalSpeed="8.55" duration="44.00" routeLength="186.81" waitingTime="10.00" waitingCount="1" stopTime="0.00" timeLoss="32.00" rerouteNo="0" devices="tripinfo_route_33.3" vType="car" speedFactor="0.99" vaporized=""/>
    <tripinfo id="route_32.0" depart="111.00" departLane="1235147073.116_0" departPos="0.46" departSpeed="0.00" departDelay="3.00" arrival="193.00" arrivalLane="-430406005#1_0" arrivalPos="87.77" arrivalSpeed="13.06" duration="82.00" routeLength="250.27" waitingTime="44.00" waitingCount="1" stopTime="0.00" timeLoss="66.02" rerouteNo="0" devices="tripinfo_route_32.0" vType="car" speedFactor="1.08" vaporized=""/>
    <tripinfo id="route_33.2" depart="138.00" departLane="1235147073.116_0" departPos="2.20" departSpeed="0.00" departDelay="26.20" arrival="194.00" arrivalLane="1369578054_1" arrivalPos="50.33" arrivalSpeed="11.35" duration="56.00" routeLength="227.85" waitingTime="18.00" waitingCount="1" stopTime="0.00" timeLoss="39.69" rerouteNo="0" devices="tripinfo_route_33.2" vType="car" speedFactor="0.89" vaporized=""/>
    <tripinfo id="route_31.4" depart="151.00" departLane="1235147073.116_0" departPos="8.59" departSpeed="0.00" departDelay="35.11" arrival="194.00" arrivalLane="133126030#0_1" arrivalPos="39.35" arrivalSpeed="11.84" duration="43.00" routeLength="205.28" waitingTime="8.00" waitingCount="1" stopTime="0.00" timeLoss="30.27" rerouteNo="0" devices="tripinfo_route_31.4" vType="car" speedFactor="1.09" vaporized=""/>
    <tripinfo id="route_33.0" depart="117.00" departLane="1235147073.116_0" departPos="4.63" departSpeed="0.00" departDelay="9.00" arrival="199.00" arrivalLane="1369578054_1" arrivalPos="176.77" arrivalSpeed="16.50" duration="82.00" routeLength="351.87" waitingTime="37.00" waitingCount="1" stopTime="0.00" timeLoss="59.50" rerouteNo="0" devices="tripinfo_route_33.0" vType="car" speedFactor="1.03" vaporized=""/>
    <tripinfo id="route_32.2" depart="142.00" departLane="1235147073.116_0" departPos="13.11" departSpeed="0.00" departDelay="29.28" arrival="199.00" arrivalLane="-430406005#1_0" arrivalPos="106.48" arrivalSpeed="14.50" duration="57.00" routeLength="256.33" waitingTime="18.00" waitingCount="1" stopTime="0.00" timeLoss="39.60" rerouteNo="0" devices="tripinfo_route_32.2" vType="car" speedFactor="0.92" vaporized=""/>
    <tripinfo id="route_33.1" depart="125.00" departLane="1235147073.116_0" departPos="1.98" departSpeed="0.00" departDelay="15.10" arrival="201.00" arrivalLane="1369578054_1" arrivalPos="189.81" arrivalSpeed="16.25" duration="76.00" routeLength="367.56" waitingTime="30.00" waitingCount="1" stopTime="0.00" timeLoss="53.14" rerouteNo="0" devices="tripinfo_route_33.1" vType="car" speedFactor="1.12" vaporized=""/>
    <tripinfo id="route_32.3" depart="154.00" departLane="1235147073.116_0" departPos="3.12" departSpeed="0.00" departDelay="38.91" arrival="202.00" arrivalLane="-430406005#1_0" arrivalPos="121.21" arrivalSpeed="16.23" duration="48.00" routeLength="281.04" waitingTime="5.00" waitingCount="1" stopTime="0.00" timeLoss="29.62" rerouteNo="0" devices="tripinfo_route_32.3" vType="car" speedFactor="1.04" vaporized=""/>
    <tripinfo id="route_31.5" depart="162.00" departLane="1235147073.116_0" departPos="0.37" departSpeed="0.00" departDelay="44.14" arrival="202.00" arrivalLane="133126030#0_1" arrivalPos="106.29" arrivalSpeed="14.10" duration="40.00" routeLength="280.45" waitingTime="0.00" waitingCount="0" stopTime="0.00" timeLoss="19.39" rerouteNo="0" devices="tripinfo_route_31.5" vType="car" speedFactor="0.85" vaporized=""/>
    <tripinfo id="route_33.4" depart="161.00" departLane="1235147073.116_0" departPos="12.23" departSpeed="0.00" departDelay="45.41" arrival="204.00" arrivalLane="1369578054_1" arrivalPos="126.81" arrivalSpeed="16.13" duration="43.00" routeLength="294.31" waitingTime="0.00" waitingCount="0" stopTime="0.00" timeLoss="24.04" rerouteNo="0" devices="tripinfo_route_33.4" vType="car" speedFactor="1.04" vaporized=""/>
    <tripinfo id="route_32.4" depart="170.00" departLane="1235147073.116_0" departPos="3.87" departSpeed="0.00" departDelay="52.55" arrival="207.00" arrivalLane="-430406005#1_0" arrivalPos="173.50" arrivalSpeed="16.20" duration="37.00" routeLength="332.58" waitingTime="0.00" waitingCount="0" stopTime="0.00" timeLoss="16.25" rerouteNo="0" devices="tripinfo_route_32.4" vType="car" speedFactor="1.17" vaporized=""/>
    <tripinfo id="route_31.6" depart="178.00" departLane="1235147073.116_0" departPos="7.43" departSpeed="0.00" departDelay="58.16" arrival="207.00" arrivalLane="133126030#0_0" arrivalPos="125.13" arrivalSpeed="16.33" duration="29.00" routeLength="292.22" waitingTime="0.00" waitingCount="0" stopTime="0.00" timeLoss="10.87" rerouteNo="0" devices="tripinfo_route_31.6" vType="car" speedFactor="1.08" vaporized=""/>
    <tripinfo id="route_33.5" depart="175.00" departLane="1235147073.116_0" departPos="6.87" departSpeed="0.00" departDelay="57.51" arrival="208.00" arrivalLane="1369578054_1" arrivalPos="88.79" arrivalSpeed="14.60" duration="33.00" routeLength="261.65" waitingTime="0.00" waitingCount="0" stopTime="0.00" timeLoss="15.81" rerouteNo="0" devices="tripinfo_route_33.5" vType="car" speedFactor="1.02" vaporized=""/>
    <tripinfo id="route_32.5" depart="182.00" departLane="1235147073.116_0" departPos="5.41" departSpeed="0.00" departDelay="62.19" arrival="217.00" arrivalLane="-430406005#1_0" arrivalPos="174.70" arrivalSpeed="16.32" duration="35.00" routeLength="332.25" waitingTime="0.00" waitingCount="0" stopTime="0.00" timeLoss="14.23" rerouteNo="0" devices="tripinfo_route_32.5" vType="car" speedFactor="1.12" vaporized=""/>
    <tripinfo id="route_32.6" depart="195.00" departLane="1235147073.116_0" departPos="4.44" departSpeed="0.00" departDelay="72.83" arrival="229.00" arrivalLane="-430406005#1_0" arrivalPos="164.06" arrivalSpeed="16.44" duration="34.00" routeLength="322.58" waitingTime="0.00" waitingCount="0" stopTime="0.00" timeLoss="13.54" rerouteNo="0" devices="tripinfo_route_32.6" vType="car" speedFactor="1.03" vaporized=""/>
    <tripinfo id="route_33.6" depart="187.00" departLane="1235147073.116_0" departPos="9.55" departSpeed="0.00" departDelay="67.61" arrival="231.00" arrivalLane="1369578054_1" arrivalPos="253.34" arrivalSpeed="16.41" duration="44.00" routeLength="423.52" waitingTime="1.00" waitingCount="1" stopTime="0.00" timeLoss="17.08" rerouteNo="0" devices="tripinfo_route_33.6" vType="car" speedFactor="1.02" vaporized=""/>
    <tripinfo id="route_31.7" depart="187.00" departLane="1235147073.116_0" departPos="0.08" departSpeed="0.00" departDelay="65.19" arrival="231.00" arrivalLane="133126030#0_1" arrivalPos="181.76" arrivalSpeed="16.27" duration="44.00" routeLength="356.20" waitingTime="1.00" waitingCount="1" stopTime="0.00" timeLoss="22.12" rerouteNo="0" devices="tripinfo_route_31.7" vType="car" speedFactor="1.02" vaporized=""/>
    <tripinfo id="route_34.3" depart="119.00" departLane="133126008#0_0" departPos="127.31" departSpeed="0.00" departDelay="4.18" arrival="233.00" arrivalLane="1369578054_1" arrivalPos="25.77" arrivalSpeed="9.63" duration="114.00" routeLength="111.83" waitingTime="88.00" waitingCount="1" stopTime="0.00" timeLoss="107.05" rerouteNo="0" devices="tripinfo_route_34.3" vType="car" speedFactor="0.97" vaporized=""/>
    <tripinfo id="route_33.7" depart="191.00" departLane="1235147073.116_0" departPos="4.87" departSpeed="0.00" departDelay="69.71" arrival="233.00" arrivalLane="1369578054_1" arrivalPos="265.84" arrivalSpeed="16.10" duration="42.00" routeLength="440.70" waitingTime="0.00" waitingCount="0" stopTime="0.00" timeLoss="13.94" rerouteNo="0" devices="tripinfo_route_33.7" vType="car" speedFactor="0.97" vaporized=""/>
    <tripinfo id="route_35.2" depart="117.00" departLane="133126008#0_0" departPos="111.59" departSpeed="0.00" departDelay="3.34" arrival="236.00" arrivalLane="133126030#0_0" arrivalPos="51.67" arrivalSpeed="10.42" duration="119.00" routeLength="127.60" waitingTime="89.00" waitingCount="1" stopTime="0.00" timeLoss="110.07" rerouteNo="0" devices="tripinfo_route_35.2" vType="car" speedFactor="1.02" vaporized=""/>
    <tripinfo id="route_34.5" depart="121.00" departLane="133126008#0_0" departPos="146.55" departSpeed="0.00" departDelay="1.64" arrival="236.00" arrivalLane="1369578054_0" arrivalPos="46.01" arrivalSpeed="11.90" duration="115.00" routeLength="112.82" waitingTime="90.00" waitingCount="1" stopTime="0.00" timeLoss="107.48" rerouteNo="0" devices="tripinfo_route_34.5" vType="car" speedFactor="0.99" vaporized=""/>
    <tripinfo id="route_29.2" depart="111.00" departLane="-422986370#2_0" departPos="99.24" departSpeed="0.00" departDelay="0.07" arrival="237.00" arrivalLane="-430406005#1_1" arrivalPos="42.28" arrivalSpeed="11.17" duration="126.00" routeLength="277.46" waitingTime="86.00" waitingCount="1" stopTime="0.00" timeLoss="108.26" rerouteNo="0" devices="tripinfo_route_29.2" vType="car" speedFactor="0.93" vaporized=""/>
    <tripinfo id="route_30.0" depart="108.00" departLane="-422986370#2_0" departPos="201.60" departSpeed="0.00" departDelay="0.00" arrival="241.00" arrivalLane="137415945#0_0" arrivalPos="9.07" arrivalSpeed="15.15" duration="133.00" routeLength="253.29" waitingTime="94.00" waitingCount="1" stopTime="0.00" timeLoss="115.84" rerouteNo="0" devices="tripinfo_route_30.0" vType="car" speedFactor="0.94" vaporized=""/>
    <tripinfo id="route_34.1" depart="111.00" departLane="133126008#0_0" departPos="23.09" departSpeed="0.00" departDelay="0.73" arrival="241.00" arrivalLane="1369578054_1" arrivalPos="90.42" arrivalSpeed="14.13" duration="130.00" routeLength="280.69" waitingTime="88.00" waitingCount="1" stopTime="0.00" timeLoss="112.22" rerouteNo="0" devices="tripinfo_route_34.1" vType="car" speedFactor="0.94" vaporized=""/>
    <tripinfo id="route_29.3" depart="113.00" departLane="-422986370#2_0" departPos="173.76" departSpeed="0.00" departDelay="0.61" arrival="242.00" arrivalLane="-430406005#1_1" arrivalPos="127.79" arrivalSpeed="15.83" duration="129.00" routeLength="288.46" waitingTime="87.00" waitingCount="1" stopTime="0.00" timeLoss="109.97" rerouteNo="0" devices="tripinfo_route_29.3" vType="car" speedFactor="0.87" vaporized=""/>
    <tripinfo id="route_29.6" depart="123.00" departLane="-422986370#2_0" departPos="245.44" departSpeed="0.00" departDelay="6.22" arrival="242.00" arrivalLane="-430406005#1_0" arrivalPos="74.50" arrivalSpeed="13.60" duration="119.00" routeLength="163.50" waitingTime="85.00" waitingCount="1" stopTime="0.00" timeLoss="108.96" rerouteNo="0" devices="tripinfo_route_29.6" vType="car" speedFactor="1.09" vaporized=""/>
    <tripinfo id="route_29.8" depart="125.00" departLane="-422986370#2_0" departPos="29.27" departSpeed="0.00" departDelay="5.30" arrival="242.00" arrivalLane="-430406005#1_1" arrivalPos="7.61" arrivalSpeed="10.51" duration="117.00" routeLength="312.77" waitingTime="74.00" waitingCount="1" stopTime="0.00" timeLoss="97.94" rerouteNo="0" devices="tripinfo_route_29.8" vType="car" speedFactor="1.02" vaporized=""/>
    <tripinfo id="route_29.9" depart="129.00" departLane="-422986370#2_0" departPos="271.05" departSpeed="0.00" departDelay="7.83" arrival="242.00" arrivalLane="-430406005#1_0" arrivalPos="98.09" arrivalSpeed="14.86" duration="113.00" routeLength="161.47" waitingTime="86.00" waitingCount="1" stopTime="0.00" timeLoss="102.66" rerouteNo="0" devices="tripinfo_route_29.9" vType="car" speedFactor="1.04" vaporized=""/>
    <tripinfo id="route_29.5" depart="117.00" departLane="-422986370#2_0" departPos="127.34" departSpeed="0.00" departDelay="1.69" arrival="243.00" arrivalLane="-430406005#1_1" arrivalPos="62.84" arrivalSpeed="13.44" duration="126.00" routeLength="269.93" waitingTime="82.00" waitingCount="1" stopTime="0.00" timeLoss="109.19" rerouteNo="0" devices="tripinfo_route_29.5" vType="car" speedFactor="1.03" vaporized=""/>
    <tripinfo id="route_35.3" depart="119.00" departLane="133126008#0_0" departPos="66.33" departSpeed="0.00" departDelay="2.51" arrival="243.00" arrivalLane="133126030#0_0" arrivalPos="67.66" arrivalSpeed="11.34" duration="124.00" routeLength="188.86" waitingTime="88.00" waitingCount="1" stopTime="0.00" timeLoss="111.55" rerouteNo="0" devices="tripinfo_route_35.3" vType="car" speedFactor="1.00" vaporized=""/>
    <tripinfo id="route_35.5" depart="125.00" departLane="133126008#0_0" departPos="40.65" departSpeed="0.00" departDelay="2.85" arrival="243.00" arrivalLane="133126030#0_0" arrivalPos="2.16" arrivalSpeed="6.70" duration="118.00" routeLength="149.03" waitingTime="82.00" waitingCount="1" stopTime="0.00" timeLoss="108.15" rerouteNo="0" devices="tripinfo_route_35.5" vType="car" speedFactor="0.98" vaporized=""/>
    <tripinfo id="route_35.0" depart="108.00" departLane="133126008#0_0" departPos="47.21" departSpeed="0.00" departDelay="0.00" arrival="244.00" arrivalLane="133126030#0_0" arrivalPos="137.72" arrivalSpeed="15.51" duration="136.00" routeLength="278.03" waitingTime="88.00" waitingCount="1" stopTime="0.00" timeLoss="118.05" rerouteNo="0" devices="tripinfo_route_35.0" vType="car" speedFactor="1.05" vaporized=""/>
    <tripinfo id="route_29.7" depart="124.00" departLane="-422986370#2_0" departPos="45.93" departSpeed="0.00" departDelay="5.76" arrival="244.00" arrivalLane="-430406005#1_1" arrivalPos="50.22" arrivalSpeed="12.44" duration="120.00" routeLength="338.72" waitingTime="74.00" waitingCount="1" stopTime="0.00" timeLoss="97.66" rerouteNo="0" devices="tripinfo_route_29.7" vType="car" speedFactor="0.90" vaporized=""/>
    <tripinfo id="route_34.4" depart="119.00" departLane="133126008#0_0" departPos="85.67" departSpeed="0.00" departDelay="1.91" arrival="245.00" arrivalLane="1369578054_1" arrivalPos="123.18" arrivalSpeed="16.33" duration="126.00" routeLength="250.86" waitingTime="87.00" waitingCount="1" stopTime="0.00" timeLoss="110.29" rerouteNo="0" devices="tripinfo_route_34.4" vType="car" speedFactor="1.10" vaporized=""/>
    <tripinfo id="route_35.8" depart="149.00" departLane="133126008#0_0" departPos="106.02" departSpeed="0.00" departDelay="18.36" arrival="245.00" arrivalLane="133126030#0_0" arrivalPos="2.46" arrivalSpeed="6.26" duration="96.00" routeLength="83.97" waitingTime="72.00" waitingCount="1" stopTime="0.00" timeLoss="90.34" rerouteNo="0" devices="tripinfo_route_35.8" vType="car" speedFactor="1.00" vaporized=""/>