<?xml version="1.0" encoding="UTF-8"?>

<!-- generated on 2025-05-04 22:10:27 by Eclipse SUMO sumo Version 1.20.0
<configuration xmlns:xsi="http://www.w3.org/2001/XMLSchema-instance" xsi:noNamespaceSchemaLocation="http://sumo.dlr.de/xsd/sumoConfiguration.xsd">

    <input>
        <net-file value="config/osm.net.xml"/>
        <route-files value="draft/generated_0_093_5_069_0_649_7_027_27_.rou.xml"/>
    </input>

    <output>
        <tripinfo-output value="draft/tripinfo_0_093_5_069_0_649_7_027_27.xml"/>
    </output>

    <time>
        <step-length value="1"/>
    </time>

    <traci_server>
        <remote-port value="52889"/>
    </traci_server>

    <gui_only>
        <start value="true"/>
    </gui_only>

</configuration>
-->

<tripinfos xmlns:xsi="http://www.w3.org/2001/XMLSchema-instance" xsi:noNamespaceSchemaLocation="http://sumo.dlr.de/xsd/tripinfo_file.xsd">
    <tripinfo id="route_31.0" depart="27.00" departLane="1235147073.116_0" departPos="7.14" departSpeed="0.00" departDelay="0.00" arrival="50.00" arrivalLane="133126030#0_0" arrivalPos="8.43" arrivalSpeed="10.54" duration="23.00" routeLength="175.81" waitingTime="0.00" waitingCount="0" stopTime="0.00" timeLoss="12.40" rerouteNo="0" devices="tripinfo_route_31.0" vType="car" speedFactor="1.01" vaporized=""/>
    <tripinfo id="route_37.0" depart="27.00" departLane="485211947#0_0" departPos="162.24" departSpeed="0.00" departDelay="0.00" arrival="50.00" arrivalLane="137415945#0_0" arrivalPos="6.94" arrivalSpeed="15.63" duration="23.00" routeLength="189.23" waitingTime="0.00" waitingCount="0" stopTime="0.00" timeLoss="10.52" rerouteNo="0" devices="tripinfo_route_37.0" vType="car" speedFactor="0.94" vaporized=""/>
    <tripinfo id="route_38.1" depart="30.00" departLane="485211947#0_0" departPos="178.72" departSpeed="0.00" departDelay="0.69" arrival="54.00" arrivalLane="-430406005#1_1" arrivalPos="170.84" arrivalSpeed="16.49" duration="24.00" routeLength="205.10" waitingTime="0.00" waitingCount="0" stopTime="0.00" timeLoss="10.61" rerouteNo="0" devices="tripinfo_route_38.1" vType="car" speedFactor="1.02" vaporized=""/>
    <tripinfo id="route_32.0" depart="30.00" departLane="1235147073.116_0" departPos="0.46" departSpeed="0.00" departDelay="3.00" arrival="60.00" arrivalLane="-430406005#1_0" arrivalPos="87.77" arrivalSpeed="13.73" duration="30.00" routeLength="250.27" waitingTime="0.00" waitingCount="0" stopTime="0.00" timeLoss="14.09" rerouteNo="0" devices="tripinfo_route_32.0" vType="car" speedFactor="1.08" vaporized=""/>
    <tripinfo id="route_31.1" depart="39.00" departLane="1235147073.116_0" departPos="6.60" departSpeed="0.00" departDelay="10.03" arrival="64.00" arrivalLane="133126030#0_0" arrivalPos="56.90" arrivalSpeed="16.21" duration="25.00" routeLength="224.82" waitingTime="0.00" waitingCount="0" stopTime="0.00" timeLoss="10.63" rerouteNo="0" devices="tripinfo_route_31.1" vType="car" speedFactor="1.05" vaporized=""/>
    <tripinfo id="route_32.1" depart="47.00" departLane="1235147073.116_0" departPos="15.04" departSpeed="0.00" departDelay="17.64" arrival="69.00" arrivalLane="-430406005#1_0" arrivalPos="5.79" arrivalSpeed="7.68" duration="22.00" routeLength="153.71" waitingTime="0.00" waitingCount="0" stopTime="0.00" timeLoss="11.00" rerouteNo="0" devices="tripinfo_route_32.1" vType="car" speedFactor="0.88" vaporized=""/>
    <tripinfo id="route_33.0" depart="36.00" departLane="1235147073.116_0" departPos="4.63" departSpeed="0.00" departDelay="9.00" arrival="72.00" arrivalLane="1369578054_1" arrivalPos="176.77" arrivalSpeed="16.26" duration="36.00" routeLength="351.87" waitingTime="0.00" waitingCount="0" stopTime="0.00" timeLoss="13.86" rerouteNo="0" devices="tripinfo_route_33.0" vType="car" speedFactor="1.03" vaporized=""/>
    <tripinfo id="route_31.2" depart="47.00" departLane="1235147073.116_0" departPos="6.04" departSpeed="0.00" departDelay="16.05" arrival="73.00" arrivalLane="133126030#0_1" arrivalPos="41.34" arrivalSpeed="15.78" duration="26.00" routeLength="209.83" waitingTime="0.00" waitingCount="0" stopTime="0.00" timeLoss="12.23" rerouteNo="0" devices="tripinfo_route_31.2" vType="car" speedFactor="0.97" vaporized=""/>
    <tripinfo id="route_33.2" depart="49.00" departLane="1235147073.116_0" departPos="0.20" departSpeed="0.00" departDelay="18.20" arrival="79.00" arrivalLane="1369578054_1" arrivalPos="50.33" arrivalSpeed="12.13" duration="30.00" routeLength="229.85" waitingTime="1.00" waitingCount="1" stopTime="0.00" timeLoss="13.54" rerouteNo="0" devices="tripinfo_route_33.2" vType="car" speedFactor="0.89" vaporized=""/>
    <tripinfo id="route_33.1" depart="43.00" departLane="1235147073.116_0" departPos="2.35" departSpeed="0.00" departDelay="14.10" arrival="80.00" arrivalLane="1369578054_1" arrivalPos="189.81" arrivalSpeed="16.43" duration="37.00" routeLength="367.20" waitingTime="0.00" waitingCount="0" stopTime="0.00" timeLoss="14.32" rerouteNo="0" devices="tripinfo_route_33.1" vType="car" speedFactor="1.12" vaporized=""/>
    <tripinfo id="route_31.3" depart="57.00" departLane="1235147073.116_0" departPos="3.37" departSpeed="0.00" departDelay="24.08" arrival="81.00" arrivalLane="133126030#0_0" arrivalPos="28.13" arrivalSpeed="16.53" duration="24.00" routeLength="199.28" waitingTime="0.00" waitingCount="0" stopTime="0.00" timeLoss="11.26" rerouteNo="0" devices="tripinfo_route_31.3" vType="car" speedFactor="1.17" vaporized=""/>
    <tripinfo id="route_32.2" depart="52.00" departLane="1235147073.116_0" departPos="0.74" departSpeed="0.00" departDelay="20.28" arrival="84.00" arrivalLane="-430406005#1_0" arrivalPos="106.48" arrivalSpeed="14.60" duration="32.00" routeLength="268.70" waitingTime="0.00" waitingCount="0" stopTime="0.00" timeLoss="14.04" rerouteNo="0" devices="tripinfo_route_32.2" vType="car" speedFactor="0.92" vaporized=""/>
    <tripinfo id="route_33.3" depart="63.00" departLane="1235147073.116_0" departPos="8.01" departSpeed="0.00" departDelay="30.31" arrival="87.00" arrivalLane="1369578054_1" arrivalPos="8.34" arrivalSpeed="10.41" duration="24.00" routeLength="180.06" waitingTime="0.00" waitingCount="0" stopTime="0.00" timeLoss="12.29" rerouteNo="0" devices="tripinfo_route_33.3" vType="car" speedFactor="0.99" vaporized=""/>
    <tripinfo id="route_31.4" depart="65.00" departLane="1235147073.116_0" departPos="2.91" departSpeed="0.00" departDelay="30.11" arrival="89.00" arrivalLane="133126030#0_0" arrivalPos="39.35" arrivalSpeed="16.30" duration="24.00" routeLength="210.96" waitingTime="1.00" waitingCount="1" stopTime="0.00" timeLoss="11.03" rerouteNo="0" devices="tripinfo_route_31.4" vType="car" speedFactor="1.09" vaporized=""/>
    <tripinfo id="route_34.0" depart="27.00" departLane="133126008#0_0" departPos="101.07" departSpeed="0.00" departDelay="0.00" arrival="103.00" arrivalLane="1369578054_1" arrivalPos="13.07" arrivalSpeed="8.75" duration="76.00" routeLength="125.36" waitingTime="50.00" waitingCount="1" stopTime="0.00" timeLoss="68.19" rerouteNo="0" devices="tripinfo_route_34.0" vType="car" speedFactor="0.83" vaporized=""/>
    <tripinfo id="route_29.1" depart="29.00" departLane="-422986370#2_0" departPos="265.89" departSpeed="0.00" departDelay="0.54" arrival="103.00" arrivalLane="-430406005#1_1" arrivalPos="8.25" arrivalSpeed="7.61" duration="74.00" routeLength="76.79" waitingTime="54.00" waitingCount="1" stopTime="0.00" timeLoss="69.19" rerouteNo="0" devices="tripinfo_route_29.1" vType="car" speedFactor="1.09" vaporized=""/>
    <tripinfo id="route_29.4" depart="33.00" departLane="-422986370#2_0" departPos="297.23" departSpeed="0.00" departDelay="0.15" arrival="105.00" arrivalLane="-430406005#1_0" arrivalPos="32.75" arrivalSpeed="10.00" duration="72.00" routeLength="69.94" waitingTime="57.00" waitingCount="1" stopTime="0.00" timeLoss="67.66" rerouteNo="0" devices="tripinfo_route_29.4" vType="car" speedFactor="1.15" vaporized=""/>
    <tripinfo id="route_34.3" depart="38.00" departLane="133126008#0_0" departPos="127.31" departSpeed="0.00" departDelay="4.18" arrival="109.00" arrivalLane="1369578054_0" arrivalPos="25.77" arrivalSpeed="10.77" duration="71.00" routeLength="111.83" waitingTime="44.00" waitingCount="1" stopTime="0.00" timeLoss="63.84" rerouteNo="0" devices="tripinfo_route_34.3" vType="car" speedFactor="0.97" vaporized=""/>
    <tripinfo id="route_34.6" depart="41.00" departLane="133126008#0_0" departPos="162.26" departSpeed="0.00" departDelay="0.37" arrival="109.00" arrivalLane="1369578054_1" arrivalPos="50.19" arrivalSpeed="11.35" duration="68.00" routeLength="101.29" waitingTime="46.00" waitingCount="2" stopTime="0.00" timeLoss="61.64" rerouteNo="0" devices="tripinfo_route_34.6" vType="car" speedFactor="0.94" vaporized=""/>
    <tripinfo id="route_35.2" depart="36.00" departLane="133126008#0_0" departPos="111.59" departSpeed="0.00" departDelay="3.34" arrival="111.00" arrivalLane="133126030#0_0" arrivalPos="51.67" arrivalSpeed="10.43" duration="75.00" routeLength="127.60" waitingTime="44.00" waitingCount="1" stopTime="0.00" timeLoss="66.61" rerouteNo="0" devices="tripinfo_route_35.2" vType="car" speedFactor="1.02" vaporized=""/>
    <tripinfo id="route_29.8" depart="43.00" departLane="-422986370#2_0" departPos="216.62" departSpeed="0.00" departDelay="4.30" arrival="111.00" arrivalLane="-430406005#1_0" arrivalPos="7.61" arrivalSpeed="9.49" duration="68.00" routeLength="125.42" waitingTime="40.00" waitingCount="1" stopTime="0.00" timeLoss="60.35" rerouteNo="0" devices="tripinfo_route_29.8" vType="car" speedFactor="1.02" vaporized=""/>
    <tripinfo id="route_34.5" depart="40.00" departLane="133126008#0_0" departPos="98.03" departSpeed="0.00" departDelay="1.64" arrival="111.00" arrivalLane="1369578054_1" arrivalPos="46.01" arrivalSpeed="11.62" duration="71.00" routeLength="161.35" waitingTime="38.00" waitingCount="1" stopTime="0.00" timeLoss="60.92" rerouteNo="0" devices="tripinfo_route_34.5" vType="car" speedFactor="0.99" vaporized=""/>
    <tripinfo id="route_29.2" depart="30.00" departLane="-422986370#2_0" departPos="99.24" departSpeed="0.00" departDelay="0.07" arrival="113.00" arrivalLane="-430406005#1_1" arrivalPos="42.28" arrivalSpeed="11.69" duration="83.00" routeLength="277.46" waitingTime="40.00" waitingCount="1" stopTime="0.00" timeLoss="64.71" rerouteNo="0" devices="tripinfo_route_29.2" vType="car" speedFactor="0.93" vaporized=""/>
    <tripinfo id="route_30.0" depart="27.00" departLane="-422986370#2_0" departPos="201.60" departSpeed="0.00" departDelay="0.00" arrival="114.00" arrivalLane="137415945#0_0" arrivalPos="9.07" arrivalSpeed="15.19" duration="87.00" routeLength="253.29" waitingTime="49.00" waitingCount="1" stopTime="0.00" timeLoss="69.36" rerouteNo="0" devices="tripinfo_route_30.0" vType="car" speedFactor="0.94" vaporized=""/>
    <tripinfo id="route_35.1" depart="31.00" departLane="133126008#0_0" departPos="144.87" departSpeed="0.00" departDelay="1.17" arrival="114.00" arrivalLane="133126030#0_0" arrivalPos="141.65" arrivalSpeed="15.23" duration="83.00" routeLength="184.30" waitingTime="52.00" waitingCount="1" stopTime="0.00" timeLoss="69.96" rerouteNo="0" devices="tripinfo_route_35.1" vType="car" speedFactor="0.94" vaporized=""/>
    <tripinfo id="route_34.1" depart="30.00" departLane="133126008#0_0" departPos="23.09" departSpeed="0.00" departDelay="0.73" arrival="116.00" arrivalLane="1369578054_1" arrivalPos="90.42" arrivalSpeed="14.14" duration="86.00" routeLength="280.69" waitingTime="38.00" waitingCount="1" stopTime="0.00" timeLoss="68.48" rerouteNo="0" devices="tripinfo_route_34.1" vType="car" speedFactor="0.94" vaporized=""/>
    <tripinfo id="route_29.3" depart="32.00" departLane="-422986370#2_0" departPos="173.76" departSpeed="0.00" departDelay="0.61" arrival="117.00" arrivalLane="-430406005#1_1" arrivalPos="127.79" arrivalSpeed="15.64" duration="85.00" routeLength="288.46" waitingTime="41.00" waitingCount="1" stopTime="0.00" timeLoss="66.20" rerouteNo="0" devices="tripinfo_route_29.3" vType="car" speedFactor="0.87" vaporized=""/>
    <tripinfo id="route_30.5" depart="40.00" departLane="-422986370#2_0" departPos="245.96" departSpeed="0.00" departDelay="3.26" arrival="117.00" arrivalLane="137415945#0_0" arrivalPos="11.12" arrivalSpeed="14.17" duration="77.00" routeLength="210.98" waitingTime="44.00" waitingCount="1" stopTime="0.00" timeLoss="60.96" rerouteNo="0" devices="tripinfo_route_30.5" vType="car" speedFactor="0.85" vaporized=""/>
    <tripinfo id="route_34.2" depart="33.00" departLane="133126008#0_0" departPos="165.65" departSpeed="0.00" departDelay="1.46" arrival="118.00" arrivalLane="1369578054_0" arrivalPos="207.23" arrivalSpeed="15.66" duration="85.00" routeLength="254.95" waitingTime="52.00" waitingCount="1" stopTime="0.00" timeLoss="68.88" rerouteNo="0" devices="tripinfo_route_34.2" vType="car" speedFactor="0.95" vaporized=""/>
    <tripinfo id="route_29.5" depart="36.00" departLane="-422986370#2_0" departPos="127.34" departSpeed="0.00" departDelay="1.69" arrival="118.00" arrivalLane="-430406005#1_1" arrivalPos="62.84" arrivalSpeed="14.38" duration="82.00" routeLength="269.93" waitingTime="37.00" waitingCount="1" stopTime="0.00" timeLoss="64.98" rerouteNo="0" devices="tripinfo_route_29.5" vType="car" speedFactor="1.03" vaporized=""/>
    <tripinfo id="route_35.3" depart="38.00" departLane="133126008#0_0" departPos="66.33" departSpeed="0.00" departDelay="2.51" arrival="118.00" arrivalLane="133126030#0_0" arrivalPos="67.66" arrivalSpeed="11.80" duration="80.00" routeLength="188.86" waitingTime="39.00" waitingCount="1" stopTime="0.00" timeLoss="67.47" rerouteNo="0" devices="tripinfo_route_35.3" vType="car" speedFactor="1.00" vaporized=""/>
    <tripinfo id="route_29.9" depart="44.00" departLane="-422986370#2_0" departPos="275.45" departSpeed="0.00" departDelay="3.83" arrival="118.00" arrivalLane="-430406005#1_1" arrivalPos="175.19" arrivalSpeed="16.11" duration="74.00" routeLength="234.17" waitingTime="42.00" waitingCount="1" stopTime="0.00" timeLoss="59.75" rerouteNo="0" devices="tripinfo_route_29.9" vType="car" speedFactor="1.04" vaporized=""/>
    <tripinfo id="route_30.4" depart="36.00" departLane="-422986370#2_0" departPos="212.90" departSpeed="0.00" departDelay="1.21" arrival="119.00" arrivalLane="137415945#0_0" arrivalPos="3.69" arrivalSpeed="15.69" duration="83.00" routeLength="236.61" waitingTime="43.00" waitingCount="1" stopTime="0.00" timeLoss="66.83" rerouteNo="0" devices="tripinfo_route_30.4" vType="car" speedFactor="0.96" vaporized=""/>
    <tripinfo id="route_29.6" depart="40.00" departLane="-422986370#2_0" departPos="192.05" departSpeed="0.00" departDelay="4.22" arrival="119.00" arrivalLane="-430406005#1_0" arrivalPos="74.50" arrivalSpeed="14.58" duration="79.00" routeLength="216.88" waitingTime="39.00" waitingCount="1" stopTime="0.00" timeLoss="65.11" rerouteNo="0" devices="tripinfo_route_29.6" vType="car" speedFactor="1.09" vaporized=""/>
    <tripinfo id="route_34.7" depart="44.00" departLane="133126008#0_0" departPos="44.71" departSpeed="0.00" departDelay="1.10" arrival="119.00" arrivalLane="1369578054_1" arrivalPos="62.18" arrivalSpeed="14.33" duration="75.00" routeLength="230.83" waitingTime="36.00" waitingCount="1" stopTime="0.00" timeLoss="60.95" rerouteNo="0" devices="tripinfo_route_34.7" vType="car" speedFactor="0.97" vaporized=""/>
    <tripinfo id="route_35.0" depart="27.00" departLane="133126008#0_0" departPos="47.21" departSpeed="0.00" departDelay="0.00" arrival="120.00" arrivalLane="133126030#0_0" arrivalPos="137.72" arrivalSpeed="15.47" duration="93.00" routeLength="278.03" waitingTime="43.00" waitingCount="1" stopTime="0.00" timeLoss="74.91" rerouteNo="0" devices="tripinfo_route_35.0" vType="car" speedFactor="1.05" vaporized=""/>
    <tripinfo id="route_34.4" depart="38.00" departLane="133126008#0_0" departPos="85.67" departSpeed="0.00" departDelay="1.91" arrival="120.00" arrivalLane="1369578054_1" arrivalPos="123.18" arrivalSpeed="16.13" duration="82.00" routeLength="250.86" waitingTime="36.00" waitingCount="1" stopTime="0.00" timeLoss="66.37" rerouteNo="0" devices="tripinfo_route_34.4" vType="car" speedFactor="1.10" vaporized=""/>
    <tripinfo id="route_35.6" depart="49.00" departLane="133126008#0_0" departPos="5.63" departSpeed="0.00" departDelay="5.02" arrival="120.00" arrivalLane="133126030#0_0" arrivalPos="23.99" arrivalSpeed="8.74" duration="71.00" routeLength="205.89" waitingTime="33.00" waitingCount="1" stopTime="0.00" timeLoss="57.96" rerouteNo="0" devices="tripinfo_route_35.6" vType="car" speedFactor="1.00" vaporized=""/>
    <tripinfo id="route_29.7" depart="41.00" departLane="-422986370#2_0" departPos="3.49" departSpeed="0.00" departDelay="3.76" arrival="121.00" arrivalLane="-430406005#1_1" arrivalPos="50.22" arrivalSpeed="13.64" duration="80.00" routeLength="381.16" waitingTime="27.00" waitingCount="1" stopTime="0.00" timeLoss="54.42" rerouteNo="0" devices="tripinfo_route_29.7" vType="car" speedFactor="0.90" vaporized=""/>
    <tripinfo id="route_29.13" depart="57.00" departLane="-422986370#2_0" departPos="203.40" departSpeed="0.00" departDelay="10.98" arrival="121.00" arrivalLane="-430406005#1_1" arrivalPos="76.84" arrivalSpeed="14.34" duration="64.00" routeLength="207.88" waitingTime="28.00" waitingCount="1" stopTime="0.00" timeLoss="50.99" rerouteNo="0" devices="tripinfo_route_29.13" vType="car" speedFactor="1.06" vaporized=""/>
    <tripinfo id="route_34.10" depart="66.00" departLane="133126008#0_0" departPos="100.28" departSpeed="0.00" departDelay="16.28" arrival="121.00" arrivalLane="1369578054_1" arrivalPos="60.51" arrivalSpeed="14.40" duration="55.00" routeLength="173.59" waitingTime="25.00" waitingCount="1" stopTime="0.00" timeLoss="44.46" rerouteNo="0" devices="tripinfo_route_34.10" vType="car" speedFactor="1.18" vaporized=""/>
    <tripinfo id="route_29.0" depart="27.00" departLane="-422986370#2_0" departPos="1.81" departSpeed="0.00" departDelay="0.00" arrival="122.00" arrivalLane="-430406005#1_1" arrivalPos="159.13" arrivalSpeed="16.37" duration="95.00" routeLength="491.75" waitingTime="40.00" waitingCount="1" stopTime="0.00" timeLoss="64.96" rerouteNo="0" devices="tripinfo_route_29.0" vType="car" speedFactor="1.06" vaporized=""/>
    <tripinfo id="route_30.1" depart="29.00" departLane="-422986370#2_0" departPos="118.79" departSpeed="0.00" departDelay="0.05" arrival="124.00" arrivalLane="137415945#0_0" arrivalPos="6.53" arrivalSpeed="16.50" duration="95.00" routeLength="333.56" waitingTime="38.00" waitingCount="1" stopTime="0.00" timeLoss="74.31" rerouteNo="0" devices="tripinfo_route_30.1" vType="car" speedFactor="1.03" vaporized=""/>
    <tripinfo id="route_29.11" depart="55.00" departLane="-422986370#2_0" departPos="128.13" departSpeed="0.00" departDelay="11.91" arrival="124.00" arrivalLane="-430406005#1_1" arrivalPos="28.15" arrivalSpeed="13.48" duration="69.00" routeLength="234.45" waitingTime="26.00" waitingCount="1" stopTime="0.00" timeLoss="54.44" rerouteNo="0" devices="tripinfo_route_29.11" vType="car" speedFactor="1.15" vaporized=""/>
    <tripinfo id="route_34.8" depart="50.00" departLane="133126008#0_0" departPos="104.16" departSpeed="0.00" departDelay="4.82" arrival="124.00" arrivalLane="1369578054_1" arrivalPos="170.67" arrivalSpeed="16.35" duration="74.00" routeLength="279.87" waitingTime="36.00" waitingCount="1" stopTime="0.00" timeLoss="57.02" rerouteNo="0" devices="tripinfo_route_34.8" vType="car" speedFactor="1.01" vaporized=""/>
    <tripinfo id="route_34.9" depart="61.00" departLane="133126008#0_0" departPos="2.55" departSpeed="0.00" departDelay="13.55" arrival="124.00" arrivalLane="1369578054_1" arrivalPos="66.50" arrivalSpeed="15.56" duration="63.00" routeLength="277.30" waitingTime="20.00" waitingCount="1" stopTime="0.00" timeLoss="45.40" rerouteNo="0" devices="tripinfo_route_34.9" vType="car" speedFactor="1.03" vaporized=""/>
    <tripinfo id="route_29.12" depart="57.00" departLane="-422986370#2_0" departPos="178.54" departSpeed="0.00" departDelay="12.44" arrival="125.00" arrivalLane="-430406005#1_1" arrivalPos="83.19" arrivalSpeed="15.34" duration="68.00" routeLength="239.08" waitingTime="27.00" waitingCount="1" stopTime="0.00" timeLoss="52.80" rerouteNo="0" devices="tripinfo_route_29.12" vType="car" speedFactor="1.02" vaporized=""/>
    <tripinfo id="route_29.10" depart="48.00" departLane="-422986370#2_0" departPos="79.17" departSpeed="0.00" departDelay="6.37" arrival="126.00" arrivalLane="-430406005#1_1" arrivalPos="73.55" arrivalSpeed="15.39" duration="78.00" routeLength="328.82" waitingTime="28.00" waitingCount="1" stopTime="0.00" timeLoss="57.17" rerouteNo="0" devices="tripinfo_route_29.10" vType="car" speedFactor="0.98" vaporized=""/>
    <tripinfo id="route_35.5" depart="43.00" departLane="133126008#0_0" departPos="65.41" departSpeed="0.00" departDelay="1.85" arrival="127.00" arrivalLane="133126030#0_0" arrivalPos="157.74" arrivalSpeed="16.26" duration="84.00" routeLength="279.84" waitingTime="35.00" waitingCount="1" stopTime="0.00" timeLoss="64.98" rerouteNo="0" devices="tripinfo_route_35.5" vType="car" speedFactor="0.98" vaporized=""/>
    <tripinfo id="route_35.8" depart="67.00" departLane="133126008#0_0" departPos="104.97" departSpeed="0.00" departDelay="17.36" arrival="127.00" arrivalLane="133126030#0_0" arrivalPos="63.54" arrivalSpeed="10.82" duration="60.00" routeLength="146.09" waitingTime="31.00" waitingCount="1" stopTime="0.00" timeLoss="49.83" rerouteNo="0" devices="tripinfo_route_35.8" vType="car" speedFactor="1.00" vaporized=""/>
    <tripinfo id="route_30.3" depart="33.00" departLane="-422986370#2_0" departPos="94.02" departSpeed="0.00" departDelay="0.16" arrival="128.00" arrivalLane="137415945#0_0" arrivalPos="8.17" arrivalSpeed="15.75" duration="95.00" routeLength="359.97" waitingTime="38.00" waitingCount="1" stopTime="0.00" timeLoss="71.86" rerouteNo="0" devices="tripinfo_route_30.3" vType="car" speedFactor="1.01" vaporized=""/>
    <tripinfo id="route_30.2" depart="31.00" departLane="-422986370#2_0" departPos="26.67" departSpeed="0.00" departDelay="0.10" arrival="130.00" arrivalLane="137415945#0_0" arrivalPos="3.36" arrivalSpeed="15.64" duration="99.00" routeLength="422.51" waitingTime="38.00" waitingCount="1" stopTime="0.00" timeLoss="72.20" rerouteNo="0" devices="tripinfo_route_30.2" vType="car" speedFactor="1.01" vaporized=""/>
    <tripinfo id="route_35.4" depart="40.00" departLane="133126008#0_0" departPos="2.61" departSpeed="0.00" departDelay="1.68" arrival="130.00" arrivalLane="133126030#0_0" arrivalPos="167.58" arrivalSpeed="15.56" duration="90.00" routeLength="352.49" waitingTime="34.00" waitingCount="1" stopTime="0.00" timeLoss="66.74" rerouteNo="0" devices="tripinfo_route_35.4" vType="car" speedFactor="0.94" vaporized=""/>
    <tripinfo id="route_29.16" depart="61.00" departLane="-422986370#2_0" departPos="11.95" departSpeed="0.00" departDelay="10.59" arrival="131.00" arrivalLane="-430406005#1_1" arrivalPos="85.05" arrivalSpeed="16.57" duration="70.00" routeLength="407.53" waitingTime="20.00" waitingCount="1" stopTime="0.00" timeLoss="44.78" rerouteNo="0" devices="tripinfo_route_29.16" vType="car" speedFactor="1.07" vaporized=""/>
    <tripinfo id="route_29.17" depart="68.00" departLane="-422986370#2_0" departPos="152.55" departSpeed="0.00" departDelay="16.13" arrival="131.00" arrivalLane="-430406005#1_1" arrivalPos="116.63" arrivalSpeed="16.49" duration="63.00" routeLength="298.51" waitingTime="23.00" waitingCount="1" stopTime="0.00" timeLoss="44.65" rerouteNo="0" devices="tripinfo_route_29.17" vType="car" speedFactor="1.15" vaporized=""/>
    <tripinfo id="route_35.7" depart="56.00" departLane="133126008#0_0" departPos="10.14" departSpeed="0.00" departDelay="9.19" arrival="133.00" arrivalLane="133126030#0_0" arrivalPos="112.02" arrivalSpeed="13.38" duration="77.00" routeLength="289.39" waitingTime="30.00" waitingCount="1" stopTime="0.00" timeLoss="58.60" rerouteNo="0" devices="tripinfo_route_35.7" vType="car" speedFactor="0.95" vaporized=""/>
    <tripinfo id="route_30.11" depart="61.00" departLane="-422986370#2_0" departPos="228.06" departSpeed="0.00" departDelay="12.57" arrival="135.00" arrivalLane="137415945#0_0" arrivalPos="10.54" arrivalSpeed="14.27" duration="74.00" routeLength="228.31" waitingTime="38.00" waitingCount="1" stopTime="0.00" timeLoss="56.40" rerouteNo="0" devices="tripinfo_route_30.11" vType="car" speedFactor="0.87" vaporized=""/>
    <tripinfo id="route_29.14" depart="61.00" departLane="-422986370#2_0" departPos="170.80" departSpeed="0.00" departDelay="13.52" arrival="138.00" arrivalLane="-430406005#1_0" arrivalPos="168.24" arrivalSpeed="16.51" duration="77.00" routeLength="331.87" waitingTime="28.00" waitingCount="1" stopTime="0.00" timeLoss="56.56" rerouteNo="0" devices="tripinfo_route_29.14" vType="car" speedFactor="1.07" vaporized=""/>
    <tripinfo id="route_34.13" depart="74.00" departLane="133126008#0_0" departPos="2.19" departSpeed="0.00" departDelay="17.46" arrival="139.00" arrivalLane="1369578054_1" arrivalPos="204.57" arrivalSpeed="13.55" duration="65.00" routeLength="415.74" waitingTime="13.00" waitingCount="1" stopTime="0.00" timeLoss="39.86" rerouteNo="0" devices="tripinfo_route_34.13" vType="car" speedFactor="1.07" vaporized=""/>
    <tripinfo id="route_29.18" depart="73.00" departLane="-422986370#2_0" departPos="214.54" departSpeed="0.00" departDelay="19.67" arrival="140.00" arrivalLane="-430406005#1_0" arrivalPos="165.34" arrivalSpeed="16.54" duration="67.00" routeLength="285.23" waitingTime="29.00" waitingCount="1" stopTime="0.00" timeLoss="49.30" rerouteNo="0" devices="tripinfo_route_29.18" vType="car" speedFactor="1.01" vaporized=""/>
    <tripinfo id="route_35.10" depart="71.00" departLane="133126008#0_0" departPos="67.27" departSpeed="0.00" departDelay="15.70" arrival="140.00" arrivalLane="133126030#0_0" arrivalPos="157.93" arrivalSpeed="14.52" duration="69.00" routeLength="278.18" waitingTime="23.00" waitingCount="1" stopTime="0.00" timeLoss="48.91" rerouteNo="0" devices="tripinfo_route_35.10" vType="car" speedFactor="0.89" vaporized=""/>
    <tripinfo id="route_38.2" depart="36.00" departLane="485211947#0_0" departPos="162.23" departSpeed="0.00" departDelay="4.39" arrival="143.00" arrivalLane="-430406005#1_1" arrivalPos="54.97" arrivalSpeed="11.13" duration="107.00" routeLength="105.72" waitingTime="84.00" waitingCount="1" stopTime="0.00" timeLoss="99.70" rerouteNo="0" devices="tripinfo_route_38.2" vType="car" speedFactor="1.18" vaporized=""/>
    <tripinfo id="route_34.11" depart="67.00" departLane="133126008#0_0" departPos="41.34" departSpeed="0.00" departDelay="15.01" arrival="143.00" arrivalLane="1369578054_0" arrivalPos="298.02" arrivalSpeed="13.22" duration="76.00" routeLength="470.03" waitingTime="19.00" waitingCount="1" stopTime="0.00" timeLoss="43.42" rerouteNo="0" devices="tripinfo_route_34.11" vType="car" speedFactor="0.82" vaporized=""/>
    <tripinfo id="route_34.12" depart="69.00" departLane="133126008#0_0" departPos="24.58" departSpeed="0.00" departDelay="14.74" arrival="144.00" arrivalLane="1369578054_1" arrivalPos="291.98" arrivalSpeed="15.39" duration="75.00" routeLength="480.76" waitingTime="17.00" waitingCount="1" stopTime="0.00" timeLoss="44.01" rerouteNo="0" devices="tripinfo_route_34.12" vType="car" speedFactor="0.94" vaporized=""/>
    <tripinfo id="route_38.3" depart="41.00" departLane="485211947#0_0" departPos="0.16" departSpeed="0.00" departDelay="7.08" arrival="145.00" arrivalLane="-430406005#1_1" arrivalPos="32.26" arrivalSpeed="10.65" duration="104.00" routeLength="245.09" waitingTime="65.00" waitingCount="1" stopTime="0.00" timeLoss="86.66" rerouteNo="0" devices="tripinfo_route_38.3" vType="car" speedFactor="0.90" vaporized=""/>
    <tripinfo id="route_34.14" depart="84.00" departLane="133126008#0_0" departPos="38.18" departSpeed="0.00" departDelay="25.19" arrival="145.00" arrivalLane="1369578054_1" arrivalPos="264.11" arrivalSpeed="16.54" duration="61.00" routeLength="439.29" waitingTime="8.00" waitingCount="1" stopTime="0.00" timeLoss="33.77" rerouteNo="0" devices="tripinfo_route_34.14" vType="car" speedFactor="1.08" vaporized=""/>
    <tripinfo id="route_36.0" depart="27.00" departLane="485211947#0_0" departPos="11.17" departSpeed="0.00" departDelay="0.00" arrival="149.00" arrivalLane="1369578054_0" arrivalPos="74.16" arrivalSpeed="12.91" duration="122.00" routeLength="260.46" waitingTime="76.00" waitingCount="1" stopTime="0.00" timeLoss="103.39" rerouteNo="0" devices="tripinfo_route_36.0" vType="car" speedFactor="0.89" vaporized=""/>
    <tripinfo id="route_37.1" depart="30.00" departLane="485211947#0_0" departPos="76.22" departSpeed="0.00" departDelay="0.96" arrival="149.00" arrivalLane="137415945#0_0" arrivalPos="2.03" arrivalSpeed="15.28" duration="119.00" routeLength="270.34" waitingTime="80.00" waitingCount="1" stopTime="0.00" timeLoss="102.47" rerouteNo="0" devices="tripinfo_route_37.1" vType="car" speedFactor="1.16" vaporized=""/>
    <tripinfo id="route_38.0" depart="27.00" departLane="485211947#0_0" departPos="59.66" departSpeed="0.00" departDelay="0.00" arrival="150.00" arrivalLane="-430406005#1_1" arrivalPos="133.07" arrivalSpeed="16.00" duration="123.00" routeLength="286.39" waitingTime="83.00" waitingCount="1" stopTime="0.00" timeLoss="102.98" rerouteNo="0" devices="tripinfo_route_38.0" vType="car" speedFactor="0.86" vaporized=""/>
    <tripinfo id="route_36.2" depart="31.00" departLane="485211947#0_0" departPos="123.80" departSpeed="0.00" departDelay="0.67" arrival="150.00" arrivalLane="1369578054_0" arrivalPos="171.28" arrivalSpeed="13.59" duration="119.00" routeLength="244.94" waitingTime="83.00" waitingCount="1" stopTime="0.00" timeLoss="100.19" rerouteNo="0" devices="tripinfo_route_36.2" vType="car" speedFactor="0.83" vaporized=""/>