<?xml version="1.0" encoding="UTF-8"?>

<!-- generated on 2025-05-04 22:11:53 by Eclipse SUMO sumo Version 1.20.0
<configuration xmlns:xsi="http://www.w3.org/2001/XMLSchema-instance" xsi:noNamespaceSchemaLocation="http://sumo.dlr.de/xsd/sumoConfiguration.xsd">

    <input>
        <net-file value="config/osm.net.xml"/>
        <route-files value="draft/generated_0_093_5_069_0_649_7_027_129_.rou.xml"/>
    </input>

    <output>
        <tripinfo-output value="draft/tripinfo_0_093_5_069_0_649_7_027_129.xml"/>
    </output>

    <time>
        <step-length value="1"/>
    </time>

    <traci_server>
        <remote-port value="54557"/>
    </traci_server>

    <gui_only>
        <start value="true"/>
    </gui_only>

</configuration>
-->

<tripinfos xmlns:xsi="http://www.w3.org/2001/XMLSchema-instance" xsi:noNamespaceSchemaLocation="http://sumo.dlr.de/xsd/tripinfo_file.xsd">
    <tripinfo id="route_37.0" depart="129.00" departLane="485211947#0_0" departPos="162.24" departSpeed="0.00" departDelay="0.00" arrival="152.00" arrivalLane="137415945#0_0" arrivalPos="6.94" arrivalSpeed="15.59" duration="23.00" routeLength="189.23" waitingTime="0.00" waitingCount="0" stopTime="0.00" timeLoss="10.52" rerouteNo="0" devices="tripinfo_route_37.0" vType="car" speedFactor="0.94" vaporized=""/>
    <tripinfo id="route_38.2" depart="138.00" departLane="485211947#0_0" departPos="162.23" departSpeed="0.00" departDelay="4.39" arrival="155.00" arrivalLane="-430406005#1_1" arrivalPos="54.97" arrivalSpeed="12.57" duration="17.00" routeLength="105.72" waitingTime="0.00" waitingCount="0" stopTime="0.00" timeLoss="9.51" rerouteNo="0" devices="tripinfo_route_38.2" vType="car" speedFactor="1.18" vaporized=""/>
    <tripinfo id="route_38.1" depart="132.00" departLane="485211947#0_0" departPos="178.72" departSpeed="0.00" departDelay="0.69" arrival="156.00" arrivalLane="-430406005#1_1" arrivalPos="170.84" arrivalSpeed="16.29" duration="24.00" routeLength="205.10" waitingTime="0.00" waitingCount="0" stopTime="0.00" timeLoss="10.64" rerouteNo="0" devices="tripinfo_route_38.1" vType="car" speedFactor="1.02" vaporized=""/>
    <tripinfo id="route_37.1" depart="132.00" departLane="485211947#0_0" departPos="76.22" departSpeed="0.00" departDelay="0.96" arrival="160.00" arrivalLane="137415945#0_1" arrivalPos="2.03" arrivalSpeed="16.57" duration="28.00" routeLength="270.34" waitingTime="0.00" waitingCount="0" stopTime="0.00" timeLoss="11.13" rerouteNo="0" devices="tripinfo_route_37.1" vType="car" speedFactor="1.16" vaporized=""/>
    <tripinfo id="route_38.0" depart="129.00" departLane="485211947#0_0" departPos="59.66" departSpeed="0.00" departDelay="0.00" arrival="163.00" arrivalLane="-430406005#1_1" arrivalPos="133.07" arrivalSpeed="16.32" duration="34.00" routeLength="286.39" waitingTime="0.00" waitingCount="0" stopTime="0.00" timeLoss="13.73" rerouteNo="0" devices="tripinfo_route_38.0" vType="car" speedFactor="0.86" vaporized=""/>
    <tripinfo id="route_36.2" depart="133.00" departLane="485211947#0_0" departPos="123.80" departSpeed="0.00" departDelay="0.67" arrival="164.00" arrivalLane="1369578054_0" arrivalPos="171.28" arrivalSpeed="13.29" duration="31.00" routeLength="244.94" waitingTime="0.00" waitingCount="0" stopTime="0.00" timeLoss="11.84" rerouteNo="0" devices="tripinfo_route_36.2" vType="car" speedFactor="0.83" vaporized=""/>
    <tripinfo id="route_37.2" depart="137.00" departLane="485211947#0_0" departPos="72.22" departSpeed="0.00" departDelay="3.92" arrival="167.00" arrivalLane="137415945#0_1" arrivalPos="12.22" arrivalSpeed="15.30" duration="30.00" routeLength="284.53" waitingTime="0.00" waitingCount="0" stopTime="0.00" timeLoss="11.20" rerouteNo="0" devices="tripinfo_route_37.2" vType="car" speedFactor="0.93" vaporized=""/>
    <tripinfo id="route_36.0" depart="129.00" departLane="485211947#0_0" departPos="11.17" departSpeed="0.00" departDelay="0.00" arrival="168.00" arrivalLane="1369578054_0" arrivalPos="74.16" arrivalSpeed="13.19" duration="39.00" routeLength="260.46" waitingTime="0.00" waitingCount="0" stopTime="0.00" timeLoss="19.55" rerouteNo="0" devices="tripinfo_route_36.0" vType="car" speedFactor="0.89" vaporized=""/>
    <tripinfo id="route_36.1" depart="131.00" departLane="485211947#0_0" departPos="100.86" departSpeed="0.00" departDelay="0.33" arrival="172.00" arrivalLane="1369578054_1" arrivalPos="281.37" arrivalSpeed="16.19" duration="41.00" routeLength="377.98" waitingTime="0.00" waitingCount="0" stopTime="0.00" timeLoss="16.98" rerouteNo="0" devices="tripinfo_route_36.1" vType="car" speedFactor="0.99" vaporized=""/>
    <tripinfo id="route_37.3" depart="143.00" departLane="485211947#0_0" departPos="62.79" departSpeed="0.00" departDelay="7.88" arrival="172.00" arrivalLane="137415945#0_1" arrivalPos="2.64" arrivalSpeed="16.25" duration="29.00" routeLength="284.38" waitingTime="0.00" waitingCount="0" stopTime="0.00" timeLoss="11.41" rerouteNo="0" devices="tripinfo_route_37.3" vType="car" speedFactor="1.10" vaporized=""/>
    <tripinfo id="route_38.3" depart="143.00" departLane="485211947#0_0" departPos="0.16" departSpeed="0.00" departDelay="7.08" arrival="174.00" arrivalLane="-430406005#1_1" arrivalPos="32.26" arrivalSpeed="9.89" duration="31.00" routeLength="245.09" waitingTime="0.00" waitingCount="0" stopTime="0.00" timeLoss="13.92" rerouteNo="0" devices="tripinfo_route_38.3" vType="car" speedFactor="0.90" vaporized=""/>
    <tripinfo id="route_36.7" depart="158.00" departLane="485211947#0_0" departPos="158.48" departSpeed="0.00" departDelay="17.34" arrival="179.00" arrivalLane="1369578054_0" arrivalPos="103.24" arrivalSpeed="13.33" duration="21.00" routeLength="142.22" waitingTime="0.00" waitingCount="0" stopTime="0.00" timeLoss="10.05" rerouteNo="0" devices="tripinfo_route_36.7" vType="car" speedFactor="0.88" vaporized=""/>
    <tripinfo id="route_36.5" depart="143.00" departLane="485211947#0_0" departPos="122.04" departSpeed="0.00" departDelay="5.67" arrival="180.00" arrivalLane="1369578054_0" arrivalPos="292.70" arrivalSpeed="14.87" duration="37.00" routeLength="368.12" waitingTime="0.00" waitingCount="0" stopTime="0.00" timeLoss="11.02" rerouteNo="0" devices="tripinfo_route_36.5" vType="car" speedFactor="0.90" vaporized=""/>
    <tripinfo id="route_37.4" depart="148.00" departLane="485211947#0_0" departPos="22.13" departSpeed="0.00" departDelay="10.84" arrival="181.00" arrivalLane="137415945#0_1" arrivalPos="0.30" arrivalSpeed="14.41" duration="33.00" routeLength="322.70" waitingTime="0.00" waitingCount="0" stopTime="0.00" timeLoss="10.15" rerouteNo="0" devices="tripinfo_route_37.4" vType="car" speedFactor="0.88" vaporized=""/>
    <tripinfo id="route_36.6" depart="149.00" departLane="485211947#0_0" departPos="97.89" departSpeed="0.00" departDelay="10.00" arrival="181.00" arrivalLane="1369578054_0" arrivalPos="102.74" arrivalSpeed="13.94" duration="32.00" routeLength="202.31" waitingTime="0.00" waitingCount="0" stopTime="0.00" timeLoss="18.29" rerouteNo="0" devices="tripinfo_route_36.6" vType="car" speedFactor="1.00" vaporized=""/>
    <tripinfo id="route_37.5" depart="153.00" departLane="485211947#0_0" departPos="54.37" departSpeed="0.00" departDelay="13.80" arrival="183.00" arrivalLane="137415945#0_1" arrivalPos="9.07" arrivalSpeed="16.30" duration="30.00" routeLength="299.22" waitingTime="0.00" waitingCount="0" stopTime="0.00" timeLoss="11.31" rerouteNo="0" devices="tripinfo_route_37.5" vType="car" speedFactor="1.14" vaporized=""/>
    <tripinfo id="route_31.0" depart="129.00" departLane="1235147073.116_0" departPos="7.14" departSpeed="0.00" departDelay="0.00" arrival="185.00" arrivalLane="133126030#0_0" arrivalPos="8.43" arrivalSpeed="6.76" duration="56.00" routeLength="175.81" waitingTime="25.00" waitingCount="1" stopTime="0.00" timeLoss="45.10" rerouteNo="0" devices="tripinfo_route_31.0" vType="car" speedFactor="1.01" vaporized=""/>
    <tripinfo id="route_38.4" depart="149.00" departLane="485211947#0_0" departPos="2.16" departSpeed="0.00" departDelay="10.77" arrival="186.00" arrivalLane="-430406005#1_1" arrivalPos="124.92" arrivalSpeed="16.16" duration="37.00" routeLength="335.74" waitingTime="0.00" waitingCount="0" stopTime="0.00" timeLoss="14.99" rerouteNo="0" devices="tripinfo_route_38.4" vType="car" speedFactor="1.00" vaporized=""/>
    <tripinfo id="route_32.1" depart="149.00" departLane="1235147073.116_0" departPos="15.04" departSpeed="0.00" departDelay="17.64" arrival="187.00" arrivalLane="-430406005#1_0" arrivalPos="5.79" arrivalSpeed="6.39" duration="38.00" routeLength="153.71" waitingTime="8.00" waitingCount="1" stopTime="0.00" timeLoss="26.34" rerouteNo="0" devices="tripinfo_route_32.1" vType="car" speedFactor="0.88" vaporized=""/>
    <tripinfo id="route_36.4" depart="141.00" departLane="485211947#0_0" departPos="51.38" departSpeed="0.00" departDelay="5.34" arrival="187.00" arrivalLane="1369578054_0" arrivalPos="169.94" arrivalSpeed="16.42" duration="46.00" routeLength="316.02" waitingTime="0.00" waitingCount="0" stopTime="0.00" timeLoss="25.58" rerouteNo="0" devices="tripinfo_route_36.4" vType="car" speedFactor="1.18" vaporized=""/>
    <tripinfo id="route_31.1" depart="141.00" departLane="1235147073.116_0" departPos="6.60" departSpeed="0.00" departDelay="10.03" arrival="189.00" arrivalLane="133126030#0_1" arrivalPos="56.90" arrivalSpeed="10.96" duration="48.00" routeLength="224.82" waitingTime="13.00" waitingCount="1" stopTime="0.00" timeLoss="34.39" rerouteNo="0" devices="tripinfo_route_31.1" vType="car" speedFactor="1.05" vaporized=""/>
    <tripinfo id="route_31.2" depart="149.00" departLane="1235147073.116_0" departPos="6.04" departSpeed="0.00" departDelay="16.05" arrival="190.00" arrivalLane="133126030#0_1" arrivalPos="41.34" arrivalSpeed="10.52" duration="41.00" routeLength="209.83" waitingTime="4.00" waitingCount="1" stopTime="0.00" timeLoss="27.74" rerouteNo="0" devices="tripinfo_route_31.2" vType="car" speedFactor="0.97" vaporized=""/>
    <tripinfo id="route_31.3" depart="160.00" departLane="1235147073.116_0" departPos="1.28" departSpeed="0.00" departDelay="25.08" arrival="191.00" arrivalLane="133126030#0_1" arrivalPos="28.13" arrivalSpeed="10.11" duration="31.00" routeLength="201.37" waitingTime="0.00" waitingCount="0" stopTime="0.00" timeLoss="18.55" rerouteNo="0" devices="tripinfo_route_31.3" vType="car" speedFactor="1.17" vaporized=""/>
    <tripinfo id="route_33.3" depart="166.00" departLane="1235147073.116_0" departPos="9.38" departSpeed="0.00" departDelay="31.31" arrival="192.00" arrivalLane="1369578054_1" arrivalPos="8.34" arrivalSpeed="9.78" duration="26.00" routeLength="178.69" waitingTime="0.00" waitingCount="0" stopTime="0.00" timeLoss="13.86" rerouteNo="0" devices="tripinfo_route_33.3" vType="car" speedFactor="0.99" vaporized=""/>
    <tripinfo id="route_32.0" depart="132.00" departLane="1235147073.116_0" departPos="0.46" departSpeed="0.00" departDelay="3.00" arrival="193.00" arrivalLane="-430406005#1_0" arrivalPos="87.77" arrivalSpeed="12.99" duration="61.00" routeLength="250.27" waitingTime="23.00" waitingCount="1" stopTime="0.00" timeLoss="44.62" rerouteNo="0" devices="tripinfo_route_32.0" vType="car" speedFactor="1.08" vaporized=""/>
    <tripinfo id="route_33.2" depart="151.00" departLane="1235147073.116_0" departPos="0.20" departSpeed="0.00" departDelay="18.20" arrival="193.00" arrivalLane="1369578054_1" arrivalPos="50.33" arrivalSpeed="11.83" duration="42.00" routeLength="229.85" waitingTime="6.00" waitingCount="2" stopTime="0.00" timeLoss="25.49" rerouteNo="0" devices="tripinfo_route_33.2" vType="car" speedFactor="0.89" vaporized=""/>
    <tripinfo id="route_31.4" depart="168.00" departLane="1235147073.116_0" departPos="1.26" departSpeed="0.00" departDelay="31.11" arrival="194.00" arrivalLane="133126030#0_1" arrivalPos="39.35" arrivalSpeed="12.26" duration="26.00" routeLength="212.61" waitingTime="0.00" waitingCount="0" stopTime="0.00" timeLoss="12.60" rerouteNo="0" devices="tripinfo_route_31.4" vType="car" speedFactor="1.09" vaporized=""/>
    <tripinfo id="route_33.0" depart="138.00" departLane="1235147073.116_0" departPos="4.63" departSpeed="0.00" departDelay="9.00" arrival="198.00" arrivalLane="1369578054_1" arrivalPos="176.77" arrivalSpeed="16.27" duration="60.00" routeLength="351.87" waitingTime="16.00" waitingCount="1" stopTime="0.00" timeLoss="37.71" rerouteNo="0" devices="tripinfo_route_33.0" vType="car" speedFactor="1.03" vaporized=""/>
    <tripinfo id="route_32.2" depart="155.00" departLane="1235147073.116_0" departPos="8.83" departSpeed="0.00" departDelay="21.28" arrival="199.00" arrivalLane="-430406005#1_0" arrivalPos="106.48" arrivalSpeed="15.19" duration="44.00" routeLength="260.61" waitingTime="2.00" waitingCount="1" stopTime="0.00" timeLoss="25.99" rerouteNo="0" devices="tripinfo_route_32.2" vType="car" speedFactor="0.92" vaporized=""/>
    <tripinfo id="route_33.1" depart="145.00" departLane="1235147073.116_0" departPos="2.35" departSpeed="0.00" departDelay="14.10" arrival="201.00" arrivalLane="1369578054_1" arrivalPos="189.81" arrivalSpeed="16.52" duration="56.00" routeLength="367.20" waitingTime="10.00" waitingCount="1" stopTime="0.00" timeLoss="32.71" rerouteNo="0" devices="tripinfo_route_33.1" vType="car" speedFactor="1.12" vaporized=""/>
    <tripinfo id="route_32.3" depart="174.00" departLane="1235147073.116_0" departPos="3.12" departSpeed="0.00" departDelay="37.91" arrival="206.00" arrivalLane="-430406005#1_0" arrivalPos="121.21" arrivalSpeed="15.50" duration="32.00" routeLength="281.04" waitingTime="0.00" waitingCount="0" stopTime="0.00" timeLoss="14.49" rerouteNo="0" devices="tripinfo_route_32.3" vType="car" speedFactor="1.04" vaporized=""/>
    <tripinfo id="route_31.5" depart="181.00" departLane="1235147073.116_0" departPos="13.96" departSpeed="0.00" departDelay="42.14" arrival="210.00" arrivalLane="133126030#0_0" arrivalPos="106.29" arrivalSpeed="13.88" duration="29.00" routeLength="266.85" waitingTime="0.00" waitingCount="0" stopTime="0.00" timeLoss="9.67" rerouteNo="0" devices="tripinfo_route_31.5" vType="car" speedFactor="0.85" vaporized=""/>
    <tripinfo id="route_33.4" depart="180.00" departLane="1235147073.116_0" departPos="2.76" departSpeed="0.00" departDelay="43.41" arrival="212.00" arrivalLane="1369578054_1" arrivalPos="126.81" arrivalSpeed="16.32" duration="32.00" routeLength="303.78" waitingTime="0.00" waitingCount="0" stopTime="0.00" timeLoss="12.44" rerouteNo="0" devices="tripinfo_route_33.4" vType="car" speedFactor="1.04" vaporized=""/>
    <tripinfo id="route_32.4" depart="183.00" departLane="1235147073.116_0" departPos="3.75" departSpeed="0.00" departDelay="44.55" arrival="218.00" arrivalLane="-430406005#1_0" arrivalPos="173.50" arrivalSpeed="16.18" duration="35.00" routeLength="332.70" waitingTime="0.00" waitingCount="0" stopTime="0.00" timeLoss="13.72" rerouteNo="0" devices="tripinfo_route_32.4" vType="car" speedFactor="1.17" vaporized=""/>
    <tripinfo id="route_33.5" depart="190.00" departLane="1235147073.116_0" departPos="12.66" departSpeed="0.00" departDelay="51.51" arrival="221.00" arrivalLane="1369578054_1" arrivalPos="88.79" arrivalSpeed="15.48" duration="31.00" routeLength="255.86" waitingTime="0.00" waitingCount="0" stopTime="0.00" timeLoss="13.97" rerouteNo="0" devices="tripinfo_route_33.5" vType="car" speedFactor="1.02" vaporized=""/>
    <tripinfo id="route_31.6" depart="191.00" departLane="1235147073.116_0" departPos="0.92" departSpeed="0.00" departDelay="50.16" arrival="221.00" arrivalLane="133126030#0_0" arrivalPos="125.13" arrivalSpeed="16.16" duration="30.00" routeLength="298.73" waitingTime="0.00" waitingCount="0" stopTime="0.00" timeLoss="11.22" rerouteNo="0" devices="tripinfo_route_31.6" vType="car" speedFactor="1.08" vaporized=""/>
    <tripinfo id="route_32.5" depart="195.00" departLane="1235147073.116_0" departPos="0.70" departSpeed="0.00" departDelay="54.19" arrival="230.00" arrivalLane="-430406005#1_0" arrivalPos="174.70" arrivalSpeed="16.53" duration="35.00" routeLength="336.96" waitingTime="0.00" waitingCount="0" stopTime="0.00" timeLoss="13.68" rerouteNo="0" devices="tripinfo_route_32.5" vType="car" speedFactor="1.12" vaporized=""/>
    <tripinfo id="route_29.1" depart="131.00" departLane="-422986370#2_0" departPos="265.89" departSpeed="0.00" departDelay="0.54" arrival="231.00" arrivalLane="-430406005#1_1" arrivalPos="8.25" arrivalSpeed="7.72" duration="100.00" routeLength="76.79" waitingTime="81.00" waitingCount="1" stopTime="0.00" timeLoss="95.31" rerouteNo="0" devices="tripinfo_route_29.1" vType="car" speedFactor="1.09" vaporized=""/>
    <tripinfo id="route_34.0" depart="129.00" departLane="133126008#0_0" departPos="101.07" departSpeed="0.00" departDelay="0.00" arrival="233.00" arrivalLane="1369578054_1" arrivalPos="13.07" arrivalSpeed="9.44" duration="104.00" routeLength="125.36" waitingTime="77.00" waitingCount="1" stopTime="0.00" timeLoss="95.54" rerouteNo="0" devices="tripinfo_route_34.0" vType="car" speedFactor="0.83" vaporized=""/>
    <tripinfo id="route_29.4" depart="135.00" departLane="-422986370#2_0" departPos="297.23" departSpeed="0.00" departDelay="0.15" arrival="234.00" arrivalLane="-430406005#1_0" arrivalPos="32.75" arrivalSpeed="10.27" duration="99.00" routeLength="69.94" waitingTime="84.00" waitingCount="1" stopTime="0.00" timeLoss="94.59" rerouteNo="0" devices="tripinfo_route_29.4" vType="car" speedFactor="1.15" vaporized=""/>
    <tripinfo id="route_34.3" depart="140.00" departLane="133126008#0_0" departPos="127.31" departSpeed="0.00" departDelay="4.18" arrival="238.00" arrivalLane="1369578054_0" arrivalPos="25.77" arrivalSpeed="10.79" duration="98.00" routeLength="111.83" waitingTime="71.00" waitingCount="1" stopTime="0.00" timeLoss="90.74" rerouteNo="0" devices="tripinfo_route_34.3" vType="car" speedFactor="0.97" vaporized=""/>
    <tripinfo id="route_34.6" depart="143.00" departLane="133126008#0_0" departPos="162.26" departSpeed="0.00" departDelay="0.37" arrival="238.00" arrivalLane="1369578054_1" arrivalPos="50.19" arrivalSpeed="11.93" duration="95.00" routeLength="101.29" waitingTime="73.00" waitingCount="2" stopTime="0.00" timeLoss="88.45" rerouteNo="0" devices="tripinfo_route_34.6" vType="car" speedFactor="0.94" vaporized=""/>
    <tripinfo id="route_29.8" depart="145.00" departLane="-422986370#2_0" departPos="216.62" departSpeed="0.00" departDelay="4.30" arrival="240.00" arrivalLane="-430406005#1_0" arrivalPos="7.61" arrivalSpeed="10.71" duration="95.00" routeLength="125.42" waitingTime="66.00" waitingCount="1" stopTime="0.00" timeLoss="86.99" rerouteNo="0" devices="tripinfo_route_29.8" vType="car" speedFactor="1.02" vaporized=""/>
    <tripinfo id="route_34.5" depart="142.00" departLane="133126008#0_0" departPos="98.03" departSpeed="0.00" departDelay="1.64" arrival="240.00" arrivalLane="1369578054_1" arrivalPos="46.01" arrivalSpeed="10.96" duration="98.00" routeLength="161.35" waitingTime="65.00" waitingCount="1" stopTime="0.00" timeLoss="88.10" rerouteNo="0" devices="tripinfo_route_34.5" vType="car" speedFactor="0.99" vaporized=""/>
    <tripinfo id="route_29.2" depart="132.00" departLane="-422986370#2_0" departPos="99.24" departSpeed="0.00" departDelay="0.07" arrival="241.00" arrivalLane="-430406005#1_1" arrivalPos="42.28" arrivalSpeed="12.20" duration="109.00" routeLength="277.46" waitingTime="67.00" waitingCount="1" stopTime="0.00" timeLoss="91.07" rerouteNo="0" devices="tripinfo_route_29.2" vType="car" speedFactor="0.93" vaporized=""/>
    <tripinfo id="route_35.2" depart="138.00" departLane="133126008#0_0" departPos="111.59" departSpeed="0.00" departDelay="3.34" arrival="241.00" arrivalLane="133126030#0_0" arrivalPos="51.67" arrivalSpeed="10.67" duration="103.00" routeLength="127.60" waitingTime="71.00" waitingCount="1" stopTime="0.00" timeLoss="93.76" rerouteNo="0" devices="tripinfo_route_35.2" vType="car" speedFactor="1.02" vaporized=""/>
    <tripinfo id="route_35.1" depart="133.00" departLane="133126008#0_0" departPos="144.87" departSpeed="0.00" departDelay="1.17" arrival="242.00" arrivalLane="133126030#0_0" arrivalPos="141.65" arrivalSpeed="15.41" duration="109.00" routeLength="184.30" waitingTime="79.00" waitingCount="1" stopTime="0.00" timeLoss="96.09" rerouteNo="0" devices="tripinfo_route_35.1" vType="car" speedFactor="0.94" vaporized=""/>
    <tripinfo id="route_30.0" depart="129.00" departLane="-422986370#2_0" departPos="201.60" departSpeed="0.00" departDelay="0.00" arrival="243.00" arrivalLane="137415945#0_0" arrivalPos="9.07" arrivalSpeed="15.19" duration="114.00" routeLength="253.29" waitingTime="76.00" waitingCount="1" stopTime="0.00" timeLoss="96.29" rerouteNo="0" devices="tripinfo_route_30.0" vType="car" speedFactor="0.94" vaporized=""/>
    <tripinfo id="route_34.1" depart="132.00" departLane="133126008#0_0" departPos="23.09" departSpeed="0.00" departDelay="0.73" arrival="245.00" arrivalLane="1369578054_1" arrivalPos="90.42" arrivalSpeed="14.51" duration="113.00" routeLength="280.69" waitingTime="65.00" waitingCount="1" stopTime="0.00" timeLoss="95.60" rerouteNo="0" devices="tripinfo_route_34.1" vType="car" speedFactor="0.94" vaporized=""/>
    <tripinfo id="route_29.3" depart="134.00" departLane="-422986370#2_0" departPos="173.76" departSpeed="0.00" departDelay="0.61" arrival="245.00" arrivalLane="-430406005#1_1" arrivalPos="127.79" arrivalSpeed="16.29" duration="111.00" routeLength="288.46" waitingTime="68.00" waitingCount="1" stopTime="0.00" timeLoss="92.19" rerouteNo="0" devices="tripinfo_route_29.3" vType="car" speedFactor="0.87" vaporized=""/>
    <tripinfo id="route_29.9" depart="146.00" departLane="-422986370#2_0" departPos="275.45" departSpeed="0.00" departDelay="3.83" arrival="246.00" arrivalLane="-430406005#1_1" arrivalPos="175.19" arrivalSpeed="16.52" duration="100.00" routeLength="234.17" waitingTime="69.00" waitingCount="1" stopTime="0.00" timeLoss="85.37" rerouteNo="0" devices="tripinfo_route_29.9" vType="car" speedFactor="1.04" vaporized=""/>
    <tripinfo id="route_34.2" depart="135.00" departLane="133126008#0_0" departPos="165.65" departSpeed="0.00" departDelay="1.46" arrival="247.00" arrivalLane="1369578054_0" arrivalPos="207.23" arrivalSpeed="15.77" duration="112.00" routeLength="254.95" waitingTime="79.00" waitingCount="1" stopTime="0.00" timeLoss="95.33" rerouteNo="0" devices="tripinfo_route_34.2" vType="car" speedFactor="0.95" vaporized=""/>
    <tripinfo id="route_29.5" depart="138.00" departLane="-422986370#2_0" departPos="127.34" departSpeed="0.00" departDelay="1.69" arrival="247.00" arrivalLane="-430406005#1_1" arrivalPos="62.84" arrivalSpeed="13.08" duration="109.00" routeLength="269.93" waitingTime="64.00" waitingCount="1" stopTime="0.00" timeLoss="92.37" rerouteNo="0" devices="tripinfo_route_29.5" vType="car" speedFactor="1.03" vaporized=""/>
    <tripinfo id="route_30.5" depart="142.00" departLane="-422986370#2_0" departPos="245.96" departSpeed="0.00" departDelay="3.26" arrival="247.00" arrivalLane="137415945#0_0" arrivalPos="11.12" arrivalSpeed="14.18" duration="105.00" routeLength="210.98" waitingTime="71.00" waitingCount="1" stopTime="0.00" timeLoss="88.17" rerouteNo="0" devices="tripinfo_route_30.5" vType="car" speedFactor="0.85" vaporized=""/>
    <tripinfo id="route_30.4" depart="138.00" departLane="-422986370#2_0" departPos="212.90" departSpeed="0.00" departDelay="1.21" arrival="248.00" arrivalLane="137415945#0_0" arrivalPos="3.69" arrivalSpeed="15.20" duration="110.00" routeLength="236.61" waitingTime="70.00" waitingCount="1" stopTime="0.00" timeLoss="93.98" rerouteNo="0" devices="tripinfo_route_30.4" vType="car" speedFactor="0.96" vaporized=""/>
    <tripinfo id="route_29.6" depart="142.00" departLane="-422986370#2_0" departPos="192.05" departSpeed="0.00" departDelay="4.22" arrival="248.00" arrivalLane="-430406005#1_0" arrivalPos="74.50" arrivalSpeed="14.57" duration="106.00" routeLength="216.88" waitingTime="66.00" waitingCount="1" stopTime="0.00" timeLoss="92.18" rerouteNo="0" devices="tripinfo_route_29.6" vType="car" speedFactor="1.09" vaporized=""/>
    <tripinfo id="route_35.3" depart="140.00" departLane="133126008#0_0" departPos="66.33" departSpeed="0.00" departDelay="2.51" arrival="248.00" arrivalLane="133126030#0_0" arrivalPos="67.66" arrivalSpeed="11.83" duration="108.00" routeLength="188.86" waitingTime="65.00" waitingCount="1" stopTime="0.00" timeLoss="94.75" rerouteNo="0" devices="tripinfo_route_35.3" vType="car" speedFactor="1.00" vaporized=""/>
    <tripinfo id="route_29.7" depart="143.00" departLane="-422986370#2_0" departPos="3.49" departSpeed="0.00" departDelay="3.76" arrival="248.00" arrivalLane="-430406005#1_1" arrivalPos="50.22" arrivalSpeed="13.07" duration="105.00" routeLength="381.16" waitingTime="56.00" waitingCount="1" stopTime="0.00" timeLoss="79.54" rerouteNo="0" devices="tripinfo_route_29.7" vType="car" speedFactor="0.90" vaporized=""/>
    <tripinfo id="route_29.11" depart="155.00" departLane="-422986370#2_0" departPos="158.60" departSpeed="0.00" departDelay="9.91" arrival="248.00" arrivalLane="-430406005#1_1" arrivalPos="28.15" arrivalSpeed="12.38" duration="93.00" routeLength="203.98" waitingTime="54.00" waitingCount="1" stopTime="0.00" timeLoss="80.08" rerouteNo="0" devices="tripinfo_route_29.11" vType="car" speedFactor="1.15" vaporized=""/>
    <tripinfo id="route_35.0" depart="129.00" departLane="133126008#0_0" departPos="47.21" departSpeed="0.00" departDelay="0.00" arrival="249.00" arrivalLane="133126030#0_0" arrivalPos="137.72" arrivalSpeed="15.62" duration="120.00" routeLength="278.03" waitingTime="70.00" waitingCount="1" stopTime="0.00" timeLoss="102.48" rerouteNo="0" devices="tripinfo_route_35.0" vType="car" speedFactor="1.05" vaporized=""/>
    <tripinfo id="route_34.7" depart="146.00" departLane="133126008#0_0" departPos="44.71" departSpeed="0.00" departDelay="1.10" arrival="249.00" arrivalLane="1369578054_1" arrivalPos="62.18" arrivalSpeed="14.26" duration="103.00" routeLength="230.83" waitingTime="63.00" waitingCount="1" stopTime="0.00" timeLoss="88.65" rerouteNo="0" devices="tripinfo_route_34.7" vType="car" speedFactor="0.97" vaporized=""/>
    <tripinfo id="route_34.4" depart="140.00" departLane="133126008#0_0" departPos="85.67" departSpeed="0.00" departDelay="1.91" arrival="250.00" arrivalLane="1369578054_1" arrivalPos="123.18" arrivalSpeed="16.27" duration="110.00" routeLength="250.86" waitingTime="63.00" waitingCount="1" stopTime="0.00" timeLoss="94.17" rerouteNo="0" devices="tripinfo_route_34.4" vType="car" speedFactor="1.10" vaporized=""/>
    <tripinfo id="route_34.9" depart="160.00" departLane="133126008#0_0" departPos="75.47" departSpeed="0.00" departDelay="10.55" arrival="251.00" arrivalLane="1369578054_1" arrivalPos="66.50" arrivalSpeed="14.35" duration="91.00" routeLength="204.39" waitingTime="56.00" waitingCount="1" stopTime="0.00" timeLoss="78.35" rerouteNo="0" devices="tripinfo_route_34.9" vType="car" speedFactor="1.03" vaporized=""/>
    <tripinfo id="route_29.0" depart="129.00" departLane="-422986370#2_0" departPos="1.81" departSpeed="0.00" departDelay="0.00" arrival="252.00" arrivalLane="-430406005#1_1" arrivalPos="159.13" arrivalSpeed="16.47" duration="123.00" routeLength="491.75" waitingTime="67.00" waitingCount="1" stopTime="0.00" timeLoss="92.51" rerouteNo="0" devices="tripinfo_route_29.0" vType="car" speedFactor="1.06" vaporized=""/>
    <tripinfo id="route_29.10" depart="150.00" departLane="-422986370#2_0" departPos="79.17" departSpeed="0.00" departDelay="6.37" arrival="252.00" arrivalLane="-430406005#1_1" arrivalPos="73.55" arrivalSpeed="15.65" duration="102.00" routeLength="328.82" waitingTime="55.00" waitingCount="1" stopTime="0.00" timeLoss="81.94" rerouteNo="0" devices="tripinfo_route_29.10" vType="car" speedFactor="0.98" vaporized=""/>
    <tripinfo id="route_35.6" depart="151.00" departLane="133126008#0_0" departPos="5.63" departSpeed="0.00" departDelay="5.02" arrival="252.00" arrivalLane="133126030#0_0" arrivalPos="23.99" arrivalSpeed="8.07" duration="101.00" routeLength="205.89" waitingTime="57.00" waitingCount="1" stopTime="0.00" timeLoss="87.89" rerouteNo="0" devices="tripinfo_route_35.6" vType="car" speedFactor="1.00" vaporized=""/>
    <tripinfo id="route_34.8" depart="152.00" departLane="133126008#0_0" departPos="104.16" departSpeed="0.00" departDelay="4.82" arrival="254.00" arrivalLane="1369578054_1" arrivalPos="170.67" arrivalSpeed="16.57" duration="102.00" routeLength="279.87" waitingTime="64.00" waitingCount="1" stopTime="0.00" timeLoss="84.79" rerouteNo="0" devices="tripinfo_route_34.8" vType="car" speedFactor="1.01" vaporized=""/>
    <tripinfo id="route_34.10" depart="164.00" departLane="133126008#0_0" departPos="94.35" departSpeed="0.00" departDelay="12.28" arrival="254.00" arrivalLane="1369578054_0" arrivalPos="60.51" arrivalSpeed="13.38" duration="90.00" routeLength="179.52" waitingTime="58.00" waitingCount="1" stopTime="0.00" timeLoss="79.15" rerouteNo="0" devices="tripinfo_route_34.10" vType="car" speedFactor="1.18" vaporized=""/>
    <tripinfo id="route_30.1" depart="131.00" departLane="-422986370#2_0" departPos="118.79" departSpeed="0.00" departDelay="0.05" arrival="255.00" arrivalLane="137415945#0_0" arrivalPos="6.53" arrivalSpeed="15.82" duration="124.00" routeLength="333.56" waitingTime="66.00" waitingCount="1" stopTime="0.00" timeLoss="102.11" rerouteNo="0" devices="tripinfo_route_30.1" vType="car" speedFactor="1.03" vaporized=""/>
    <tripinfo id="route_29.13" depart="158.00" departLane="-422986370#2_0" departPos="74.71" departSpeed="0.00" departDelay="9.98" arrival="255.00" arrivalLane="-430406005#1_1" arrivalPos="76.84" arrivalSpeed="16.12" duration="97.00" routeLength="336.56" waitingTime="49.00" waitingCount="1" stopTime="0.00" timeLoss="75.87" rerouteNo="0" devices="tripinfo_route_29.13" vType="car" speedFactor="1.06" vaporized=""/>