<?xml version="1.0" encoding="UTF-8"?>

<!-- generated on 2025-05-04 22:11:37 by Eclipse SUMO sumo Version 1.20.0
<configuration xmlns:xsi="http://www.w3.org/2001/XMLSchema-instance" xsi:noNamespaceSchemaLocation="http://sumo.dlr.de/xsd/sumoConfiguration.xsd">

    <input>
        <net-file value="config/osm.net.xml"/>
        <route-files value="draft/generated_0_093_5_069_0_649_7_027_111_.rou.xml"/>
    </input>

    <output>
        <tripinfo-output value="draft/tripinfo_0_093_5_069_0_649_7_027_111.xml"/>
    </output>

    <time>
        <step-length value="1"/>
    </time>

    <traci_server>
        <remote-port value="50869"/>
    </traci_server>

    <gui_only>
        <start value="true"/>
    </gui_only>

</configuration>
-->

<tripinfos xmlns:xsi="http://www.w3.org/2001/XMLSchema-instance" xsi:noNamespaceSchemaLocation="http://sumo.dlr.de/xsd/tripinfo_file.xsd">
    <tripinfo id="route_29.1" depart="113.00" departLane="-422986370#2_0" departPos="265.89" departSpeed="0.00" departDelay="0.54" arrival="127.00" arrivalLane="-430406005#1_1" arrivalPos="8.25" arrivalSpeed="11.07" duration="14.00" routeLength="76.79" waitingTime="0.00" waitingCount="0" stopTime="0.00" timeLoss="8.83" rerouteNo="0" devices="tripinfo_route_29.1" vType="car" speedFactor="1.09" vaporized=""/>
    <tripinfo id="route_29.4" depart="117.00" departLane="-422986370#2_0" departPos="297.23" departSpeed="0.00" departDelay="0.15" arrival="130.00" arrivalLane="-430406005#1_0" arrivalPos="32.75" arrivalSpeed="10.55" duration="13.00" routeLength="69.94" waitingTime="0.00" waitingCount="0" stopTime="0.00" timeLoss="8.55" rerouteNo="0" devices="tripinfo_route_29.4" vType="car" speedFactor="1.15" vaporized=""/>
    <tripinfo id="route_37.1" depart="114.00" departLane="485211947#0_0" departPos="76.22" departSpeed="0.00" departDelay="0.96" arrival="141.00" arrivalLane="137415945#0_1" arrivalPos="2.03" arrivalSpeed="16.23" duration="27.00" routeLength="270.34" waitingTime="0.00" waitingCount="0" stopTime="0.00" timeLoss="10.68" rerouteNo="0" devices="tripinfo_route_37.1" vType="car" speedFactor="1.16" vaporized=""/>
    <tripinfo id="route_34.2" depart="117.00" departLane="133126008#0_0" departPos="165.65" departSpeed="0.00" departDelay="1.46" arrival="145.00" arrivalLane="1369578054_0" arrivalPos="207.23" arrivalSpeed="15.80" duration="28.00" routeLength="254.95" waitingTime="0.00" waitingCount="0" stopTime="0.00" timeLoss="11.17" rerouteNo="0" devices="tripinfo_route_34.2" vType="car" speedFactor="0.95" vaporized=""/>
    <tripinfo id="route_38.2" depart="120.00" departLane="485211947#0_0" departPos="162.23" departSpeed="0.00" departDelay="4.39" arrival="146.00" arrivalLane="-430406005#1_1" arrivalPos="54.97" arrivalSpeed="11.62" duration="26.00" routeLength="105.72" waitingTime="2.00" waitingCount="1" stopTime="0.00" timeLoss="18.55" rerouteNo="0" devices="tripinfo_route_38.2" vType="car" speedFactor="1.18" vaporized=""/>
    <tripinfo id="route_37.2" depart="119.00" departLane="485211947#0_0" departPos="72.22" departSpeed="0.00" departDelay="3.92" arrival="148.00" arrivalLane="137415945#0_1" arrivalPos="12.22" arrivalSpeed="15.30" duration="29.00" routeLength="284.53" waitingTime="0.00" waitingCount="0" stopTime="0.00" timeLoss="9.86" rerouteNo="0" devices="tripinfo_route_37.2" vType="car" speedFactor="0.93" vaporized=""/>
    <tripinfo id="route_36.0" depart="111.00" departLane="485211947#0_0" departPos="11.17" departSpeed="0.00" departDelay="0.00" arrival="149.00" arrivalLane="1369578054_0" arrivalPos="74.16" arrivalSpeed="13.10" duration="38.00" routeLength="260.46" waitingTime="0.00" waitingCount="0" stopTime="0.00" timeLoss="18.60" rerouteNo="0" devices="tripinfo_route_36.0" vType="car" speedFactor="0.89" vaporized=""/>
    <tripinfo id="route_37.0" depart="111.00" departLane="485211947#0_0" departPos="162.24" departSpeed="0.00" departDelay="0.00" arrival="149.00" arrivalLane="137415945#0_0" arrivalPos="6.94" arrivalSpeed="15.19" duration="38.00" routeLength="189.23" waitingTime="8.00" waitingCount="1" stopTime="0.00" timeLoss="25.35" rerouteNo="0" devices="tripinfo_route_37.0" vType="car" speedFactor="0.94" vaporized=""/>
    <tripinfo id="route_38.1" depart="114.00" departLane="485211947#0_0" departPos="178.72" departSpeed="0.00" departDelay="0.69" arrival="152.00" arrivalLane="-430406005#1_1" arrivalPos="170.84" arrivalSpeed="16.15" duration="38.00" routeLength="205.10" waitingTime="9.00" waitingCount="1" stopTime="0.00" timeLoss="23.95" rerouteNo="0" devices="tripinfo_route_38.1" vType="car" speedFactor="1.02" vaporized=""/>
    <tripinfo id="route_36.2" depart="115.00" departLane="485211947#0_0" departPos="123.80" departSpeed="0.00" departDelay="0.67" arrival="152.00" arrivalLane="1369578054_0" arrivalPos="171.28" arrivalSpeed="13.61" duration="37.00" routeLength="244.94" waitingTime="1.00" waitingCount="1" stopTime="0.00" timeLoss="18.02" rerouteNo="0" devices="tripinfo_route_36.2" vType="car" speedFactor="0.83" vaporized=""/>
    <tripinfo id="route_38.0" depart="111.00" departLane="485211947#0_0" departPos="59.66" departSpeed="0.00" departDelay="0.00" arrival="153.00" arrivalLane="-430406005#1_1" arrivalPos="133.07" arrivalSpeed="14.92" duration="42.00" routeLength="286.39" waitingTime="1.00" waitingCount="1" stopTime="0.00" timeLoss="21.92" rerouteNo="0" devices="tripinfo_route_38.0" vType="car" speedFactor="0.86" vaporized=""/>
    <tripinfo id="route_36.6" depart="139.00" departLane="485211947#0_0" departPos="176.79" departSpeed="0.00" departDelay="18.00" arrival="157.00" arrivalLane="1369578054_0" arrivalPos="102.74" arrivalSpeed="14.04" duration="18.00" routeLength="123.41" waitingTime="0.00" waitingCount="0" stopTime="0.00" timeLoss="9.29" rerouteNo="0" devices="tripinfo_route_36.6" vType="car" speedFactor="1.00" vaporized=""/>
    <tripinfo id="route_38.3" depart="129.00" departLane="485211947#0_0" departPos="35.30" departSpeed="0.00" departDelay="11.08" arrival="158.00" arrivalLane="-430406005#1_1" arrivalPos="32.26" arrivalSpeed="11.26" duration="29.00" routeLength="209.94" waitingTime="0.00" waitingCount="0" stopTime="0.00" timeLoss="13.90" rerouteNo="0" devices="tripinfo_route_38.3" vType="car" speedFactor="0.90" vaporized=""/>
    <tripinfo id="route_36.1" depart="113.00" departLane="485211947#0_0" departPos="100.86" departSpeed="0.00" departDelay="0.33" arrival="160.00" arrivalLane="1369578054_1" arrivalPos="281.37" arrivalSpeed="16.30" duration="47.00" routeLength="377.98" waitingTime="1.00" waitingCount="1" stopTime="0.00" timeLoss="23.13" rerouteNo="0" devices="tripinfo_route_36.1" vType="car" speedFactor="0.99" vaporized=""/>
    <tripinfo id="route_36.4" depart="123.00" departLane="485211947#0_0" departPos="51.38" departSpeed="0.00" departDelay="5.34" arrival="163.00" arrivalLane="1369578054_0" arrivalPos="169.94" arrivalSpeed="16.29" duration="40.00" routeLength="316.02" waitingTime="0.00" waitingCount="0" stopTime="0.00" timeLoss="20.33" rerouteNo="0" devices="tripinfo_route_36.4" vType="car" speedFactor="1.18" vaporized=""/>
    <tripinfo id="route_37.6" depart="147.00" departLane="485211947#0_0" departPos="139.10" departSpeed="0.00" departDelay="23.76" arrival="171.00" arrivalLane="137415945#0_1" arrivalPos="7.30" arrivalSpeed="14.91" duration="24.00" routeLength="212.73" waitingTime="0.00" waitingCount="0" stopTime="0.00" timeLoss="9.83" rerouteNo="0" devices="tripinfo_route_37.6" vType="car" speedFactor="0.91" vaporized=""/>
    <tripinfo id="route_36.3" depart="117.00" departLane="485211947#0_0" departPos="12.41" departSpeed="0.00" departDelay="1.00" arrival="172.00" arrivalLane="1369578054_0" arrivalPos="280.18" arrivalSpeed="16.16" duration="55.00" routeLength="465.23" waitingTime="0.00" waitingCount="0" stopTime="0.00" timeLoss="25.54" rerouteNo="0" devices="tripinfo_route_36.3" vType="car" speedFactor="1.13" vaporized=""/>
    <tripinfo id="route_36.9" depart="149.00" departLane="485211947#0_0" departPos="159.57" departSpeed="0.00" departDelay="23.01" arrival="172.00" arrivalLane="1369578054_0" arrivalPos="145.75" arrivalSpeed="15.95" duration="23.00" routeLength="183.63" waitingTime="0.00" waitingCount="0" stopTime="0.00" timeLoss="10.36" rerouteNo="0" devices="tripinfo_route_36.9" vType="car" speedFactor="1.01" vaporized=""/>
    <tripinfo id="route_37.3" depart="126.00" departLane="485211947#0_0" departPos="21.19" departSpeed="0.00" departDelay="8.88" arrival="173.00" arrivalLane="137415945#0_1" arrivalPos="2.64" arrivalSpeed="16.39" duration="47.00" routeLength="325.98" waitingTime="0.00" waitingCount="0" stopTime="0.00" timeLoss="27.19" rerouteNo="0" devices="tripinfo_route_37.3" vType="car" speedFactor="1.10" vaporized=""/>
    <tripinfo id="route_37.4" depart="134.00" departLane="485211947#0_0" departPos="9.07" departSpeed="0.00" departDelay="14.84" arrival="175.00" arrivalLane="137415945#0_1" arrivalPos="0.30" arrivalSpeed="14.31" duration="41.00" routeLength="335.76" waitingTime="0.00" waitingCount="0" stopTime="0.00" timeLoss="17.85" rerouteNo="0" devices="tripinfo_route_37.4" vType="car" speedFactor="0.88" vaporized=""/>
    <tripinfo id="route_36.5" depart="129.00" departLane="485211947#0_0" departPos="44.18" departSpeed="0.00" departDelay="9.67" arrival="176.00" arrivalLane="1369578054_0" arrivalPos="292.70" arrivalSpeed="14.81" duration="47.00" routeLength="445.98" waitingTime="0.00" waitingCount="0" stopTime="0.00" timeLoss="16.08" rerouteNo="0" devices="tripinfo_route_36.5" vType="car" speedFactor="0.90" vaporized=""/>
    <tripinfo id="route_36.7" depart="146.00" departLane="485211947#0_0" departPos="105.65" departSpeed="0.00" departDelay="23.34" arrival="176.00" arrivalLane="1369578054_0" arrivalPos="103.24" arrivalSpeed="13.25" duration="30.00" routeLength="195.05" waitingTime="0.00" waitingCount="0" stopTime="0.00" timeLoss="16.04" rerouteNo="0" devices="tripinfo_route_36.7" vType="car" speedFactor="0.88" vaporized=""/>
    <tripinfo id="route_38.4" depart="141.00" departLane="485211947#0_0" departPos="7.99" departSpeed="0.00" departDelay="20.77" arrival="177.00" arrivalLane="-430406005#1_1" arrivalPos="124.92" arrivalSpeed="16.60" duration="36.00" routeLength="329.91" waitingTime="0.00" waitingCount="0" stopTime="0.00" timeLoss="14.53" rerouteNo="0" devices="tripinfo_route_38.4" vType="car" speedFactor="1.00" vaporized=""/>
    <tripinfo id="route_37.8" depart="150.00" departLane="485211947#0_0" departPos="77.66" departSpeed="0.00" departDelay="22.68" arrival="179.00" arrivalLane="137415945#0_1" arrivalPos="2.01" arrivalSpeed="16.56" duration="29.00" routeLength="268.87" waitingTime="0.00" waitingCount="0" stopTime="0.00" timeLoss="12.53" rerouteNo="0" devices="tripinfo_route_37.8" vType="car" speedFactor="1.01" vaporized=""/>
    <tripinfo id="route_36.10" depart="150.00" departLane="485211947#0_0" departPos="123.76" departSpeed="0.00" departDelay="22.34" arrival="181.00" arrivalLane="1369578054_0" arrivalPos="240.24" arrivalSpeed="16.38" duration="31.00" routeLength="313.93" waitingTime="0.00" waitingCount="0" stopTime="0.00" timeLoss="10.91" rerouteNo="0" devices="tripinfo_route_36.10" vType="car" speedFactor="1.04" vaporized=""/>
    <tripinfo id="route_38.7" depart="152.00" departLane="485211947#0_0" departPos="94.36" departSpeed="0.00" departDelay="24.85" arrival="181.00" arrivalLane="-430406005#1_1" arrivalPos="103.50" arrivalSpeed="15.86" duration="29.00" routeLength="222.12" waitingTime="0.00" waitingCount="0" stopTime="0.00" timeLoss="13.94" rerouteNo="0" devices="tripinfo_route_38.7" vType="car" speedFactor="1.02" vaporized=""/>
    <tripinfo id="route_37.5" depart="146.00" departLane="485211947#0_0" departPos="27.13" departSpeed="0.00" departDelay="24.80" arrival="182.00" arrivalLane="137415945#0_1" arrivalPos="9.07" arrivalSpeed="16.10" duration="36.00" routeLength="326.47" waitingTime="0.00" waitingCount="0" stopTime="0.00" timeLoss="15.93" rerouteNo="0" devices="tripinfo_route_37.5" vType="car" speedFactor="1.14" vaporized=""/>
    <tripinfo id="route_36.8" depart="149.00" departLane="485211947#0_0" departPos="150.21" departSpeed="0.00" departDelay="24.67" arrival="182.00" arrivalLane="1369578054_0" arrivalPos="270.68" arrivalSpeed="16.42" duration="33.00" routeLength="317.93" waitingTime="0.00" waitingCount="0" stopTime="0.00" timeLoss="12.04" rerouteNo="0" devices="tripinfo_route_36.8" vType="car" speedFactor="1.06" vaporized=""/>
    <tripinfo id="route_38.5" depart="146.00" departLane="485211947#0_0" departPos="2.65" departSpeed="0.00" departDelay="23.47" arrival="184.00" arrivalLane="-430406005#1_1" arrivalPos="118.46" arrivalSpeed="16.03" duration="38.00" routeLength="328.79" waitingTime="0.00" waitingCount="0" stopTime="0.00" timeLoss="15.27" rerouteNo="0" devices="tripinfo_route_38.5" vType="car" speedFactor="0.91" vaporized=""/>
    <tripinfo id="route_31.0" depart="111.00" departLane="1235147073.116_0" departPos="7.14" departSpeed="0.00" departDelay="0.00" arrival="185.00" arrivalLane="133126030#0_0" arrivalPos="8.43" arrivalSpeed="7.31" duration="74.00" routeLength="175.81" waitingTime="43.00" waitingCount="1" stopTime="0.00" timeLoss="63.22" rerouteNo="0" devices="tripinfo_route_31.0" vType="car" speedFactor="1.01" vaporized=""/>
    <tripinfo id="route_32.1" depart="132.00" departLane="1235147073.116_0" departPos="3.53" departSpeed="0.00" departDelay="18.64" arrival="188.00" arrivalLane="-430406005#1_0" arrivalPos="5.79" arrivalSpeed="6.81" duration="56.00" routeLength="165.22" waitingTime="24.00" waitingCount="1" stopTime="0.00" timeLoss="43.79" rerouteNo="0" devices="tripinfo_route_32.1" vType="car" speedFactor="0.88" vaporized=""/>
    <tripinfo id="route_31.1" depart="123.00" departLane="1235147073.116_0" departPos="6.60" departSpeed="0.00" departDelay="10.03" arrival="190.00" arrivalLane="133126030#0_1" arrivalPos="56.90" arrivalSpeed="11.30" duration="67.00" routeLength="224.82" waitingTime="32.00" waitingCount="1" stopTime="0.00" timeLoss="52.98" rerouteNo="0" devices="tripinfo_route_31.1" vType="car" speedFactor="1.05" vaporized=""/>
    <tripinfo id="route_31.2" depart="136.00" departLane="1235147073.116_0" departPos="2.35" departSpeed="0.00" departDelay="21.05" arrival="190.00" arrivalLane="133126030#0_1" arrivalPos="41.34" arrivalSpeed="10.54" duration="54.00" routeLength="213.51" waitingTime="20.00" waitingCount="2" stopTime="0.00" timeLoss="40.64" rerouteNo="0" devices="tripinfo_route_31.2" vType="car" speedFactor="0.97" vaporized=""/>
    <tripinfo id="route_31.3" depart="146.00" departLane="1235147073.116_0" departPos="5.04" departSpeed="0.00" departDelay="29.08" arrival="191.00" arrivalLane="133126030#0_1" arrivalPos="28.13" arrivalSpeed="10.01" duration="45.00" routeLength="197.61" waitingTime="11.00" waitingCount="1" stopTime="0.00" timeLoss="32.87" rerouteNo="0" devices="tripinfo_route_31.3" vType="car" speedFactor="1.17" vaporized=""/>
    <tripinfo id="route_33.3" depart="149.00" departLane="1235147073.116_0" departPos="1.02" departSpeed="0.00" departDelay="32.31" arrival="192.00" arrivalLane="1369578054_1" arrivalPos="8.34" arrivalSpeed="9.24" duration="43.00" routeLength="187.05" waitingTime="9.00" waitingCount="1" stopTime="0.00" timeLoss="30.30" rerouteNo="0" devices="tripinfo_route_33.3" vType="car" speedFactor="0.99" vaporized=""/>
    <tripinfo id="route_33.2" depart="141.00" departLane="1235147073.116_0" departPos="0.97" departSpeed="0.00" departDelay="26.20" arrival="193.00" arrivalLane="1369578054_1" arrivalPos="50.33" arrivalSpeed="12.07" duration="52.00" routeLength="229.09" waitingTime="15.00" waitingCount="1" stopTime="0.00" timeLoss="35.63" rerouteNo="0" devices="tripinfo_route_33.2" vType="car" speedFactor="0.89" vaporized=""/>
    <tripinfo id="route_32.0" depart="114.00" departLane="1235147073.116_0" departPos="0.46" departSpeed="0.00" departDelay="3.00" arrival="194.00" arrivalLane="-430406005#1_0" arrivalPos="87.77" arrivalSpeed="13.14" duration="80.00" routeLength="250.27" waitingTime="41.00" waitingCount="1" stopTime="0.00" timeLoss="63.84" rerouteNo="0" devices="tripinfo_route_32.0" vType="car" speedFactor="1.08" vaporized=""/>
    <tripinfo id="route_31.4" depart="152.00" departLane="1235147073.116_0" departPos="13.30" departSpeed="0.00" departDelay="33.11" arrival="195.00" arrivalLane="133126030#0_1" arrivalPos="39.35" arrivalSpeed="11.68" duration="43.00" routeLength="200.57" waitingTime="7.00" waitingCount="1" stopTime="0.00" timeLoss="30.44" rerouteNo="0" devices="tripinfo_route_31.4" vType="car" speedFactor="1.09" vaporized=""/>
    <tripinfo id="route_33.0" depart="120.00" departLane="1235147073.116_0" departPos="4.63" departSpeed="0.00" departDelay="9.00" arrival="198.00" arrivalLane="1369578054_1" arrivalPos="176.77" arrivalSpeed="16.52" duration="78.00" routeLength="351.87" waitingTime="34.00" waitingCount="1" stopTime="0.00" timeLoss="56.09" rerouteNo="0" devices="tripinfo_route_33.0" vType="car" speedFactor="1.03" vaporized=""/>
    <tripinfo id="route_32.2" depart="145.00" departLane="1235147073.116_0" departPos="14.86" departSpeed="0.00" departDelay="29.28" arrival="199.00" arrivalLane="-430406005#1_0" arrivalPos="106.48" arrivalSpeed="14.09" duration="54.00" routeLength="254.58" waitingTime="15.00" waitingCount="1" stopTime="0.00" timeLoss="37.07" rerouteNo="0" devices="tripinfo_route_32.2" vType="car" speedFactor="0.92" vaporized=""/>
    <tripinfo id="route_33.1" depart="128.00" departLane="1235147073.116_0" departPos="1.98" departSpeed="0.00" departDelay="15.10" arrival="201.00" arrivalLane="1369578054_1" arrivalPos="189.81" arrivalSpeed="16.37" duration="73.00" routeLength="367.56" waitingTime="27.00" waitingCount="1" stopTime="0.00" timeLoss="49.88" rerouteNo="0" devices="tripinfo_route_33.1" vType="car" speedFactor="1.12" vaporized=""/>
    <tripinfo id="route_33.4" depart="157.00" departLane="1235147073.116_0" departPos="0.36" departSpeed="0.00" departDelay="38.41" arrival="202.00" arrivalLane="1369578054_1" arrivalPos="126.81" arrivalSpeed="16.35" duration="45.00" routeLength="306.19" waitingTime="2.00" waitingCount="1" stopTime="0.00" timeLoss="25.66" rerouteNo="0" devices="tripinfo_route_33.4" vType="car" speedFactor="1.04" vaporized=""/>
    <tripinfo id="route_31.5" depart="160.00" departLane="1235147073.116_0" departPos="10.70" departSpeed="0.00" departDelay="39.14" arrival="202.00" arrivalLane="133126030#0_1" arrivalPos="106.29" arrivalSpeed="13.98" duration="42.00" routeLength="270.11" waitingTime="1.00" waitingCount="1" stopTime="0.00" timeLoss="22.25" rerouteNo="0" devices="tripinfo_route_31.5" vType="car" speedFactor="0.85" vaporized=""/>
    <tripinfo id="route_33.5" depart="168.00" departLane="1235147073.116_0" departPos="3.28" departSpeed="0.00" departDelay="47.51" arrival="202.00" arrivalLane="1369578054_1" arrivalPos="88.79" arrivalSpeed="15.32" duration="34.00" routeLength="265.24" waitingTime="0.00" waitingCount="0" stopTime="0.00" timeLoss="16.58" rerouteNo="0" devices="tripinfo_route_33.5" vType="car" speedFactor="1.02" vaporized=""/>
    <tripinfo id="route_32.3" depart="152.00" departLane="1235147073.116_0" departPos="5.19" departSpeed="0.00" departDelay="33.91" arrival="203.00" arrivalLane="-430406005#1_0" arrivalPos="121.21" arrivalSpeed="15.37" duration="51.00" routeLength="278.98" waitingTime="7.00" waitingCount="1" stopTime="0.00" timeLoss="32.62" rerouteNo="0" devices="tripinfo_route_32.3" vType="car" speedFactor="1.04" vaporized=""/>
    <tripinfo id="route_31.6" depart="171.00" departLane="1235147073.116_0" departPos="11.05" departSpeed="0.00" departDelay="48.16" arrival="204.00" arrivalLane="133126030#0_1" arrivalPos="125.13" arrivalSpeed="15.55" duration="33.00" routeLength="288.60" waitingTime="0.00" waitingCount="0" stopTime="0.00" timeLoss="15.58" rerouteNo="0" devices="tripinfo_route_31.6" vType="car" speedFactor="1.08" vaporized=""/>
    <tripinfo id="route_32.4" depart="162.00" departLane="1235147073.116_0" departPos="2.16" departSpeed="0.00" departDelay="41.55" arrival="207.00" arrivalLane="-430406005#1_0" arrivalPos="173.50" arrivalSpeed="16.45" duration="45.00" routeLength="334.30" waitingTime="0.00" waitingCount="0" stopTime="0.00" timeLoss="24.11" rerouteNo="0" devices="tripinfo_route_32.4" vType="car" speedFactor="1.17" vaporized=""/>
    <tripinfo id="route_32.5" depart="171.00" departLane="1235147073.116_0" departPos="2.02" departSpeed="0.00" departDelay="48.19" arrival="209.00" arrivalLane="-430406005#1_0" arrivalPos="174.70" arrivalSpeed="16.58" duration="38.00" routeLength="335.64" waitingTime="0.00" waitingCount="0" stopTime="0.00" timeLoss="16.46" rerouteNo="0" devices="tripinfo_route_32.5" vType="car" speedFactor="1.12" vaporized=""/>
    <tripinfo id="route_31.7" depart="181.00" departLane="1235147073.116_0" departPos="14.47" departSpeed="0.00" departDelay="56.19" arrival="213.00" arrivalLane="133126030#0_0" arrivalPos="181.76" arrivalSpeed="16.46" duration="32.00" routeLength="341.81" waitingTime="0.00" waitingCount="0" stopTime="0.00" timeLoss="10.77" rerouteNo="0" devices="tripinfo_route_31.7" vType="car" speedFactor="1.02" vaporized=""/>
    <tripinfo id="route_33.6" depart="178.00" departLane="1235147073.116_0" departPos="7.22" departSpeed="0.00" departDelay="55.61" arrival="218.00" arrivalLane="1369578054_1" arrivalPos="253.34" arrivalSpeed="16.19" duration="40.00" routeLength="425.85" waitingTime="0.00" waitingCount="0" stopTime="0.00" timeLoss="13.63" rerouteNo="0" devices="tripinfo_route_33.6" vType="car" speedFactor="1.02" vaporized=""/>
    <tripinfo id="route_32.6" depart="186.00" departLane="1235147073.116_0" departPos="5.03" departSpeed="0.00" departDelay="60.83" arrival="221.00" arrivalLane="-430406005#1_0" arrivalPos="164.06" arrivalSpeed="16.58" duration="35.00" routeLength="321.99" waitingTime="0.00" waitingCount="0" stopTime="0.00" timeLoss="13.81" rerouteNo="0" devices="tripinfo_route_32.6" vType="car" speedFactor="1.03" vaporized=""/>
    <tripinfo id="route_33.7" depart="182.00" departLane="1235147073.116_0" departPos="4.62" departSpeed="0.00" departDelay="57.71" arrival="224.00" arrivalLane="1369578054_1" arrivalPos="265.84" arrivalSpeed="16.00" duration="42.00" routeLength="440.95" waitingTime="0.00" waitingCount="0" stopTime="0.00" timeLoss="13.94" rerouteNo="0" devices="tripinfo_route_33.7" vType="car" speedFactor="0.97" vaporized=""/>
    <tripinfo id="route_31.8" depart="191.00" departLane="1235147073.116_0" departPos="3.11" departSpeed="0.00" departDelay="64.22" arrival="224.00" arrivalLane="133126030#0_0" arrivalPos="173.46" arrivalSpeed="16.54" duration="33.00" routeLength="344.87" waitingTime="0.00" waitingCount="0" stopTime="0.00" timeLoss="11.25" rerouteNo="0" devices="tripinfo_route_31.8" vType="car" speedFactor="1.00" vaporized=""/>
    <tripinfo id="route_32.7" depart="199.00" departLane="1235147073.116_0" departPos="13.25" departSpeed="0.00" departDelay="71.47" arrival="228.00" arrivalLane="-430406005#1_0" arrivalPos="79.40" arrivalSpeed="13.26" duration="29.00" routeLength="229.11" waitingTime="0.00" waitingCount="0" stopTime="0.00" timeLoss="14.17" rerouteNo="0" devices="tripinfo_route_32.7" vType="car" speedFactor="0.98" vaporized=""/>
    <tripinfo id="route_34.0" depart="111.00" departLane="133126008#0_0" departPos="101.07" departSpeed="0.00" departDelay="0.00" arrival="233.00" arrivalLane="1369578054_1" arrivalPos="13.07" arrivalSpeed="9.18" duration="122.00" routeLength="125.36" waitingTime="95.00" waitingCount="1" stopTime="0.00" timeLoss="113.62" rerouteNo="0" devices="tripinfo_route_34.0" vType="car" speedFactor="0.83" vaporized=""/>
    <tripinfo id="route_34.3" depart="122.00" departLane="133126008#0_0" departPos="127.31" departSpeed="0.00" departDelay="4.18" arrival="236.00" arrivalLane="1369578054_1" arrivalPos="25.77" arrivalSpeed="10.47" duration="114.00" routeLength="111.83" waitingTime="88.00" waitingCount="1" stopTime="0.00" timeLoss="106.89" rerouteNo="0" devices="tripinfo_route_34.3" vType="car" speedFactor="0.97" vaporized=""/>
    <tripinfo id="route_33.8" depart="196.00" departLane="1235147073.116_0" departPos="1.93" departSpeed="0.00" departDelay="69.82" arrival="236.00" arrivalLane="1369578054_1" arrivalPos="234.93" arrivalSpeed="16.44" duration="40.00" routeLength="412.73" waitingTime="0.00" waitingCount="0" stopTime="0.00" timeLoss="13.75" rerouteNo="0" devices="tripinfo_route_33.8" vType="car" speedFactor="1.02" vaporized=""/>
    <tripinfo id="route_29.2" depart="114.00" departLane="-422986370#2_0" departPos="99.24" departSpeed="0.00" departDelay="0.07" arrival="237.00" arrivalLane="-430406005#1_1" arrivalPos="42.28" arrivalSpeed="10.75" duration="123.00" routeLength="277.46" waitingTime="83.00" waitingCount="1" stopTime="0.00" timeLoss="105.29" rerouteNo="0" devices="tripinfo_route_29.2" vType="car" speedFactor="0.93" vaporized=""/>
    <tripinfo id="route_35.2" depart="120.00" departLane="133126008#0_0" departPos="111.59" departSpeed="0.00" departDelay="3.34" arrival="238.00" arrivalLane="133126030#0_0" arrivalPos="51.67" arrivalSpeed="10.63" duration="118.00" routeLength="127.60" waitingTime="88.00" waitingCount="1" stopTime="0.00" timeLoss="109.08" rerouteNo="0" devices="tripinfo_route_35.2" vType="car" speedFactor="1.02" vaporized=""/>
    <tripinfo id="route_34.5" depart="124.00" departLane="133126008#0_0" departPos="146.55" departSpeed="0.00" departDelay="1.64" arrival="238.00" arrivalLane="1369578054_0" arrivalPos="46.01" arrivalSpeed="11.95" duration="114.00" routeLength="112.82" waitingTime="89.00" waitingCount="1" stopTime="0.00" timeLoss="106.61" rerouteNo="0" devices="tripinfo_route_34.5" vType="car" speedFactor="0.99" vaporized=""/>
    <tripinfo id="route_35.1" depart="115.00" departLane="133126008#0_0" departPos="144.87" departSpeed="0.00" departDelay="1.17" arrival="240.00" arrivalLane="133126030#0_0" arrivalPos="141.65" arrivalSpeed="14.90" duration="125.00" routeLength="184.30" waitingTime="94.00" waitingCount="1" stopTime="0.00" timeLoss="112.25" rerouteNo="0" devices="tripinfo_route_35.1" vType="car" speedFactor="0.94" vaporized=""/>
    <tripinfo id="route_30.0" depart="111.00" departLane="-422986370#2_0" departPos="201.60" departSpeed="0.00" departDelay="0.00" arrival="242.00" arrivalLane="137415945#0_0" arrivalPos="9.07" arrivalSpeed="15.32" duration="131.00" routeLength="253.29" waitingTime="91.00" waitingCount="1" stopTime="0.00" timeLoss="113.11" rerouteNo="0" devices="tripinfo_route_30.0" vType="car" speedFactor="0.94" vaporized=""/>
    <tripinfo id="route_29.3" depart="116.00" departLane="-422986370#2_0" departPos="173.76" departSpeed="0.00" departDelay="0.61" arrival="242.00" arrivalLane="-430406005#1_1" arrivalPos="127.79" arrivalSpeed="15.78" duration="126.00" routeLength="288.46" waitingTime="84.00" waitingCount="1" stopTime="0.00" timeLoss="106.70" rerouteNo="0" devices="tripinfo_route_29.3" vType="car" speedFactor="0.87" vaporized=""/>
    <tripinfo id="route_29.9" depart="132.00" departLane="-422986370#2_0" departPos="271.05" departSpeed="0.00" departDelay="7.83" arrival="242.00" arrivalLane="-430406005#1_0" arrivalPos="98.09" arrivalSpeed="14.32" duration="110.00" routeLength="161.47" waitingTime="83.00" waitingCount="1" stopTime="0.00" timeLoss="100.17" rerouteNo="0" devices="tripinfo_route_29.9" vType="car" speedFactor="1.04" vaporized=""/>
    <tripinfo id="route_29.5" depart="120.00" departLane="-422986370#2_0" departPos="127.34" departSpeed="0.00" departDelay="1.69" arrival="243.00" arrivalLane="-430406005#1_1" arrivalPos="62.84" arrivalSpeed="12.57" duration="123.00" routeLength="269.93" waitingTime="79.00" waitingCount="1" stopTime="0.00" timeLoss="106.66" rerouteNo="0" devices="tripinfo_route_29.5" vType="car" speedFactor="1.03" vaporized=""/>
    <tripinfo id="route_29.6" depart="126.00" departLane="-422986370#2_0" departPos="245.44" departSpeed="0.00" departDelay="6.22" arrival="243.00" arrivalLane="-430406005#1_0" arrivalPos="74.50" arrivalSpeed="13.75" duration="117.00" routeLength="163.50" waitingTime="81.00" waitingCount="1" stopTime="0.00" timeLoss="106.58" rerouteNo="0" devices="tripinfo_route_29.6" vType="car" speedFactor="1.09" vaporized=""/>
    <tripinfo id="route_34.1" depart="114.00" departLane="133126008#0_0" departPos="23.09" departSpeed="0.00" departDelay="0.73" arrival="245.00" arrivalLane="1369578054_1" arrivalPos="90.42" arrivalSpeed="14.38" duration="131.00" routeLength="280.69" waitingTime="84.00" waitingCount="1" stopTime="0.00" timeLoss="113.66" rerouteNo="0" devices="tripinfo_route_34.1" vType="car" speedFactor="0.94" vaporized=""/>
    <tripinfo id="route_35.3" depart="122.00" departLane="133126008#0_0" departPos="66.33" departSpeed="0.00" departDelay="2.51" arrival="245.00" arrivalLane="133126030#0_0" arrivalPos="67.66" arrivalSpeed="11.99" duration="123.00" routeLength="188.86" waitingTime="88.00" waitingCount="1" stopTime="0.00" timeLoss="109.73" rerouteNo="0" devices="tripinfo_route_35.3" vType="car" speedFactor="1.00" vaporized=""/>
    <tripinfo id="route_29.8" depart="128.00" departLane="-422986370#2_0" departPos="29.27" departSpeed="0.00" departDelay="5.30" arrival="245.00" arrivalLane="-430406005#1_1" arrivalPos="7.61" arrivalSpeed="10.96" duration="117.00" routeLength="312.77" waitingTime="68.00" waitingCount="1" stopTime="0.00" timeLoss="97.86" rerouteNo="0" devices="tripinfo_route_29.8" vType="car" speedFactor="1.02" vaporized=""/>
    <tripinfo id="route_35.5" depart="128.00" departLane="133126008#0_0" departPos="40.65" departSpeed="0.00" departDelay="2.85" arrival="245.00" arrivalLane="133126030#0_0" arrivalPos="2.16" arrivalSpeed="7.00" duration="117.00" routeLength="149.03" waitingTime="83.00" waitingCount="1" stopTime="0.00" timeLoss="107.08" rerouteNo="0" devices="tripinfo_route_35.5" vType="car" speedFactor="0.98" vaporized=""/>