<?xml version="1.0" encoding="UTF-8"?>

<!-- generated on 2025-05-04 22:11:02 by Eclipse SUMO sumo Version 1.20.0
<configuration xmlns:xsi="http://www.w3.org/2001/XMLSchema-instance" xsi:noNamespaceSchemaLocation="http://sumo.dlr.de/xsd/sumoConfiguration.xsd">

    <input>
        <net-file value="config/osm.net.xml"/>
        <route-files value="draft/generated_0_093_5_069_0_649_7_027_69_.rou.xml"/>
    </input>

    <output>
        <tripinfo-output value="draft/tripinfo_0_093_5_069_0_649_7_027_69.xml"/>
    </output>

    <time>
        <step-length value="1"/>
    </time>

    <traci_server>
        <remote-port value="37505"/>
    </traci_server>

    <gui_only>
        <start value="true"/>
    </gui_only>

</configuration>
-->

<tripinfos xmlns:xsi="http://www.w3.org/2001/XMLSchema-instance" xsi:noNamespaceSchemaLocation="http://sumo.dlr.de/xsd/tripinfo_file.xsd">
    <tripinfo id="route_31.0" depart="69.00" departLane="1235147073.116_0" departPos="7.14" departSpeed="0.00" departDelay="0.00" arrival="90.00" arrivalLane="133126030#0_0" arrivalPos="8.43" arrivalSpeed="15.69" duration="21.00" routeLength="175.81" waitingTime="0.00" waitingCount="0" stopTime="0.00" timeLoss="10.36" rerouteNo="0" devices="tripinfo_route_31.0" vType="car" speedFactor="1.01" vaporized=""/>
    <tripinfo id="route_29.1" depart="71.00" departLane="-422986370#2_0" departPos="265.89" departSpeed="0.00" departDelay="0.54" arrival="102.00" arrivalLane="-430406005#1_1" arrivalPos="8.25" arrivalSpeed="7.80" duration="31.00" routeLength="76.79" waitingTime="12.00" waitingCount="1" stopTime="0.00" timeLoss="26.29" rerouteNo="0" devices="tripinfo_route_29.1" vType="car" speedFactor="1.09" vaporized=""/>
    <tripinfo id="route_34.0" depart="69.00" departLane="133126008#0_0" departPos="101.07" departSpeed="0.00" departDelay="0.00" arrival="103.00" arrivalLane="1369578054_1" arrivalPos="13.07" arrivalSpeed="8.85" duration="34.00" routeLength="125.36" waitingTime="8.00" waitingCount="1" stopTime="0.00" timeLoss="26.16" rerouteNo="0" devices="tripinfo_route_34.0" vType="car" speedFactor="0.83" vaporized=""/>
    <tripinfo id="route_29.4" depart="75.00" departLane="-422986370#2_0" departPos="297.23" departSpeed="0.00" departDelay="0.15" arrival="105.00" arrivalLane="-430406005#1_0" arrivalPos="32.75" arrivalSpeed="10.37" duration="30.00" routeLength="69.94" waitingTime="15.00" waitingCount="1" stopTime="0.00" timeLoss="25.48" rerouteNo="0" devices="tripinfo_route_29.4" vType="car" speedFactor="1.15" vaporized=""/>
    <tripinfo id="route_34.3" depart="80.00" departLane="133126008#0_0" departPos="127.31" departSpeed="0.00" departDelay="4.18" arrival="109.00" arrivalLane="1369578054_0" arrivalPos="25.77" arrivalSpeed="10.31" duration="29.00" routeLength="111.83" waitingTime="2.00" waitingCount="1" stopTime="0.00" timeLoss="22.20" rerouteNo="0" devices="tripinfo_route_34.3" vType="car" speedFactor="0.97" vaporized=""/>
    <tripinfo id="route_34.6" depart="83.00" departLane="133126008#0_0" departPos="162.26" departSpeed="0.00" departDelay="0.37" arrival="109.00" arrivalLane="1369578054_1" arrivalPos="50.19" arrivalSpeed="11.42" duration="26.00" routeLength="101.29" waitingTime="4.00" waitingCount="2" stopTime="0.00" timeLoss="19.70" rerouteNo="0" devices="tripinfo_route_34.6" vType="car" speedFactor="0.94" vaporized=""/>
    <tripinfo id="route_29.8" depart="85.00" departLane="-422986370#2_0" departPos="216.62" departSpeed="0.00" departDelay="4.30" arrival="111.00" arrivalLane="-430406005#1_0" arrivalPos="7.61" arrivalSpeed="10.50" duration="26.00" routeLength="125.42" waitingTime="0.00" waitingCount="0" stopTime="0.00" timeLoss="18.36" rerouteNo="0" devices="tripinfo_route_29.8" vType="car" speedFactor="1.02" vaporized=""/>
    <tripinfo id="route_34.5" depart="82.00" departLane="133126008#0_0" departPos="98.03" departSpeed="0.00" departDelay="1.64" arrival="111.00" arrivalLane="1369578054_1" arrivalPos="46.01" arrivalSpeed="11.38" duration="29.00" routeLength="161.35" waitingTime="0.00" waitingCount="0" stopTime="0.00" timeLoss="19.25" rerouteNo="0" devices="tripinfo_route_34.5" vType="car" speedFactor="0.99" vaporized=""/>
    <tripinfo id="route_29.2" depart="72.00" departLane="-422986370#2_0" departPos="99.24" departSpeed="0.00" departDelay="0.07" arrival="112.00" arrivalLane="-430406005#1_1" arrivalPos="42.28" arrivalSpeed="12.15" duration="40.00" routeLength="277.46" waitingTime="0.00" waitingCount="0" stopTime="0.00" timeLoss="21.79" rerouteNo="0" devices="tripinfo_route_29.2" vType="car" speedFactor="0.93" vaporized=""/>
    <tripinfo id="route_35.2" depart="78.00" departLane="133126008#0_0" departPos="111.59" departSpeed="0.00" departDelay="3.34" arrival="112.00" arrivalLane="133126030#0_0" arrivalPos="51.67" arrivalSpeed="10.09" duration="34.00" routeLength="127.60" waitingTime="2.00" waitingCount="1" stopTime="0.00" timeLoss="25.01" rerouteNo="0" devices="tripinfo_route_35.2" vType="car" speedFactor="1.02" vaporized=""/>
    <tripinfo id="route_35.1" depart="73.00" departLane="133126008#0_0" departPos="144.87" departSpeed="0.00" departDelay="1.17" arrival="114.00" arrivalLane="133126030#0_0" arrivalPos="141.65" arrivalSpeed="15.40" duration="41.00" routeLength="184.30" waitingTime="10.00" waitingCount="1" stopTime="0.00" timeLoss="27.64" rerouteNo="0" devices="tripinfo_route_35.1" vType="car" speedFactor="0.94" vaporized=""/>
    <tripinfo id="route_30.0" depart="69.00" departLane="-422986370#2_0" departPos="201.60" departSpeed="0.00" departDelay="0.00" arrival="115.00" arrivalLane="137415945#0_0" arrivalPos="9.07" arrivalSpeed="15.19" duration="46.00" routeLength="253.29" waitingTime="7.00" waitingCount="1" stopTime="0.00" timeLoss="28.37" rerouteNo="0" devices="tripinfo_route_30.0" vType="car" speedFactor="0.94" vaporized=""/>
    <tripinfo id="route_29.3" depart="74.00" departLane="-422986370#2_0" departPos="173.76" departSpeed="0.00" departDelay="0.61" arrival="116.00" arrivalLane="-430406005#1_1" arrivalPos="127.79" arrivalSpeed="15.71" duration="42.00" routeLength="288.46" waitingTime="0.00" waitingCount="0" stopTime="0.00" timeLoss="22.86" rerouteNo="0" devices="tripinfo_route_29.3" vType="car" speedFactor="0.87" vaporized=""/>
    <tripinfo id="route_34.1" depart="72.00" departLane="133126008#0_0" departPos="23.09" departSpeed="0.00" departDelay="0.73" arrival="117.00" arrivalLane="1369578054_1" arrivalPos="90.42" arrivalSpeed="15.06" duration="45.00" routeLength="280.69" waitingTime="0.00" waitingCount="0" stopTime="0.00" timeLoss="27.01" rerouteNo="0" devices="tripinfo_route_34.1" vType="car" speedFactor="0.94" vaporized=""/>
    <tripinfo id="route_29.5" depart="78.00" departLane="-422986370#2_0" departPos="127.34" departSpeed="0.00" departDelay="1.69" arrival="117.00" arrivalLane="-430406005#1_1" arrivalPos="62.84" arrivalSpeed="14.21" duration="39.00" routeLength="269.93" waitingTime="0.00" waitingCount="0" stopTime="0.00" timeLoss="22.45" rerouteNo="0" devices="tripinfo_route_29.5" vType="car" speedFactor="1.03" vaporized=""/>
    <tripinfo id="route_29.9" depart="86.00" departLane="-422986370#2_0" departPos="275.45" departSpeed="0.00" departDelay="3.83" arrival="117.00" arrivalLane="-430406005#1_1" arrivalPos="175.19" arrivalSpeed="16.21" duration="31.00" routeLength="234.17" waitingTime="0.00" waitingCount="0" stopTime="0.00" timeLoss="16.15" rerouteNo="0" devices="tripinfo_route_29.9" vType="car" speedFactor="1.04" vaporized=""/>
    <tripinfo id="route_34.2" depart="75.00" departLane="133126008#0_0" departPos="165.65" departSpeed="0.00" departDelay="1.46" arrival="118.00" arrivalLane="1369578054_0" arrivalPos="207.23" arrivalSpeed="15.38" duration="43.00" routeLength="254.95" waitingTime="10.00" waitingCount="1" stopTime="0.00" timeLoss="26.41" rerouteNo="0" devices="tripinfo_route_34.2" vType="car" speedFactor="0.95" vaporized=""/>
    <tripinfo id="route_35.3" depart="80.00" departLane="133126008#0_0" departPos="66.33" departSpeed="0.00" departDelay="2.51" arrival="118.00" arrivalLane="133126030#0_0" arrivalPos="67.66" arrivalSpeed="11.34" duration="38.00" routeLength="188.86" waitingTime="0.00" waitingCount="0" stopTime="0.00" timeLoss="25.23" rerouteNo="0" devices="tripinfo_route_35.3" vType="car" speedFactor="1.00" vaporized=""/>
    <tripinfo id="route_30.5" depart="82.00" departLane="-422986370#2_0" departPos="245.96" departSpeed="0.00" departDelay="3.26" arrival="118.00" arrivalLane="137415945#0_0" arrivalPos="11.12" arrivalSpeed="14.18" duration="36.00" routeLength="210.98" waitingTime="2.00" waitingCount="1" stopTime="0.00" timeLoss="19.18" rerouteNo="0" devices="tripinfo_route_30.5" vType="car" speedFactor="0.85" vaporized=""/>
    <tripinfo id="route_30.4" depart="78.00" departLane="-422986370#2_0" departPos="212.90" departSpeed="0.00" departDelay="1.21" arrival="119.00" arrivalLane="137415945#0_0" arrivalPos="3.69" arrivalSpeed="15.24" duration="41.00" routeLength="236.61" waitingTime="1.00" waitingCount="1" stopTime="0.00" timeLoss="24.54" rerouteNo="0" devices="tripinfo_route_30.4" vType="car" speedFactor="0.96" vaporized=""/>
    <tripinfo id="route_29.6" depart="82.00" departLane="-422986370#2_0" departPos="192.05" departSpeed="0.00" departDelay="4.22" arrival="119.00" arrivalLane="-430406005#1_0" arrivalPos="74.50" arrivalSpeed="14.91" duration="37.00" routeLength="216.88" waitingTime="0.00" waitingCount="0" stopTime="0.00" timeLoss="23.47" rerouteNo="0" devices="tripinfo_route_29.6" vType="car" speedFactor="1.09" vaporized=""/>
    <tripinfo id="route_34.4" depart="80.00" departLane="133126008#0_0" departPos="85.67" departSpeed="0.00" departDelay="1.91" arrival="120.00" arrivalLane="1369578054_1" arrivalPos="123.18" arrivalSpeed="16.23" duration="40.00" routeLength="250.86" waitingTime="0.00" waitingCount="0" stopTime="0.00" timeLoss="24.89" rerouteNo="0" devices="tripinfo_route_34.4" vType="car" speedFactor="1.10" vaporized=""/>
    <tripinfo id="route_34.7" depart="86.00" departLane="133126008#0_0" departPos="44.71" departSpeed="0.00" departDelay="1.10" arrival="120.00" arrivalLane="1369578054_1" arrivalPos="62.18" arrivalSpeed="14.03" duration="34.00" routeLength="230.83" waitingTime="0.00" waitingCount="0" stopTime="0.00" timeLoss="19.37" rerouteNo="0" devices="tripinfo_route_34.7" vType="car" speedFactor="0.97" vaporized=""/>
    <tripinfo id="route_29.0" depart="69.00" departLane="-422986370#2_0" departPos="1.81" departSpeed="0.00" departDelay="0.00" arrival="121.00" arrivalLane="-430406005#1_1" arrivalPos="159.13" arrivalSpeed="16.13" duration="52.00" routeLength="491.75" waitingTime="0.00" waitingCount="0" stopTime="0.00" timeLoss="22.19" rerouteNo="0" devices="tripinfo_route_29.0" vType="car" speedFactor="1.06" vaporized=""/>
    <tripinfo id="route_35.0" depart="69.00" departLane="133126008#0_0" departPos="47.21" departSpeed="0.00" departDelay="0.00" arrival="121.00" arrivalLane="133126030#0_0" arrivalPos="137.72" arrivalSpeed="15.71" duration="52.00" routeLength="278.03" waitingTime="1.00" waitingCount="1" stopTime="0.00" timeLoss="33.80" rerouteNo="0" devices="tripinfo_route_35.0" vType="car" speedFactor="1.05" vaporized=""/>
    <tripinfo id="route_35.6" depart="91.00" departLane="133126008#0_0" departPos="5.63" departSpeed="0.00" departDelay="5.02" arrival="121.00" arrivalLane="133126030#0_0" arrivalPos="23.99" arrivalSpeed="9.10" duration="30.00" routeLength="205.89" waitingTime="0.00" waitingCount="0" stopTime="0.00" timeLoss="16.46" rerouteNo="0" devices="tripinfo_route_35.6" vType="car" speedFactor="1.00" vaporized=""/>
    <tripinfo id="route_29.7" depart="83.00" departLane="-422986370#2_0" departPos="3.49" departSpeed="0.00" departDelay="3.76" arrival="123.00" arrivalLane="-430406005#1_1" arrivalPos="50.22" arrivalSpeed="16.18" duration="40.00" routeLength="381.16" waitingTime="0.00" waitingCount="0" stopTime="0.00" timeLoss="14.33" rerouteNo="0" devices="tripinfo_route_29.7" vType="car" speedFactor="0.90" vaporized=""/>
    <tripinfo id="route_29.13" depart="99.00" departLane="-422986370#2_0" departPos="203.40" departSpeed="0.00" departDelay="10.98" arrival="123.00" arrivalLane="-430406005#1_1" arrivalPos="76.84" arrivalSpeed="16.57" duration="24.00" routeLength="207.88" waitingTime="0.00" waitingCount="0" stopTime="0.00" timeLoss="10.73" rerouteNo="0" devices="tripinfo_route_29.13" vType="car" speedFactor="1.06" vaporized=""/>
    <tripinfo id="route_34.8" depart="92.00" departLane="133126008#0_0" departPos="104.16" departSpeed="0.00" departDelay="4.82" arrival="125.00" arrivalLane="1369578054_1" arrivalPos="170.67" arrivalSpeed="16.29" duration="33.00" routeLength="279.87" waitingTime="0.00" waitingCount="0" stopTime="0.00" timeLoss="15.80" rerouteNo="0" devices="tripinfo_route_34.8" vType="car" speedFactor="1.01" vaporized=""/>
    <tripinfo id="route_30.1" depart="71.00" departLane="-422986370#2_0" departPos="118.79" departSpeed="0.00" departDelay="0.05" arrival="126.00" arrivalLane="137415945#0_0" arrivalPos="6.53" arrivalSpeed="16.44" duration="55.00" routeLength="333.56" waitingTime="0.00" waitingCount="0" stopTime="0.00" timeLoss="33.53" rerouteNo="0" devices="tripinfo_route_30.1" vType="car" speedFactor="1.03" vaporized=""/>
    <tripinfo id="route_29.10" depart="90.00" departLane="-422986370#2_0" departPos="79.17" departSpeed="0.00" departDelay="6.37" arrival="126.00" arrivalLane="-430406005#1_1" arrivalPos="73.55" arrivalSpeed="16.29" duration="36.00" routeLength="328.82" waitingTime="0.00" waitingCount="0" stopTime="0.00" timeLoss="15.18" rerouteNo="0" devices="tripinfo_route_29.10" vType="car" speedFactor="0.98" vaporized=""/>
    <tripinfo id="route_35.5" depart="85.00" departLane="133126008#0_0" departPos="65.41" departSpeed="0.00" departDelay="1.85" arrival="127.00" arrivalLane="133126030#0_0" arrivalPos="157.74" arrivalSpeed="15.87" duration="42.00" routeLength="279.84" waitingTime="0.00" waitingCount="0" stopTime="0.00" timeLoss="23.00" rerouteNo="0" devices="tripinfo_route_35.5" vType="car" speedFactor="0.98" vaporized=""/>
    <tripinfo id="route_29.11" depart="97.00" departLane="-422986370#2_0" departPos="128.13" departSpeed="0.00" departDelay="11.91" arrival="128.00" arrivalLane="-430406005#1_1" arrivalPos="28.15" arrivalSpeed="14.27" duration="31.00" routeLength="234.45" waitingTime="0.00" waitingCount="0" stopTime="0.00" timeLoss="16.63" rerouteNo="0" devices="tripinfo_route_29.11" vType="car" speedFactor="1.15" vaporized=""/>
    <tripinfo id="route_30.3" depart="75.00" departLane="-422986370#2_0" departPos="94.02" departSpeed="0.00" departDelay="0.16" arrival="129.00" arrivalLane="137415945#0_0" arrivalPos="8.17" arrivalSpeed="16.53" duration="54.00" routeLength="359.97" waitingTime="0.00" waitingCount="0" stopTime="0.00" timeLoss="30.27" rerouteNo="0" devices="tripinfo_route_30.3" vType="car" speedFactor="1.01" vaporized=""/>
    <tripinfo id="route_35.4" depart="82.00" departLane="133126008#0_0" departPos="2.61" departSpeed="0.00" departDelay="1.68" arrival="130.00" arrivalLane="133126030#0_0" arrivalPos="167.58" arrivalSpeed="15.41" duration="48.00" routeLength="352.49" waitingTime="0.00" waitingCount="0" stopTime="0.00" timeLoss="25.11" rerouteNo="0" devices="tripinfo_route_35.4" vType="car" speedFactor="0.94" vaporized=""/>
    <tripinfo id="route_29.12" depart="99.00" departLane="-422986370#2_0" departPos="178.54" departSpeed="0.00" departDelay="12.44" arrival="130.00" arrivalLane="-430406005#1_1" arrivalPos="83.19" arrivalSpeed="16.06" duration="31.00" routeLength="239.08" waitingTime="0.00" waitingCount="0" stopTime="0.00" timeLoss="16.30" rerouteNo="0" devices="tripinfo_route_29.12" vType="car" speedFactor="1.02" vaporized=""/>
    <tripinfo id="route_30.2" depart="73.00" departLane="-422986370#2_0" departPos="26.67" departSpeed="0.00" departDelay="0.10" arrival="131.00" arrivalLane="137415945#0_0" arrivalPos="3.36" arrivalSpeed="16.38" duration="58.00" routeLength="422.51" waitingTime="0.00" waitingCount="0" stopTime="0.00" timeLoss="31.05" rerouteNo="0" devices="tripinfo_route_30.2" vType="car" speedFactor="1.01" vaporized=""/>
    <tripinfo id="route_29.14" depart="103.00" departLane="-422986370#2_0" departPos="170.80" departSpeed="0.00" departDelay="13.52" arrival="135.00" arrivalLane="-430406005#1_0" arrivalPos="168.24" arrivalSpeed="16.16" duration="32.00" routeLength="331.87" waitingTime="0.00" waitingCount="0" stopTime="0.00" timeLoss="11.60" rerouteNo="0" devices="tripinfo_route_29.14" vType="car" speedFactor="1.07" vaporized=""/>
    <tripinfo id="route_30.11" depart="103.00" departLane="-422986370#2_0" departPos="228.06" departSpeed="0.00" departDelay="12.57" arrival="135.00" arrivalLane="137415945#0_0" arrivalPos="10.54" arrivalSpeed="14.37" duration="32.00" routeLength="228.31" waitingTime="0.00" waitingCount="0" stopTime="0.00" timeLoss="14.28" rerouteNo="0" devices="tripinfo_route_30.11" vType="car" speedFactor="0.87" vaporized=""/>
    <tripinfo id="route_38.2" depart="78.00" departLane="485211947#0_0" departPos="162.23" departSpeed="0.00" departDelay="4.39" arrival="145.00" arrivalLane="-430406005#1_1" arrivalPos="54.97" arrivalSpeed="11.01" duration="67.00" routeLength="105.72" waitingTime="44.00" waitingCount="1" stopTime="0.00" timeLoss="59.98" rerouteNo="0" devices="tripinfo_route_38.2" vType="car" speedFactor="1.18" vaporized=""/>
    <tripinfo id="route_38.3" depart="83.00" departLane="485211947#0_0" departPos="0.16" departSpeed="0.00" departDelay="7.08" arrival="147.00" arrivalLane="-430406005#1_1" arrivalPos="32.26" arrivalSpeed="10.87" duration="64.00" routeLength="245.09" waitingTime="26.00" waitingCount="1" stopTime="0.00" timeLoss="46.71" rerouteNo="0" devices="tripinfo_route_38.3" vType="car" speedFactor="0.90" vaporized=""/>
    <tripinfo id="route_37.0" depart="69.00" departLane="485211947#0_0" departPos="162.24" departSpeed="0.00" departDelay="0.00" arrival="149.00" arrivalLane="137415945#0_0" arrivalPos="6.94" arrivalSpeed="15.20" duration="80.00" routeLength="189.23" waitingTime="50.00" waitingCount="1" stopTime="0.00" timeLoss="67.27" rerouteNo="0" devices="tripinfo_route_37.0" vType="car" speedFactor="0.94" vaporized=""/>
    <tripinfo id="route_37.1" depart="72.00" departLane="485211947#0_0" departPos="76.22" departSpeed="0.00" departDelay="0.96" arrival="149.00" arrivalLane="137415945#0_1" arrivalPos="2.03" arrivalSpeed="15.39" duration="77.00" routeLength="270.34" waitingTime="37.00" waitingCount="1" stopTime="0.00" timeLoss="60.49" rerouteNo="0" devices="tripinfo_route_37.1" vType="car" speedFactor="1.16" vaporized=""/>
    <tripinfo id="route_38.1" depart="72.00" departLane="485211947#0_0" departPos="178.72" departSpeed="0.00" departDelay="0.69" arrival="152.00" arrivalLane="-430406005#1_1" arrivalPos="170.84" arrivalSpeed="16.21" duration="80.00" routeLength="205.10" waitingTime="51.00" waitingCount="1" stopTime="0.00" timeLoss="65.87" rerouteNo="0" devices="tripinfo_route_38.1" vType="car" speedFactor="1.02" vaporized=""/>
    <tripinfo id="route_37.2" depart="77.00" departLane="485211947#0_0" departPos="72.22" departSpeed="0.00" departDelay="3.92" arrival="152.00" arrivalLane="137415945#0_1" arrivalPos="12.22" arrivalSpeed="15.30" duration="75.00" routeLength="284.53" waitingTime="33.00" waitingCount="1" stopTime="0.00" timeLoss="55.90" rerouteNo="0" devices="tripinfo_route_37.2" vType="car" speedFactor="0.93" vaporized=""/>
    <tripinfo id="route_36.0" depart="69.00" departLane="485211947#0_0" departPos="11.17" departSpeed="0.00" departDelay="0.00" arrival="153.00" arrivalLane="1369578054_0" arrivalPos="74.16" arrivalSpeed="12.78" duration="84.00" routeLength="260.46" waitingTime="36.00" waitingCount="1" stopTime="0.00" timeLoss="64.51" rerouteNo="0" devices="tripinfo_route_36.0" vType="car" speedFactor="0.89" vaporized=""/>
    <tripinfo id="route_38.0" depart="69.00" departLane="485211947#0_0" departPos="59.66" departSpeed="0.00" departDelay="0.00" arrival="153.00" arrivalLane="-430406005#1_1" arrivalPos="133.07" arrivalSpeed="16.31" duration="84.00" routeLength="286.39" waitingTime="43.00" waitingCount="1" stopTime="0.00" timeLoss="63.32" rerouteNo="0" devices="tripinfo_route_38.0" vType="car" speedFactor="0.86" vaporized=""/>
    <tripinfo id="route_36.2" depart="73.00" departLane="485211947#0_0" departPos="123.80" departSpeed="0.00" departDelay="0.67" arrival="153.00" arrivalLane="1369578054_0" arrivalPos="171.28" arrivalSpeed="13.27" duration="80.00" routeLength="244.94" waitingTime="43.00" waitingCount="1" stopTime="0.00" timeLoss="60.83" rerouteNo="0" devices="tripinfo_route_36.2" vType="car" speedFactor="0.83" vaporized=""/>
    <tripinfo id="route_37.3" depart="83.00" departLane="485211947#0_0" departPos="62.79" departSpeed="0.00" departDelay="7.88" arrival="153.00" arrivalLane="137415945#0_1" arrivalPos="2.64" arrivalSpeed="16.00" duration="70.00" routeLength="284.38" waitingTime="28.00" waitingCount="1" stopTime="0.00" timeLoss="52.01" rerouteNo="0" devices="tripinfo_route_37.3" vType="car" speedFactor="1.10" vaporized=""/>
    <tripinfo id="route_37.4" depart="88.00" departLane="485211947#0_0" departPos="22.13" departSpeed="0.00" departDelay="10.84" arrival="154.00" arrivalLane="137415945#0_1" arrivalPos="0.30" arrivalSpeed="14.55" duration="66.00" routeLength="322.70" waitingTime="21.00" waitingCount="1" stopTime="0.00" timeLoss="43.82" rerouteNo="0" devices="tripinfo_route_37.4" vType="car" speedFactor="0.88" vaporized=""/>
    <tripinfo id="route_38.4" depart="89.00" departLane="485211947#0_0" departPos="2.16" departSpeed="0.00" departDelay="10.77" arrival="156.00" arrivalLane="-430406005#1_1" arrivalPos="124.92" arrivalSpeed="16.17" duration="67.00" routeLength="335.74" waitingTime="22.00" waitingCount="1" stopTime="0.00" timeLoss="45.03" rerouteNo="0" devices="tripinfo_route_38.4" vType="car" speedFactor="1.00" vaporized=""/>
    <tripinfo id="route_37.6" depart="94.00" departLane="485211947#0_0" departPos="66.16" departSpeed="0.00" departDelay="12.76" arrival="156.00" arrivalLane="137415945#0_1" arrivalPos="7.30" arrivalSpeed="15.24" duration="62.00" routeLength="285.67" waitingTime="19.00" waitingCount="1" stopTime="0.00" timeLoss="43.18" rerouteNo="0" devices="tripinfo_route_37.6" vType="car" speedFactor="0.91" vaporized=""/>
    <tripinfo id="route_36.7" depart="94.00" departLane="485211947#0_0" departPos="136.99" departSpeed="0.00" departDelay="13.34" arrival="157.00" arrivalLane="1369578054_0" arrivalPos="103.24" arrivalSpeed="13.98" duration="63.00" routeLength="163.71" waitingTime="33.00" waitingCount="1" stopTime="0.00" timeLoss="51.02" rerouteNo="0" devices="tripinfo_route_36.7" vType="car" speedFactor="0.88" vaporized=""/>
    <tripinfo id="route_38.7" depart="118.00" departLane="485211947#0_0" departPos="89.98" departSpeed="0.00" departDelay="32.85" arrival="157.00" arrivalLane="-430406005#1_1" arrivalPos="17.45" arrivalSpeed="10.30" duration="39.00" routeLength="140.45" waitingTime="6.00" waitingCount="1" stopTime="0.00" timeLoss="29.09" rerouteNo="0" devices="tripinfo_route_38.7" vType="car" speedFactor="1.02" vaporized=""/>
    <tripinfo id="route_36.6" depart="89.00" departLane="485211947#0_0" departPos="97.89" departSpeed="0.00" departDelay="10.00" arrival="159.00" arrivalLane="1369578054_0" arrivalPos="102.74" arrivalSpeed="14.59" duration="70.00" routeLength="202.31" waitingTime="33.00" waitingCount="1" stopTime="0.00" timeLoss="56.21" rerouteNo="0" devices="tripinfo_route_36.6" vType="car" speedFactor="1.00" vaporized=""/>
    <tripinfo id="route_37.5" depart="93.00" departLane="485211947#0_0" departPos="54.37" departSpeed="0.00" departDelay="13.80" arrival="159.00" arrivalLane="137415945#0_1" arrivalPos="9.07" arrivalSpeed="16.43" duration="66.00" routeLength="299.22" waitingTime="15.00" waitingCount="2" stopTime="0.00" timeLoss="47.62" rerouteNo="0" devices="tripinfo_route_37.5" vType="car" speedFactor="1.14" vaporized=""/>
    <tripinfo id="route_38.5" depart="94.00" departLane="485211947#0_0" departPos="2.06" departSpeed="0.00" departDelay="13.47" arrival="160.00" arrivalLane="-430406005#1_1" arrivalPos="118.46" arrivalSpeed="15.76" duration="66.00" routeLength="329.38" waitingTime="17.00" waitingCount="1" stopTime="0.00" timeLoss="43.83" rerouteNo="0" devices="tripinfo_route_38.5" vType="car" speedFactor="0.91" vaporized=""/>
    <tripinfo id="route_37.7" depart="105.00" departLane="485211947#0_0" departPos="78.82" departSpeed="0.00" departDelay="21.72" arrival="160.00" arrivalLane="137415945#0_1" arrivalPos="5.01" arrivalSpeed="16.12" duration="55.00" routeLength="270.72" waitingTime="13.00" waitingCount="1" stopTime="0.00" timeLoss="38.67" rerouteNo="0" devices="tripinfo_route_37.7" vType="car" speedFactor="1.09" vaporized=""/>
    <tripinfo id="route_36.1" depart="71.00" departLane="485211947#0_0" departPos="100.86" departSpeed="0.00" departDelay="0.33" arrival="161.00" arrivalLane="1369578054_0" arrivalPos="281.37" arrivalSpeed="16.34" duration="90.00" routeLength="377.98" waitingTime="43.00" waitingCount="1" stopTime="0.00" timeLoss="66.13" rerouteNo="0" devices="tripinfo_route_36.1" vType="car" speedFactor="0.99" vaporized=""/>
    <tripinfo id="route_37.8" depart="112.00" departLane="485211947#0_0" departPos="23.76" departSpeed="0.00" departDelay="26.68" arrival="162.00" arrivalLane="137415945#0_1" arrivalPos="1.46" arrivalSpeed="16.50" duration="50.00" routeLength="322.23" waitingTime="6.00" waitingCount="1" stopTime="0.00" timeLoss="29.99" rerouteNo="0" devices="tripinfo_route_37.8" vType="car" speedFactor="1.01" vaporized=""/>
    <tripinfo id="route_38.6" depart="100.00" departLane="485211947#0_0" departPos="37.56" departSpeed="0.00" departDelay="17.16" arrival="164.00" arrivalLane="-430406005#1_1" arrivalPos="142.51" arrivalSpeed="16.12" duration="64.00" routeLength="317.92" waitingTime="16.00" waitingCount="1" stopTime="0.00" timeLoss="42.75" rerouteNo="0" devices="tripinfo_route_38.6" vType="car" speedFactor="0.96" vaporized=""/>
    <tripinfo id="route_37.9" depart="123.00" departLane="485211947#0_0" departPos="21.22" departSpeed="0.00" departDelay="35.64" arrival="164.00" arrivalLane="137415945#0_1" arrivalPos="9.54" arrivalSpeed="16.50" duration="41.00" routeLength="332.86" waitingTime="0.00" waitingCount="0" stopTime="0.00" timeLoss="20.35" rerouteNo="0" devices="tripinfo_route_37.9" vType="car" speedFactor="1.12" vaporized=""/>
    <tripinfo id="route_38.9" depart="131.00" departLane="485211947#0_0" departPos="25.07" departSpeed="0.00" departDelay="41.24" arrival="164.00" arrivalLane="-430406005#1_1" arrivalPos="41.25" arrivalSpeed="12.05" duration="33.00" routeLength="229.16" waitingTime="0.00" waitingCount="0" stopTime="0.00" timeLoss="17.28" rerouteNo="0" devices="tripinfo_route_38.9" vType="car" speedFactor="0.96" vaporized=""/>
    <tripinfo id="route_36.4" depart="81.00" departLane="485211947#0_0" departPos="51.38" departSpeed="0.00" departDelay="5.34" arrival="165.00" arrivalLane="1369578054_0" arrivalPos="169.94" arrivalSpeed="16.15" duration="84.00" routeLength="316.02" waitingTime="33.00" waitingCount="1" stopTime="0.00" timeLoss="63.35" rerouteNo="0" devices="tripinfo_route_36.4" vType="car" speedFactor="1.18" vaporized=""/>
    <tripinfo id="route_36.5" depart="83.00" departLane="485211947#0_0" departPos="122.04" departSpeed="0.00" departDelay="5.67" arrival="165.00" arrivalLane="1369578054_0" arrivalPos="292.70" arrivalSpeed="14.77" duration="82.00" routeLength="368.12" waitingTime="36.00" waitingCount="1" stopTime="0.00" timeLoss="55.76" rerouteNo="0" devices="tripinfo_route_36.5" vType="car" speedFactor="0.90" vaporized=""/>
    <tripinfo id="route_36.11" depart="122.00" departLane="485211947#0_0" departPos="4.42" departSpeed="0.00" departDelay="34.67" arrival="166.00" arrivalLane="1369578054_0" arrivalPos="10.38" arrivalSpeed="7.20" duration="44.00" routeLength="203.42" waitingTime="2.00" waitingCount="1" stopTime="0.00" timeLoss="29.31" rerouteNo="0" devices="tripinfo_route_36.11" vType="car" speedFactor="0.91" vaporized=""/>
    <tripinfo id="route_36.8" depart="100.00" departLane="485211947#0_0" departPos="15.23" departSpeed="0.00" departDelay="17.67" arrival="167.00" arrivalLane="1369578054_0" arrivalPos="103.63" arrivalSpeed="13.74" duration="67.00" routeLength="285.86" waitingTime="21.00" waitingCount="1" stopTime="0.00" timeLoss="48.70" rerouteNo="0" devices="tripinfo_route_36.8" vType="car" speedFactor="1.06" vaporized=""/>
    <tripinfo id="route_38.8" depart="125.00" departLane="485211947#0_0" departPos="40.06" departSpeed="0.00" departDelay="37.54" arrival="167.00" arrivalLane="-430406005#1_1" arrivalPos="132.35" arrivalSpeed="15.97" duration="42.00" routeLength="305.27" waitingTime="0.00" waitingCount="0" stopTime="0.00" timeLoss="22.33" rerouteNo="0" devices="tripinfo_route_38.8" vType="car" speedFactor="1.10" vaporized=""/>
    <tripinfo id="route_36.12" depart="130.00" departLane="485211947#0_0" departPos="74.04" departSpeed="0.00" departDelay="41.01" arrival="169.00" arrivalLane="1369578054_0" arrivalPos="57.11" arrivalSpeed="11.91" duration="39.00" routeLength="180.53" waitingTime="3.00" waitingCount="1" stopTime="0.00" timeLoss="25.63" rerouteNo="0" devices="tripinfo_route_36.12" vType="car" speedFactor="0.89" vaporized=""/>
    <tripinfo id="route_37.11" depart="140.00" departLane="485211947#0_0" departPos="65.97" departSpeed="0.00" departDelay="48.56" arrival="169.00" arrivalLane="137415945#0_1" arrivalPos="3.62" arrivalSpeed="16.50" duration="29.00" routeLength="282.18" waitingTime="0.00" waitingCount="0" stopTime="0.00" timeLoss="11.14" rerouteNo="0" devices="tripinfo_route_37.11" vType="car" speedFactor="0.99" vaporized=""/>