<?xml version="1.0" encoding="UTF-8"?>

<!-- generated on 2025-05-04 22:10:17 by Eclipse SUMO sumo Version 1.20.0
<configuration xmlns:xsi="http://www.w3.org/2001/XMLSchema-instance" xsi:noNamespaceSchemaLocation="http://sumo.dlr.de/xsd/sumoConfiguration.xsd">

    <input>
        <net-file value="config/osm.net.xml"/>
        <route-files value="draft/generated_0_093_5_069_0_649_7_027_15_.rou.xml"/>
    </input>

    <output>
        <tripinfo-output value="draft/tripinfo_0_093_5_069_0_649_7_027_15.xml"/>
    </output>

    <time>
        <step-length value="1"/>
    </time>

    <traci_server>
        <remote-port value="48487"/>
    </traci_server>

    <gui_only>
        <start value="true"/>
    </gui_only>

</configuration>
-->

<tripinfos xmlns:xsi="http://www.w3.org/2001/XMLSchema-instance" xsi:noNamespaceSchemaLocation="http://sumo.dlr.de/xsd/tripinfo_file.xsd">
    <tripinfo id="route_37.0" depart="15.00" departLane="485211947#0_0" departPos="162.24" departSpeed="0.00" departDelay="0.00" arrival="38.00" arrivalLane="137415945#0_0" arrivalPos="6.94" arrivalSpeed="15.59" duration="23.00" routeLength="189.23" waitingTime="0.00" waitingCount="0" stopTime="0.00" timeLoss="10.52" rerouteNo="0" devices="tripinfo_route_37.0" vType="car" speedFactor="0.94" vaporized=""/>
    <tripinfo id="route_38.2" depart="24.00" departLane="485211947#0_0" departPos="162.23" departSpeed="0.00" departDelay="4.39" arrival="41.00" arrivalLane="-430406005#1_1" arrivalPos="54.97" arrivalSpeed="12.57" duration="17.00" routeLength="105.72" waitingTime="0.00" waitingCount="0" stopTime="0.00" timeLoss="9.51" rerouteNo="0" devices="tripinfo_route_38.2" vType="car" speedFactor="1.18" vaporized=""/>
    <tripinfo id="route_38.1" depart="18.00" departLane="485211947#0_0" departPos="178.72" departSpeed="0.00" departDelay="0.69" arrival="42.00" arrivalLane="-430406005#1_1" arrivalPos="170.84" arrivalSpeed="16.29" duration="24.00" routeLength="205.10" waitingTime="0.00" waitingCount="0" stopTime="0.00" timeLoss="10.64" rerouteNo="0" devices="tripinfo_route_38.1" vType="car" speedFactor="1.02" vaporized=""/>
    <tripinfo id="route_37.1" depart="18.00" departLane="485211947#0_0" departPos="76.22" departSpeed="0.00" departDelay="0.96" arrival="46.00" arrivalLane="137415945#0_1" arrivalPos="2.03" arrivalSpeed="16.57" duration="28.00" routeLength="270.34" waitingTime="0.00" waitingCount="0" stopTime="0.00" timeLoss="11.13" rerouteNo="0" devices="tripinfo_route_37.1" vType="car" speedFactor="1.16" vaporized=""/>
    <tripinfo id="route_38.0" depart="15.00" departLane="485211947#0_0" departPos="59.66" departSpeed="0.00" departDelay="0.00" arrival="49.00" arrivalLane="-430406005#1_1" arrivalPos="133.07" arrivalSpeed="16.32" duration="34.00" routeLength="286.39" waitingTime="0.00" waitingCount="0" stopTime="0.00" timeLoss="13.73" rerouteNo="0" devices="tripinfo_route_38.0" vType="car" speedFactor="0.86" vaporized=""/>
    <tripinfo id="route_36.2" depart="19.00" departLane="485211947#0_0" departPos="123.80" departSpeed="0.00" departDelay="0.67" arrival="50.00" arrivalLane="1369578054_0" arrivalPos="171.28" arrivalSpeed="13.29" duration="31.00" routeLength="244.94" waitingTime="0.00" waitingCount="0" stopTime="0.00" timeLoss="11.84" rerouteNo="0" devices="tripinfo_route_36.2" vType="car" speedFactor="0.83" vaporized=""/>
    <tripinfo id="route_37.2" depart="23.00" departLane="485211947#0_0" departPos="72.22" departSpeed="0.00" departDelay="3.92" arrival="53.00" arrivalLane="137415945#0_1" arrivalPos="12.22" arrivalSpeed="15.30" duration="30.00" routeLength="284.53" waitingTime="0.00" waitingCount="0" stopTime="0.00" timeLoss="11.19" rerouteNo="0" devices="tripinfo_route_37.2" vType="car" speedFactor="0.93" vaporized=""/>
    <tripinfo id="route_36.0" depart="15.00" departLane="485211947#0_0" departPos="11.17" departSpeed="0.00" departDelay="0.00" arrival="54.00" arrivalLane="1369578054_0" arrivalPos="74.16" arrivalSpeed="13.19" duration="39.00" routeLength="260.46" waitingTime="0.00" waitingCount="0" stopTime="0.00" timeLoss="19.55" rerouteNo="0" devices="tripinfo_route_36.0" vType="car" speedFactor="0.89" vaporized=""/>
    <tripinfo id="route_31.1" depart="27.00" departLane="1235147073.116_0" departPos="6.60" departSpeed="0.00" departDelay="10.03" arrival="54.00" arrivalLane="133126030#0_1" arrivalPos="56.90" arrivalSpeed="15.52" duration="27.00" routeLength="224.82" waitingTime="0.00" waitingCount="0" stopTime="0.00" timeLoss="12.74" rerouteNo="0" devices="tripinfo_route_31.1" vType="car" speedFactor="1.05" vaporized=""/>
    <tripinfo id="route_31.0" depart="15.00" departLane="1235147073.116_0" departPos="7.14" departSpeed="0.00" departDelay="0.00" arrival="56.00" arrivalLane="133126030#0_0" arrivalPos="8.43" arrivalSpeed="7.08" duration="41.00" routeLength="175.81" waitingTime="10.00" waitingCount="1" stopTime="0.00" timeLoss="30.13" rerouteNo="0" devices="tripinfo_route_31.0" vType="car" speedFactor="1.01" vaporized=""/>
    <tripinfo id="route_36.1" depart="17.00" departLane="485211947#0_0" departPos="100.86" departSpeed="0.00" departDelay="0.33" arrival="58.00" arrivalLane="1369578054_1" arrivalPos="281.37" arrivalSpeed="16.14" duration="41.00" routeLength="377.98" waitingTime="0.00" waitingCount="0" stopTime="0.00" timeLoss="17.00" rerouteNo="0" devices="tripinfo_route_36.1" vType="car" speedFactor="0.99" vaporized=""/>
    <tripinfo id="route_32.1" depart="35.00" departLane="1235147073.116_0" departPos="15.04" departSpeed="0.00" departDelay="17.64" arrival="58.00" arrivalLane="-430406005#1_0" arrivalPos="5.79" arrivalSpeed="7.60" duration="23.00" routeLength="153.71" waitingTime="0.00" waitingCount="0" stopTime="0.00" timeLoss="11.44" rerouteNo="0" devices="tripinfo_route_32.1" vType="car" speedFactor="0.88" vaporized=""/>
    <tripinfo id="route_31.2" depart="35.00" departLane="1235147073.116_0" departPos="6.04" departSpeed="0.00" departDelay="16.05" arrival="60.00" arrivalLane="133126030#0_1" arrivalPos="41.34" arrivalSpeed="16.05" duration="25.00" routeLength="209.83" waitingTime="0.00" waitingCount="0" stopTime="0.00" timeLoss="11.49" rerouteNo="0" devices="tripinfo_route_31.2" vType="car" speedFactor="0.97" vaporized=""/>
    <tripinfo id="route_32.0" depart="18.00" departLane="1235147073.116_0" departPos="0.46" departSpeed="0.00" departDelay="3.00" arrival="64.00" arrivalLane="-430406005#1_0" arrivalPos="87.77" arrivalSpeed="12.75" duration="46.00" routeLength="250.27" waitingTime="8.00" waitingCount="1" stopTime="0.00" timeLoss="30.04" rerouteNo="0" devices="tripinfo_route_32.0" vType="car" speedFactor="1.08" vaporized=""/>
    <tripinfo id="route_36.5" depart="29.00" departLane="485211947#0_0" departPos="122.04" departSpeed="0.00" departDelay="5.67" arrival="66.00" arrivalLane="1369578054_0" arrivalPos="292.70" arrivalSpeed="14.77" duration="37.00" routeLength="368.12" waitingTime="0.00" waitingCount="0" stopTime="0.00" timeLoss="11.12" rerouteNo="0" devices="tripinfo_route_36.5" vType="car" speedFactor="0.90" vaporized=""/>
    <tripinfo id="route_33.2" depart="37.00" departLane="1235147073.116_0" departPos="0.20" departSpeed="0.00" departDelay="18.20" arrival="67.00" arrivalLane="1369578054_1" arrivalPos="50.33" arrivalSpeed="13.89" duration="30.00" routeLength="229.85" waitingTime="1.00" waitingCount="1" stopTime="0.00" timeLoss="12.88" rerouteNo="0" devices="tripinfo_route_33.2" vType="car" speedFactor="0.89" vaporized=""/>
    <tripinfo id="route_31.3" depart="46.00" departLane="1235147073.116_0" departPos="1.28" departSpeed="0.00" departDelay="25.08" arrival="68.00" arrivalLane="133126030#0_0" arrivalPos="28.13" arrivalSpeed="16.23" duration="22.00" routeLength="201.37" waitingTime="0.00" waitingCount="0" stopTime="0.00" timeLoss="9.74" rerouteNo="0" devices="tripinfo_route_31.3" vType="car" speedFactor="1.17" vaporized=""/>
    <tripinfo id="route_33.0" depart="24.00" departLane="1235147073.116_0" departPos="4.63" departSpeed="0.00" departDelay="9.00" arrival="69.00" arrivalLane="1369578054_1" arrivalPos="176.77" arrivalSpeed="16.18" duration="45.00" routeLength="351.87" waitingTime="1.00" waitingCount="1" stopTime="0.00" timeLoss="22.67" rerouteNo="0" devices="tripinfo_route_33.0" vType="car" speedFactor="1.03" vaporized=""/>
    <tripinfo id="route_33.1" depart="31.00" departLane="1235147073.116_0" departPos="2.35" departSpeed="0.00" departDelay="14.10" arrival="72.00" arrivalLane="1369578054_1" arrivalPos="189.81" arrivalSpeed="16.29" duration="41.00" routeLength="367.20" waitingTime="0.00" waitingCount="0" stopTime="0.00" timeLoss="18.07" rerouteNo="0" devices="tripinfo_route_33.1" vType="car" speedFactor="1.12" vaporized=""/>
    <tripinfo id="route_32.2" depart="41.00" departLane="1235147073.116_0" departPos="8.83" departSpeed="0.00" departDelay="21.28" arrival="73.00" arrivalLane="-430406005#1_0" arrivalPos="106.48" arrivalSpeed="14.66" duration="32.00" routeLength="260.61" waitingTime="0.00" waitingCount="0" stopTime="0.00" timeLoss="13.76" rerouteNo="0" devices="tripinfo_route_32.2" vType="car" speedFactor="0.92" vaporized=""/>
    <tripinfo id="route_33.3" depart="52.00" departLane="1235147073.116_0" departPos="9.38" departSpeed="0.00" departDelay="31.31" arrival="76.00" arrivalLane="1369578054_1" arrivalPos="8.34" arrivalSpeed="10.93" duration="24.00" routeLength="178.69" waitingTime="0.00" waitingCount="0" stopTime="0.00" timeLoss="12.12" rerouteNo="0" devices="tripinfo_route_33.3" vType="car" speedFactor="0.99" vaporized=""/>
    <tripinfo id="route_31.4" depart="54.00" departLane="1235147073.116_0" departPos="1.26" departSpeed="0.00" departDelay="31.11" arrival="77.00" arrivalLane="133126030#0_0" arrivalPos="39.35" arrivalSpeed="16.27" duration="23.00" routeLength="212.61" waitingTime="0.00" waitingCount="0" stopTime="0.00" timeLoss="10.15" rerouteNo="0" devices="tripinfo_route_31.4" vType="car" speedFactor="1.09" vaporized=""/>
    <tripinfo id="route_32.3" depart="60.00" departLane="1235147073.116_0" departPos="3.12" departSpeed="0.00" departDelay="37.91" arrival="92.00" arrivalLane="-430406005#1_0" arrivalPos="121.21" arrivalSpeed="15.81" duration="32.00" routeLength="281.04" waitingTime="0.00" waitingCount="0" stopTime="0.00" timeLoss="14.39" rerouteNo="0" devices="tripinfo_route_32.3" vType="car" speedFactor="1.04" vaporized=""/>
    <tripinfo id="route_33.4" depart="66.00" departLane="1235147073.116_0" departPos="8.73" departSpeed="0.00" departDelay="43.41" arrival="100.00" arrivalLane="1369578054_1" arrivalPos="126.81" arrivalSpeed="15.83" duration="34.00" routeLength="297.81" waitingTime="0.00" waitingCount="0" stopTime="0.00" timeLoss="15.26" rerouteNo="0" devices="tripinfo_route_33.4" vType="car" speedFactor="1.04" vaporized=""/>
    <tripinfo id="route_29.1" depart="17.00" departLane="-422986370#2_0" departPos="265.89" departSpeed="0.00" departDelay="0.54" arrival="103.00" arrivalLane="-430406005#1_1" arrivalPos="8.25" arrivalSpeed="7.85" duration="86.00" routeLength="76.79" waitingTime="66.00" waitingCount="1" stopTime="0.00" timeLoss="81.11" rerouteNo="0" devices="tripinfo_route_29.1" vType="car" speedFactor="1.09" vaporized=""/>
    <tripinfo id="route_34.0" depart="15.00" departLane="133126008#0_0" departPos="101.07" departSpeed="0.00" departDelay="0.00" arrival="104.00" arrivalLane="1369578054_1" arrivalPos="13.07" arrivalSpeed="9.11" duration="89.00" routeLength="125.36" waitingTime="62.00" waitingCount="1" stopTime="0.00" timeLoss="80.62" rerouteNo="0" devices="tripinfo_route_34.0" vType="car" speedFactor="0.83" vaporized=""/>
    <tripinfo id="route_29.4" depart="21.00" departLane="-422986370#2_0" departPos="297.23" departSpeed="0.00" departDelay="0.15" arrival="106.00" arrivalLane="-430406005#1_0" arrivalPos="32.75" arrivalSpeed="10.15" duration="85.00" routeLength="69.94" waitingTime="69.00" waitingCount="1" stopTime="0.00" timeLoss="80.35" rerouteNo="0" devices="tripinfo_route_29.4" vType="car" speedFactor="1.15" vaporized=""/>
    <tripinfo id="route_34.3" depart="26.00" departLane="133126008#0_0" departPos="127.31" departSpeed="0.00" departDelay="4.18" arrival="109.00" arrivalLane="1369578054_0" arrivalPos="25.77" arrivalSpeed="10.97" duration="83.00" routeLength="111.83" waitingTime="56.00" waitingCount="1" stopTime="0.00" timeLoss="75.88" rerouteNo="0" devices="tripinfo_route_34.3" vType="car" speedFactor="0.97" vaporized=""/>
    <tripinfo id="route_34.6" depart="29.00" departLane="133126008#0_0" departPos="162.26" departSpeed="0.00" departDelay="0.37" arrival="109.00" arrivalLane="1369578054_1" arrivalPos="50.19" arrivalSpeed="11.85" duration="80.00" routeLength="101.29" waitingTime="58.00" waitingCount="2" stopTime="0.00" timeLoss="73.55" rerouteNo="0" devices="tripinfo_route_34.6" vType="car" speedFactor="0.94" vaporized=""/>
    <tripinfo id="route_34.5" depart="28.00" departLane="133126008#0_0" departPos="98.03" departSpeed="0.00" departDelay="1.64" arrival="111.00" arrivalLane="1369578054_1" arrivalPos="46.01" arrivalSpeed="11.39" duration="83.00" routeLength="161.35" waitingTime="50.00" waitingCount="1" stopTime="0.00" timeLoss="73.19" rerouteNo="0" devices="tripinfo_route_34.5" vType="car" speedFactor="0.99" vaporized=""/>
    <tripinfo id="route_29.2" depart="18.00" departLane="-422986370#2_0" departPos="99.24" departSpeed="0.00" departDelay="0.07" arrival="112.00" arrivalLane="-430406005#1_1" arrivalPos="42.28" arrivalSpeed="12.05" duration="94.00" routeLength="277.46" waitingTime="52.00" waitingCount="1" stopTime="0.00" timeLoss="76.08" rerouteNo="0" devices="tripinfo_route_29.2" vType="car" speedFactor="0.93" vaporized=""/>
    <tripinfo id="route_35.2" depart="24.00" departLane="133126008#0_0" departPos="111.59" departSpeed="0.00" departDelay="3.34" arrival="112.00" arrivalLane="133126030#0_0" arrivalPos="51.67" arrivalSpeed="11.03" duration="88.00" routeLength="127.60" waitingTime="56.00" waitingCount="1" stopTime="0.00" timeLoss="78.67" rerouteNo="0" devices="tripinfo_route_35.2" vType="car" speedFactor="1.02" vaporized=""/>
    <tripinfo id="route_29.8" depart="31.00" departLane="-422986370#2_0" departPos="216.62" departSpeed="0.00" departDelay="4.30" arrival="112.00" arrivalLane="-430406005#1_0" arrivalPos="7.61" arrivalSpeed="9.75" duration="81.00" routeLength="125.42" waitingTime="51.00" waitingCount="1" stopTime="0.00" timeLoss="73.36" rerouteNo="0" devices="tripinfo_route_29.8" vType="car" speedFactor="1.02" vaporized=""/>
    <tripinfo id="route_30.0" depart="15.00" departLane="-422986370#2_0" departPos="201.60" departSpeed="0.00" departDelay="0.00" arrival="114.00" arrivalLane="137415945#0_0" arrivalPos="9.07" arrivalSpeed="15.41" duration="99.00" routeLength="253.29" waitingTime="61.00" waitingCount="1" stopTime="0.00" timeLoss="81.24" rerouteNo="0" devices="tripinfo_route_30.0" vType="car" speedFactor="0.94" vaporized=""/>
    <tripinfo id="route_35.1" depart="19.00" departLane="133126008#0_0" departPos="144.87" departSpeed="0.00" departDelay="1.17" arrival="114.00" arrivalLane="133126030#0_0" arrivalPos="141.65" arrivalSpeed="14.61" duration="95.00" routeLength="184.30" waitingTime="64.00" waitingCount="1" stopTime="0.00" timeLoss="82.44" rerouteNo="0" devices="tripinfo_route_35.1" vType="car" speedFactor="0.94" vaporized=""/>
    <tripinfo id="route_34.1" depart="18.00" departLane="133126008#0_0" departPos="23.09" departSpeed="0.00" departDelay="0.73" arrival="117.00" arrivalLane="1369578054_1" arrivalPos="90.42" arrivalSpeed="15.01" duration="99.00" routeLength="280.69" waitingTime="50.00" waitingCount="1" stopTime="0.00" timeLoss="81.05" rerouteNo="0" devices="tripinfo_route_34.1" vType="car" speedFactor="0.94" vaporized=""/>
    <tripinfo id="route_29.3" depart="20.00" departLane="-422986370#2_0" departPos="173.76" departSpeed="0.00" departDelay="0.61" arrival="117.00" arrivalLane="-430406005#1_1" arrivalPos="127.79" arrivalSpeed="16.10" duration="97.00" routeLength="288.46" waitingTime="53.00" waitingCount="1" stopTime="0.00" timeLoss="77.73" rerouteNo="0" devices="tripinfo_route_29.3" vType="car" speedFactor="0.87" vaporized=""/>
    <tripinfo id="route_34.2" depart="21.00" departLane="133126008#0_0" departPos="165.65" departSpeed="0.00" departDelay="1.46" arrival="118.00" arrivalLane="1369578054_0" arrivalPos="207.23" arrivalSpeed="15.73" duration="97.00" routeLength="254.95" waitingTime="64.00" waitingCount="1" stopTime="0.00" timeLoss="80.61" rerouteNo="0" devices="tripinfo_route_34.2" vType="car" speedFactor="0.95" vaporized=""/>
    <tripinfo id="route_29.5" depart="24.00" departLane="-422986370#2_0" departPos="127.34" departSpeed="0.00" departDelay="1.69" arrival="118.00" arrivalLane="-430406005#1_1" arrivalPos="62.84" arrivalSpeed="13.51" duration="94.00" routeLength="269.93" waitingTime="49.00" waitingCount="1" stopTime="0.00" timeLoss="77.43" rerouteNo="0" devices="tripinfo_route_29.5" vType="car" speedFactor="1.03" vaporized=""/>
    <tripinfo id="route_35.3" depart="26.00" departLane="133126008#0_0" departPos="66.33" departSpeed="0.00" departDelay="2.51" arrival="118.00" arrivalLane="133126030#0_0" arrivalPos="67.66" arrivalSpeed="12.49" duration="92.00" routeLength="188.86" waitingTime="50.00" waitingCount="1" stopTime="0.00" timeLoss="79.34" rerouteNo="0" devices="tripinfo_route_35.3" vType="car" speedFactor="1.00" vaporized=""/>
    <tripinfo id="route_29.9" depart="32.00" departLane="-422986370#2_0" departPos="275.45" departSpeed="0.00" departDelay="3.83" arrival="118.00" arrivalLane="-430406005#1_1" arrivalPos="175.19" arrivalSpeed="16.27" duration="86.00" routeLength="234.17" waitingTime="54.00" waitingCount="1" stopTime="0.00" timeLoss="71.29" rerouteNo="0" devices="tripinfo_route_29.9" vType="car" speedFactor="1.04" vaporized=""/>
    <tripinfo id="route_30.5" depart="28.00" departLane="-422986370#2_0" departPos="245.96" departSpeed="0.00" departDelay="3.26" arrival="119.00" arrivalLane="137415945#0_0" arrivalPos="11.12" arrivalSpeed="13.73" duration="91.00" routeLength="210.98" waitingTime="56.00" waitingCount="1" stopTime="0.00" timeLoss="74.26" rerouteNo="0" devices="tripinfo_route_30.5" vType="car" speedFactor="0.85" vaporized=""/>
    <tripinfo id="route_29.7" depart="29.00" departLane="-422986370#2_0" departPos="3.49" departSpeed="0.00" departDelay="3.76" arrival="119.00" arrivalLane="-430406005#1_1" arrivalPos="50.22" arrivalSpeed="13.26" duration="90.00" routeLength="381.16" waitingTime="42.00" waitingCount="1" stopTime="0.00" timeLoss="64.60" rerouteNo="0" devices="tripinfo_route_29.7" vType="car" speedFactor="0.90" vaporized=""/>
    <tripinfo id="route_29.11" depart="41.00" departLane="-422986370#2_0" departPos="158.60" departSpeed="0.00" departDelay="9.91" arrival="119.00" arrivalLane="-430406005#1_1" arrivalPos="28.15" arrivalSpeed="13.25" duration="78.00" routeLength="203.98" waitingTime="41.00" waitingCount="1" stopTime="0.00" timeLoss="65.23" rerouteNo="0" devices="tripinfo_route_29.11" vType="car" speedFactor="1.15" vaporized=""/>
    <tripinfo id="route_35.0" depart="15.00" departLane="133126008#0_0" departPos="47.21" departSpeed="0.00" departDelay="0.00" arrival="120.00" arrivalLane="133126030#0_0" arrivalPos="137.72" arrivalSpeed="15.38" duration="105.00" routeLength="278.03" waitingTime="55.00" waitingCount="1" stopTime="0.00" timeLoss="87.61" rerouteNo="0" devices="tripinfo_route_35.0" vType="car" speedFactor="1.05" vaporized=""/>
    <tripinfo id="route_30.4" depart="24.00" departLane="-422986370#2_0" departPos="212.90" departSpeed="0.00" departDelay="1.21" arrival="120.00" arrivalLane="137415945#0_0" arrivalPos="3.69" arrivalSpeed="14.63" duration="96.00" routeLength="236.61" waitingTime="55.00" waitingCount="1" stopTime="0.00" timeLoss="80.04" rerouteNo="0" devices="tripinfo_route_30.4" vType="car" speedFactor="0.96" vaporized=""/>
    <tripinfo id="route_29.6" depart="28.00" departLane="-422986370#2_0" departPos="192.05" departSpeed="0.00" departDelay="4.22" arrival="120.00" arrivalLane="-430406005#1_0" arrivalPos="74.50" arrivalSpeed="14.77" duration="92.00" routeLength="216.88" waitingTime="51.00" waitingCount="1" stopTime="0.00" timeLoss="78.14" rerouteNo="0" devices="tripinfo_route_29.6" vType="car" speedFactor="1.09" vaporized=""/>
    <tripinfo id="route_34.4" depart="26.00" departLane="133126008#0_0" departPos="85.67" departSpeed="0.00" departDelay="1.91" arrival="121.00" arrivalLane="1369578054_1" arrivalPos="123.18" arrivalSpeed="16.26" duration="95.00" routeLength="250.86" waitingTime="48.00" waitingCount="1" stopTime="0.00" timeLoss="79.35" rerouteNo="0" devices="tripinfo_route_34.4" vType="car" speedFactor="1.10" vaporized=""/>
    <tripinfo id="route_34.7" depart="32.00" departLane="133126008#0_0" departPos="44.71" departSpeed="0.00" departDelay="1.10" arrival="121.00" arrivalLane="1369578054_1" arrivalPos="62.18" arrivalSpeed="14.21" duration="89.00" routeLength="230.83" waitingTime="48.00" waitingCount="1" stopTime="0.00" timeLoss="74.22" rerouteNo="0" devices="tripinfo_route_34.7" vType="car" speedFactor="0.97" vaporized=""/>
    <tripinfo id="route_29.0" depart="15.00" departLane="-422986370#2_0" departPos="1.81" departSpeed="0.00" departDelay="0.00" arrival="122.00" arrivalLane="-430406005#1_1" arrivalPos="159.13" arrivalSpeed="16.20" duration="107.00" routeLength="491.75" waitingTime="52.00" waitingCount="1" stopTime="0.00" timeLoss="77.27" rerouteNo="0" devices="tripinfo_route_29.0" vType="car" speedFactor="1.06" vaporized=""/>
    <tripinfo id="route_35.6" depart="37.00" departLane="133126008#0_0" departPos="5.63" departSpeed="0.00" departDelay="5.02" arrival="123.00" arrivalLane="133126030#0_0" arrivalPos="23.99" arrivalSpeed="8.18" duration="86.00" routeLength="205.89" waitingTime="41.00" waitingCount="1" stopTime="0.00" timeLoss="72.13" rerouteNo="0" devices="tripinfo_route_35.6" vType="car" speedFactor="1.00" vaporized=""/>
    <tripinfo id="route_34.9" depart="46.00" departLane="133126008#0_0" departPos="75.47" departSpeed="0.00" departDelay="10.55" arrival="123.00" arrivalLane="1369578054_1" arrivalPos="66.50" arrivalSpeed="14.92" duration="77.00" routeLength="204.39" waitingTime="41.00" waitingCount="1" stopTime="0.00" timeLoss="63.90" rerouteNo="0" devices="tripinfo_route_34.9" vType="car" speedFactor="1.03" vaporized=""/>
    <tripinfo id="route_29.10" depart="36.00" departLane="-422986370#2_0" departPos="79.17" departSpeed="0.00" departDelay="6.37" arrival="124.00" arrivalLane="-430406005#1_1" arrivalPos="73.55" arrivalSpeed="15.20" duration="88.00" routeLength="328.82" waitingTime="40.00" waitingCount="1" stopTime="0.00" timeLoss="67.75" rerouteNo="0" devices="tripinfo_route_29.10" vType="car" speedFactor="0.98" vaporized=""/>
    <tripinfo id="route_34.8" depart="38.00" departLane="133126008#0_0" departPos="104.16" departSpeed="0.00" departDelay="4.82" arrival="125.00" arrivalLane="1369578054_1" arrivalPos="170.67" arrivalSpeed="16.49" duration="87.00" routeLength="279.87" waitingTime="48.00" waitingCount="1" stopTime="0.00" timeLoss="70.11" rerouteNo="0" devices="tripinfo_route_34.8" vType="car" speedFactor="1.01" vaporized=""/>
    <tripinfo id="route_34.10" depart="50.00" departLane="133126008#0_0" departPos="94.35" departSpeed="0.00" departDelay="12.28" arrival="125.00" arrivalLane="1369578054_0" arrivalPos="60.51" arrivalSpeed="14.47" duration="75.00" routeLength="179.52" waitingTime="42.00" waitingCount="1" stopTime="0.00" timeLoss="63.56" rerouteNo="0" devices="tripinfo_route_34.10" vType="car" speedFactor="1.18" vaporized=""/>
    <tripinfo id="route_30.1" depart="17.00" departLane="-422986370#2_0" departPos="118.79" departSpeed="0.00" departDelay="0.05" arrival="126.00" arrivalLane="137415945#0_0" arrivalPos="6.53" arrivalSpeed="16.46" duration="109.00" routeLength="333.56" waitingTime="52.00" waitingCount="1" stopTime="0.00" timeLoss="87.56" rerouteNo="0" devices="tripinfo_route_30.1" vType="car" speedFactor="1.03" vaporized=""/>
    <tripinfo id="route_29.13" depart="44.00" departLane="-422986370#2_0" departPos="74.71" departSpeed="0.00" departDelay="9.98" arrival="126.00" arrivalLane="-430406005#1_1" arrivalPos="76.84" arrivalSpeed="15.68" duration="82.00" routeLength="336.56" waitingTime="36.00" waitingCount="1" stopTime="0.00" timeLoss="61.37" rerouteNo="0" devices="tripinfo_route_29.13" vType="car" speedFactor="1.06" vaporized=""/>
    <tripinfo id="route_35.5" depart="31.00" departLane="133126008#0_0" departPos="65.41" departSpeed="0.00" departDelay="1.85" arrival="127.00" arrivalLane="133126030#0_0" arrivalPos="157.74" arrivalSpeed="15.98" duration="96.00" routeLength="279.84" waitingTime="47.00" waitingCount="1" stopTime="0.00" timeLoss="77.13" rerouteNo="0" devices="tripinfo_route_35.5" vType="car" speedFactor="0.98" vaporized=""/>
    <tripinfo id="route_30.3" depart="21.00" departLane="-422986370#2_0" departPos="94.02" departSpeed="0.00" departDelay="0.16" arrival="128.00" arrivalLane="137415945#0_0" arrivalPos="8.17" arrivalSpeed="16.34" duration="107.00" routeLength="359.97" waitingTime="51.00" waitingCount="1" stopTime="0.00" timeLoss="84.01" rerouteNo="0" devices="tripinfo_route_30.3" vType="car" speedFactor="1.01" vaporized=""/>
    <tripinfo id="route_29.12" depart="43.00" departLane="-422986370#2_0" departPos="4.92" departSpeed="0.00" departDelay="10.44" arrival="128.00" arrivalLane="-430406005#1_1" arrivalPos="83.19" arrivalSpeed="15.82" duration="85.00" routeLength="412.71" waitingTime="34.00" waitingCount="1" stopTime="0.00" timeLoss="59.75" rerouteNo="0" devices="tripinfo_route_29.12" vType="car" speedFactor="1.02" vaporized=""/>
    <tripinfo id="route_34.13" depart="65.00" departLane="133126008#0_0" departPos="14.17" departSpeed="0.00" departDelay="20.46" arrival="129.00" arrivalLane="1369578054_1" arrivalPos="66.05" arrivalSpeed="13.68" duration="64.00" routeLength="265.24" waitingTime="23.00" waitingCount="1" stopTime="0.00" timeLoss="47.96" rerouteNo="0" devices="tripinfo_route_34.13" vType="car" speedFactor="1.07" vaporized=""/>
    <tripinfo id="route_34.15" depart="79.00" departLane="133126008#0_0" departPos="64.15" departSpeed="0.00" departDelay="29.92" arrival="129.00" arrivalLane="1369578054_1" arrivalPos="41.87" arrivalSpeed="14.20" duration="50.00" routeLength="191.08" waitingTime="16.00" waitingCount="1" stopTime="0.00" timeLoss="38.11" rerouteNo="0" devices="tripinfo_route_34.15" vType="car" speedFactor="0.92" vaporized=""/>
    <tripinfo id="route_35.4" depart="28.00" departLane="133126008#0_0" departPos="2.61" departSpeed="0.00" departDelay="1.68" arrival="130.00" arrivalLane="133126030#0_0" arrivalPos="167.58" arrivalSpeed="15.46" duration="102.00" routeLength="352.49" waitingTime="48.00" waitingCount="1" stopTime="0.00" timeLoss="78.40" rerouteNo="0" devices="tripinfo_route_35.4" vType="car" speedFactor="0.94" vaporized=""/>
    <tripinfo id="route_29.16" depart="56.00" departLane="-422986370#2_0" departPos="153.07" departSpeed="0.00" departDelay="17.59" arrival="130.00" arrivalLane="-430406005#1_1" arrivalPos="85.05" arrivalSpeed="16.36" duration="74.00" routeLength="266.41" waitingTime="33.00" waitingCount="1" stopTime="0.00" timeLoss="57.28" rerouteNo="0" devices="tripinfo_route_29.16" vType="car" speedFactor="1.07" vaporized=""/>
    <tripinfo id="route_30.2" depart="19.00" departLane="-422986370#2_0" departPos="26.67" departSpeed="0.00" departDelay="0.10" arrival="131.00" arrivalLane="137415945#0_0" arrivalPos="3.36" arrivalSpeed="16.29" duration="112.00" routeLength="422.51" waitingTime="51.00" waitingCount="1" stopTime="0.00" timeLoss="84.38" rerouteNo="0" devices="tripinfo_route_30.2" vType="car" speedFactor="1.01" vaporized=""/>
    <tripinfo id="route_35.7" depart="40.00" departLane="133126008#0_0" departPos="1.98" departSpeed="0.00" departDelay="5.19" arrival="133.00" arrivalLane="133126030#0_0" arrivalPos="112.02" arrivalSpeed="15.30" duration="93.00" routeLength="297.56" waitingTime="42.00" waitingCount="1" stopTime="0.00" timeLoss="72.76" rerouteNo="0" devices="tripinfo_route_35.7" vType="car" speedFactor="0.95" vaporized=""/>
    <tripinfo id="route_29.14" depart="49.00" departLane="-422986370#2_0" departPos="170.80" departSpeed="0.00" departDelay="13.52" arrival="134.00" arrivalLane="-430406005#1_0" arrivalPos="168.24" arrivalSpeed="16.28" duration="85.00" routeLength="331.87" waitingTime="41.00" waitingCount="1" stopTime="0.00" timeLoss="64.88" rerouteNo="0" devices="tripinfo_route_29.14" vType="car" speedFactor="1.07" vaporized=""/>
    <tripinfo id="route_29.15" depart="49.00" departLane="-422986370#2_0" departPos="4.29" departSpeed="0.00" departDelay="12.06" arrival="135.00" arrivalLane="-430406005#1_1" arrivalPos="135.91" arrivalSpeed="16.27" duration="86.00" routeLength="466.05" waitingTime="32.00" waitingCount="1" stopTime="0.00" timeLoss="55.84" rerouteNo="0" devices="tripinfo_route_29.15" vType="car" speedFactor="0.93" vaporized=""/>
    <tripinfo id="route_30.9" depart="43.00" departLane="-422986370#2_0" departPos="128.13" departSpeed="0.00" departDelay="10.47" arrival="137.00" arrivalLane="137415945#0_0" arrivalPos="2.43" arrivalSpeed="14.80" duration="94.00" routeLength="320.11" waitingTime="39.00" waitingCount="1" stopTime="0.00" timeLoss="70.45" rerouteNo="0" devices="tripinfo_route_30.9" vType="car" speedFactor="0.89" vaporized=""/>
    <tripinfo id="route_35.9" depart="52.00" departLane="133126008#0_0" departPos="33.97" departSpeed="0.00" departDelay="11.53" arrival="137.00" arrivalLane="133126030#0_0" arrivalPos="147.89" arrivalSpeed="15.78" duration="85.00" routeLength="301.44" waitingTime="37.00" waitingCount="1" stopTime="0.00" timeLoss="66.11" rerouteNo="0" devices="tripinfo_route_35.9" vType="car" speedFactor="1.04" vaporized=""/>