<?xml version="1.0" encoding="UTF-8"?>

<!-- generated on 2025-05-04 22:11:22 by Eclipse SUMO sumo Version 1.20.0
<configuration xmlns:xsi="http://www.w3.org/2001/XMLSchema-instance" xsi:noNamespaceSchemaLocation="http://sumo.dlr.de/xsd/sumoConfiguration.xsd">

    <input>
        <net-file value="config/osm.net.xml"/>
        <route-files value="draft/generated_0_093_5_069_0_649_7_027_93_.rou.xml"/>
    </input>

    <output>
        <tripinfo-output value="draft/tripinfo_0_093_5_069_0_649_7_027_93.xml"/>
    </output>

    <time>
        <step-length value="1"/>
    </time>

    <traci_server>
        <remote-port value="33851"/>
    </traci_server>

    <gui_only>
        <start value="true"/>
    </gui_only>

</configuration>
-->

<tripinfos xmlns:xsi="http://www.w3.org/2001/XMLSchema-instance" xsi:noNamespaceSchemaLocation="http://sumo.dlr.de/xsd/tripinfo_file.xsd">
    <tripinfo id="route_29.1" depart="95.00" departLane="-422986370#2_0" departPos="265.89" departSpeed="0.00" departDelay="0.54" arrival="109.00" arrivalLane="-430406005#1_1" arrivalPos="8.25" arrivalSpeed="11.07" duration="14.00" routeLength="76.79" waitingTime="0.00" waitingCount="0" stopTime="0.00" timeLoss="8.83" rerouteNo="0" devices="tripinfo_route_29.1" vType="car" speedFactor="1.09" vaporized=""/>
    <tripinfo id="route_34.0" depart="93.00" departLane="133126008#0_0" departPos="101.07" departSpeed="0.00" departDelay="0.00" arrival="111.00" arrivalLane="1369578054_1" arrivalPos="13.07" arrivalSpeed="13.82" duration="18.00" routeLength="125.36" waitingTime="0.00" waitingCount="0" stopTime="0.00" timeLoss="9.69" rerouteNo="0" devices="tripinfo_route_34.0" vType="car" speedFactor="0.83" vaporized=""/>
    <tripinfo id="route_29.4" depart="99.00" departLane="-422986370#2_0" departPos="297.23" departSpeed="0.00" departDelay="0.15" arrival="112.00" arrivalLane="-430406005#1_0" arrivalPos="32.75" arrivalSpeed="10.55" duration="13.00" routeLength="69.94" waitingTime="0.00" waitingCount="0" stopTime="0.00" timeLoss="8.55" rerouteNo="0" devices="tripinfo_route_29.4" vType="car" speedFactor="1.15" vaporized=""/>
    <tripinfo id="route_34.3" depart="104.00" departLane="133126008#0_0" departPos="127.31" departSpeed="0.00" departDelay="4.18" arrival="122.00" arrivalLane="1369578054_1" arrivalPos="25.77" arrivalSpeed="12.43" duration="18.00" routeLength="111.83" waitingTime="0.00" waitingCount="0" stopTime="0.00" timeLoss="11.17" rerouteNo="0" devices="tripinfo_route_34.3" vType="car" speedFactor="0.97" vaporized=""/>
    <tripinfo id="route_35.1" depart="97.00" departLane="133126008#0_0" departPos="144.87" departSpeed="0.00" departDelay="1.17" arrival="123.00" arrivalLane="133126030#0_0" arrivalPos="141.65" arrivalSpeed="15.31" duration="26.00" routeLength="184.30" waitingTime="0.00" waitingCount="0" stopTime="0.00" timeLoss="12.89" rerouteNo="0" devices="tripinfo_route_35.1" vType="car" speedFactor="0.94" vaporized=""/>
    <tripinfo id="route_34.5" depart="106.00" departLane="133126008#0_0" departPos="146.55" departSpeed="0.00" departDelay="1.64" arrival="124.00" arrivalLane="1369578054_0" arrivalPos="46.01" arrivalSpeed="13.86" duration="18.00" routeLength="112.82" waitingTime="0.00" waitingCount="0" stopTime="0.00" timeLoss="10.35" rerouteNo="0" devices="tripinfo_route_34.5" vType="car" speedFactor="0.99" vaporized=""/>
    <tripinfo id="route_29.2" depart="96.00" departLane="-422986370#2_0" departPos="99.24" departSpeed="0.00" departDelay="0.07" arrival="125.00" arrivalLane="-430406005#1_1" arrivalPos="42.28" arrivalSpeed="16.14" duration="29.00" routeLength="277.46" waitingTime="0.00" waitingCount="0" stopTime="0.00" timeLoss="10.79" rerouteNo="0" devices="tripinfo_route_29.2" vType="car" speedFactor="0.93" vaporized=""/>
    <tripinfo id="route_35.2" depart="102.00" departLane="133126008#0_0" departPos="111.59" departSpeed="0.00" departDelay="3.34" arrival="125.00" arrivalLane="133126030#0_0" arrivalPos="51.67" arrivalSpeed="10.59" duration="23.00" routeLength="127.60" waitingTime="0.00" waitingCount="0" stopTime="0.00" timeLoss="14.53" rerouteNo="0" devices="tripinfo_route_35.2" vType="car" speedFactor="1.02" vaporized=""/>
    <tripinfo id="route_30.0" depart="93.00" departLane="-422986370#2_0" departPos="201.60" departSpeed="0.00" departDelay="0.00" arrival="126.00" arrivalLane="137415945#0_0" arrivalPos="9.07" arrivalSpeed="15.19" duration="33.00" routeLength="253.29" waitingTime="0.00" waitingCount="0" stopTime="0.00" timeLoss="15.00" rerouteNo="0" devices="tripinfo_route_30.0" vType="car" speedFactor="0.94" vaporized=""/>
    <tripinfo id="route_34.2" depart="99.00" departLane="133126008#0_0" departPos="165.65" departSpeed="0.00" departDelay="1.46" arrival="127.00" arrivalLane="1369578054_0" arrivalPos="207.23" arrivalSpeed="15.47" duration="28.00" routeLength="254.95" waitingTime="0.00" waitingCount="0" stopTime="0.00" timeLoss="11.23" rerouteNo="0" devices="tripinfo_route_34.2" vType="car" speedFactor="0.95" vaporized=""/>
    <tripinfo id="route_29.3" depart="98.00" departLane="-422986370#2_0" departPos="173.76" departSpeed="0.00" departDelay="0.61" arrival="128.00" arrivalLane="-430406005#1_1" arrivalPos="127.79" arrivalSpeed="16.31" duration="30.00" routeLength="288.46" waitingTime="0.00" waitingCount="0" stopTime="0.00" timeLoss="11.40" rerouteNo="0" devices="tripinfo_route_29.3" vType="car" speedFactor="0.87" vaporized=""/>
    <tripinfo id="route_34.1" depart="96.00" departLane="133126008#0_0" departPos="23.09" departSpeed="0.00" departDelay="0.73" arrival="129.00" arrivalLane="1369578054_1" arrivalPos="90.42" arrivalSpeed="15.28" duration="33.00" routeLength="280.69" waitingTime="0.00" waitingCount="0" stopTime="0.00" timeLoss="14.87" rerouteNo="0" devices="tripinfo_route_34.1" vType="car" speedFactor="0.94" vaporized=""/>
    <tripinfo id="route_35.3" depart="104.00" departLane="133126008#0_0" departPos="66.33" departSpeed="0.00" departDelay="2.51" arrival="132.00" arrivalLane="133126030#0_0" arrivalPos="67.66" arrivalSpeed="12.00" duration="28.00" routeLength="188.86" waitingTime="0.00" waitingCount="0" stopTime="0.00" timeLoss="15.33" rerouteNo="0" devices="tripinfo_route_35.3" vType="car" speedFactor="1.00" vaporized=""/>
    <tripinfo id="route_34.4" depart="104.00" departLane="133126008#0_0" departPos="85.67" departSpeed="0.00" departDelay="1.91" arrival="132.00" arrivalLane="1369578054_1" arrivalPos="123.18" arrivalSpeed="16.34" duration="28.00" routeLength="250.86" waitingTime="0.00" waitingCount="0" stopTime="0.00" timeLoss="12.56" rerouteNo="0" devices="tripinfo_route_34.4" vType="car" speedFactor="1.10" vaporized=""/>
    <tripinfo id="route_29.0" depart="93.00" departLane="-422986370#2_0" departPos="1.81" departSpeed="0.00" departDelay="0.00" arrival="134.00" arrivalLane="-430406005#1_1" arrivalPos="159.13" arrivalSpeed="16.57" duration="41.00" routeLength="491.75" waitingTime="0.00" waitingCount="0" stopTime="0.00" timeLoss="10.70" rerouteNo="0" devices="tripinfo_route_29.0" vType="car" speedFactor="1.06" vaporized=""/>
    <tripinfo id="route_35.0" depart="93.00" departLane="133126008#0_0" departPos="47.21" departSpeed="0.00" departDelay="0.00" arrival="135.00" arrivalLane="133126030#0_0" arrivalPos="137.72" arrivalSpeed="15.46" duration="42.00" routeLength="278.03" waitingTime="0.00" waitingCount="0" stopTime="0.00" timeLoss="23.18" rerouteNo="0" devices="tripinfo_route_35.0" vType="car" speedFactor="1.05" vaporized=""/>
    <tripinfo id="route_29.9" depart="114.00" departLane="-422986370#2_0" departPos="271.05" departSpeed="0.00" departDelay="7.83" arrival="135.00" arrivalLane="-430406005#1_0" arrivalPos="98.09" arrivalSpeed="16.00" duration="21.00" routeLength="161.47" waitingTime="0.00" waitingCount="0" stopTime="0.00" timeLoss="10.45" rerouteNo="0" devices="tripinfo_route_29.9" vType="car" speedFactor="1.04" vaporized=""/>
    <tripinfo id="route_38.2" depart="102.00" departLane="485211947#0_0" departPos="162.23" departSpeed="0.00" departDelay="4.39" arrival="146.00" arrivalLane="-430406005#1_1" arrivalPos="54.97" arrivalSpeed="11.68" duration="44.00" routeLength="105.72" waitingTime="20.00" waitingCount="1" stopTime="0.00" timeLoss="36.43" rerouteNo="0" devices="tripinfo_route_38.2" vType="car" speedFactor="1.18" vaporized=""/>
    <tripinfo id="route_37.0" depart="93.00" departLane="485211947#0_0" departPos="162.24" departSpeed="0.00" departDelay="0.00" arrival="149.00" arrivalLane="137415945#0_0" arrivalPos="6.94" arrivalSpeed="15.47" duration="56.00" routeLength="189.23" waitingTime="26.00" waitingCount="1" stopTime="0.00" timeLoss="43.80" rerouteNo="0" devices="tripinfo_route_37.0" vType="car" speedFactor="0.94" vaporized=""/>
    <tripinfo id="route_37.1" depart="96.00" departLane="485211947#0_0" departPos="76.22" departSpeed="0.00" departDelay="0.96" arrival="149.00" arrivalLane="137415945#0_1" arrivalPos="2.03" arrivalSpeed="15.45" duration="53.00" routeLength="270.34" waitingTime="13.00" waitingCount="1" stopTime="0.00" timeLoss="36.29" rerouteNo="0" devices="tripinfo_route_37.1" vType="car" speedFactor="1.16" vaporized=""/>
    <tripinfo id="route_38.3" depart="111.00" departLane="485211947#0_0" departPos="35.30" departSpeed="0.00" departDelay="11.08" arrival="149.00" arrivalLane="-430406005#1_1" arrivalPos="32.26" arrivalSpeed="10.92" duration="38.00" routeLength="209.94" waitingTime="0.00" waitingCount="0" stopTime="0.00" timeLoss="22.86" rerouteNo="0" devices="tripinfo_route_38.3" vType="car" speedFactor="0.90" vaporized=""/>
    <tripinfo id="route_36.0" depart="93.00" departLane="485211947#0_0" departPos="11.17" departSpeed="0.00" departDelay="0.00" arrival="150.00" arrivalLane="1369578054_0" arrivalPos="74.16" arrivalSpeed="12.55" duration="57.00" routeLength="260.46" waitingTime="12.00" waitingCount="1" stopTime="0.00" timeLoss="37.74" rerouteNo="0" devices="tripinfo_route_36.0" vType="car" speedFactor="0.89" vaporized=""/>
    <tripinfo id="route_37.2" depart="101.00" departLane="485211947#0_0" departPos="72.22" departSpeed="0.00" departDelay="3.92" arrival="151.00" arrivalLane="137415945#0_1" arrivalPos="12.22" arrivalSpeed="15.30" duration="50.00" routeLength="284.53" waitingTime="11.00" waitingCount="1" stopTime="0.00" timeLoss="31.46" rerouteNo="0" devices="tripinfo_route_37.2" vType="car" speedFactor="0.93" vaporized=""/>
    <tripinfo id="route_38.1" depart="96.00" departLane="485211947#0_0" departPos="178.72" departSpeed="0.00" departDelay="0.69" arrival="152.00" arrivalLane="-430406005#1_1" arrivalPos="170.84" arrivalSpeed="16.47" duration="56.00" routeLength="205.10" waitingTime="27.00" waitingCount="1" stopTime="0.00" timeLoss="41.96" rerouteNo="0" devices="tripinfo_route_38.1" vType="car" speedFactor="1.02" vaporized=""/>
    <tripinfo id="route_37.3" depart="108.00" departLane="485211947#0_0" departPos="21.19" departSpeed="0.00" departDelay="8.88" arrival="152.00" arrivalLane="137415945#0_1" arrivalPos="2.64" arrivalSpeed="15.93" duration="44.00" routeLength="325.98" waitingTime="0.00" waitingCount="0" stopTime="0.00" timeLoss="24.13" rerouteNo="0" devices="tripinfo_route_37.3" vType="car" speedFactor="1.10" vaporized=""/>
    <tripinfo id="route_38.0" depart="93.00" departLane="485211947#0_0" departPos="59.66" departSpeed="0.00" departDelay="0.00" arrival="153.00" arrivalLane="-430406005#1_1" arrivalPos="133.07" arrivalSpeed="15.48" duration="60.00" routeLength="286.39" waitingTime="19.00" waitingCount="1" stopTime="0.00" timeLoss="39.68" rerouteNo="0" devices="tripinfo_route_38.0" vType="car" speedFactor="0.86" vaporized=""/>
    <tripinfo id="route_36.2" depart="97.00" departLane="485211947#0_0" departPos="123.80" departSpeed="0.00" departDelay="0.67" arrival="153.00" arrivalLane="1369578054_0" arrivalPos="171.28" arrivalSpeed="13.59" duration="56.00" routeLength="244.94" waitingTime="19.00" waitingCount="1" stopTime="0.00" timeLoss="36.37" rerouteNo="0" devices="tripinfo_route_36.2" vType="car" speedFactor="0.83" vaporized=""/>
    <tripinfo id="route_37.4" depart="116.00" departLane="485211947#0_0" departPos="9.07" departSpeed="0.00" departDelay="14.84" arrival="154.00" arrivalLane="137415945#0_1" arrivalPos="0.30" arrivalSpeed="14.57" duration="38.00" routeLength="335.76" waitingTime="0.00" waitingCount="0" stopTime="0.00" timeLoss="14.46" rerouteNo="0" devices="tripinfo_route_37.4" vType="car" speedFactor="0.88" vaporized=""/>
    <tripinfo id="route_37.5" depart="125.00" departLane="485211947#0_0" departPos="37.56" departSpeed="0.00" departDelay="21.80" arrival="156.00" arrivalLane="137415945#0_1" arrivalPos="9.07" arrivalSpeed="16.24" duration="31.00" routeLength="316.03" waitingTime="0.00" waitingCount="0" stopTime="0.00" timeLoss="11.47" rerouteNo="0" devices="tripinfo_route_37.5" vType="car" speedFactor="1.14" vaporized=""/>
    <tripinfo id="route_38.5" depart="127.00" departLane="485211947#0_0" departPos="114.14" departSpeed="0.00" departDelay="22.47" arrival="157.00" arrivalLane="-430406005#1_1" arrivalPos="118.46" arrivalSpeed="15.33" duration="30.00" routeLength="217.30" waitingTime="0.00" waitingCount="0" stopTime="0.00" timeLoss="14.98" rerouteNo="0" devices="tripinfo_route_38.5" vType="car" speedFactor="0.91" vaporized=""/>
    <tripinfo id="route_36.4" depart="105.00" departLane="485211947#0_0" departPos="51.38" departSpeed="0.00" departDelay="5.34" arrival="158.00" arrivalLane="1369578054_0" arrivalPos="169.94" arrivalSpeed="16.16" duration="53.00" routeLength="316.02" waitingTime="8.00" waitingCount="1" stopTime="0.00" timeLoss="32.65" rerouteNo="0" devices="tripinfo_route_36.4" vType="car" speedFactor="1.18" vaporized=""/>
    <tripinfo id="route_38.6" depart="132.00" departLane="485211947#0_0" departPos="77.66" departSpeed="0.00" departDelay="25.16" arrival="159.00" arrivalLane="-430406005#1_1" arrivalPos="29.91" arrivalSpeed="11.81" duration="27.00" routeLength="165.23" waitingTime="1.00" waitingCount="1" stopTime="0.00" timeLoss="15.48" rerouteNo="0" devices="tripinfo_route_38.6" vType="car" speedFactor="0.96" vaporized=""/>
    <tripinfo id="route_38.4" depart="123.00" departLane="485211947#0_0" departPos="46.22" departSpeed="0.00" departDelay="20.77" arrival="160.00" arrivalLane="-430406005#1_1" arrivalPos="124.92" arrivalSpeed="16.31" duration="37.00" routeLength="291.69" waitingTime="0.00" waitingCount="0" stopTime="0.00" timeLoss="18.12" rerouteNo="0" devices="tripinfo_route_38.4" vType="car" speedFactor="1.00" vaporized=""/>
    <tripinfo id="route_37.6" depart="127.00" departLane="485211947#0_0" departPos="0.95" departSpeed="0.00" departDelay="21.76" arrival="161.00" arrivalLane="137415945#0_1" arrivalPos="7.30" arrivalSpeed="15.15" duration="34.00" routeLength="350.87" waitingTime="0.00" waitingCount="0" stopTime="0.00" timeLoss="10.24" rerouteNo="0" devices="tripinfo_route_37.6" vType="car" speedFactor="0.91" vaporized=""/>
    <tripinfo id="route_36.1" depart="95.00" departLane="485211947#0_0" departPos="100.86" departSpeed="0.00" departDelay="0.33" arrival="162.00" arrivalLane="1369578054_0" arrivalPos="281.37" arrivalSpeed="16.07" duration="67.00" routeLength="377.98" waitingTime="19.00" waitingCount="1" stopTime="0.00" timeLoss="42.44" rerouteNo="0" devices="tripinfo_route_36.1" vType="car" speedFactor="0.99" vaporized=""/>
    <tripinfo id="route_36.7" depart="126.00" departLane="485211947#0_0" departPos="66.50" departSpeed="0.00" departDelay="21.34" arrival="164.00" arrivalLane="1369578054_0" arrivalPos="103.24" arrivalSpeed="13.14" duration="38.00" routeLength="234.21" waitingTime="0.00" waitingCount="0" stopTime="0.00" timeLoss="20.64" rerouteNo="0" devices="tripinfo_route_36.7" vType="car" speedFactor="0.88" vaporized=""/>
    <tripinfo id="route_36.3" depart="99.00" departLane="485211947#0_0" departPos="12.41" departSpeed="0.00" departDelay="1.00" arrival="166.00" arrivalLane="1369578054_0" arrivalPos="280.18" arrivalSpeed="16.52" duration="67.00" routeLength="465.23" waitingTime="8.00" waitingCount="1" stopTime="0.00" timeLoss="37.82" rerouteNo="0" devices="tripinfo_route_36.3" vType="car" speedFactor="1.13" vaporized=""/>
    <tripinfo id="route_36.6" depart="123.00" departLane="485211947#0_0" departPos="11.69" departSpeed="0.00" departDelay="20.00" arrival="166.00" arrivalLane="1369578054_0" arrivalPos="102.74" arrivalSpeed="13.88" duration="43.00" routeLength="288.51" waitingTime="0.00" waitingCount="0" stopTime="0.00" timeLoss="24.02" rerouteNo="0" devices="tripinfo_route_36.6" vType="car" speedFactor="1.00" vaporized=""/>
    <tripinfo id="route_38.8" depart="151.00" departLane="485211947#0_0" departPos="120.65" departSpeed="0.00" departDelay="39.54" arrival="169.00" arrivalLane="-430406005#1_1" arrivalPos="6.18" arrivalSpeed="9.21" duration="18.00" routeLength="98.51" waitingTime="0.00" waitingCount="0" stopTime="0.00" timeLoss="11.25" rerouteNo="0" devices="tripinfo_route_38.8" vType="car" speedFactor="1.10" vaporized=""/>
    <tripinfo id="route_36.8" depart="127.00" departLane="485211947#0_0" departPos="100.11" departSpeed="0.00" departDelay="20.67" arrival="171.00" arrivalLane="1369578054_1" arrivalPos="270.68" arrivalSpeed="16.49" duration="44.00" routeLength="368.04" waitingTime="0.00" waitingCount="0" stopTime="0.00" timeLoss="21.13" rerouteNo="0" devices="tripinfo_route_36.8" vType="car" speedFactor="1.06" vaporized=""/>
    <tripinfo id="route_36.5" depart="111.00" departLane="485211947#0_0" departPos="44.18" departSpeed="0.00" departDelay="9.67" arrival="172.00" arrivalLane="1369578054_0" arrivalPos="292.70" arrivalSpeed="14.54" duration="61.00" routeLength="445.98" waitingTime="6.00" waitingCount="1" stopTime="0.00" timeLoss="29.85" rerouteNo="0" devices="tripinfo_route_36.5" vType="car" speedFactor="0.90" vaporized=""/>
    <tripinfo id="route_37.8" depart="144.00" departLane="485211947#0_0" departPos="85.86" departSpeed="0.00" departDelay="34.68" arrival="173.00" arrivalLane="137415945#0_0" arrivalPos="2.01" arrivalSpeed="16.37" duration="29.00" routeLength="260.68" waitingTime="0.00" waitingCount="0" stopTime="0.00" timeLoss="12.52" rerouteNo="0" devices="tripinfo_route_37.8" vType="car" speedFactor="1.01" vaporized=""/>
    <tripinfo id="route_37.7" depart="143.00" departLane="485211947#0_0" departPos="32.23" departSpeed="0.00" departDelay="35.72" arrival="175.00" arrivalLane="137415945#0_0" arrivalPos="11.57" arrivalSpeed="16.60" duration="32.00" routeLength="323.88" waitingTime="0.00" waitingCount="0" stopTime="0.00" timeLoss="11.81" rerouteNo="0" devices="tripinfo_route_37.7" vType="car" speedFactor="1.09" vaporized=""/>
    <tripinfo id="route_37.9" depart="151.00" departLane="485211947#0_0" departPos="150.00" departSpeed="0.00" departDelay="39.64" arrival="175.00" arrivalLane="137415945#0_1" arrivalPos="7.25" arrivalSpeed="16.46" duration="24.00" routeLength="201.78" waitingTime="0.00" waitingCount="0" stopTime="0.00" timeLoss="11.57" rerouteNo="0" devices="tripinfo_route_37.9" vType="car" speedFactor="1.12" vaporized=""/>
    <tripinfo id="route_36.10" depart="143.00" departLane="485211947#0_0" departPos="102.28" departSpeed="0.00" departDelay="33.34" arrival="178.00" arrivalLane="1369578054_0" arrivalPos="240.24" arrivalSpeed="16.54" duration="35.00" routeLength="335.41" waitingTime="0.00" waitingCount="0" stopTime="0.00" timeLoss="13.70" rerouteNo="0" devices="tripinfo_route_36.10" vType="car" speedFactor="1.04" vaporized=""/>
    <tripinfo id="route_36.9" depart="138.00" departLane="485211947#0_0" departPos="5.72" departSpeed="0.00" departDelay="30.01" arrival="179.00" arrivalLane="1369578054_0" arrivalPos="145.75" arrivalSpeed="16.49" duration="41.00" routeLength="337.49" waitingTime="0.00" waitingCount="0" stopTime="0.00" timeLoss="19.37" rerouteNo="0" devices="tripinfo_route_36.9" vType="car" speedFactor="1.01" vaporized=""/>
    <tripinfo id="route_38.7" depart="147.00" departLane="485211947#0_0" departPos="77.74" departSpeed="0.00" departDelay="37.85" arrival="179.00" arrivalLane="-430406005#1_1" arrivalPos="103.50" arrivalSpeed="16.12" duration="32.00" routeLength="238.74" waitingTime="0.00" waitingCount="0" stopTime="0.00" timeLoss="16.07" rerouteNo="0" devices="tripinfo_route_38.7" vType="car" speedFactor="1.02" vaporized=""/>
    <tripinfo id="route_31.0" depart="93.00" departLane="1235147073.116_0" departPos="7.14" departSpeed="0.00" departDelay="0.00" arrival="185.00" arrivalLane="133126030#0_0" arrivalPos="8.43" arrivalSpeed="6.60" duration="92.00" routeLength="175.81" waitingTime="62.00" waitingCount="1" stopTime="0.00" timeLoss="81.38" rerouteNo="0" devices="tripinfo_route_31.0" vType="car" speedFactor="1.01" vaporized=""/>
    <tripinfo id="route_37.11" depart="164.00" departLane="485211947#0_0" departPos="160.74" departSpeed="0.00" departDelay="48.56" arrival="186.00" arrivalLane="137415945#0_1" arrivalPos="2.70" arrivalSpeed="16.19" duration="22.00" routeLength="186.48" waitingTime="0.00" waitingCount="0" stopTime="0.00" timeLoss="10.17" rerouteNo="0" devices="tripinfo_route_37.11" vType="car" speedFactor="0.99" vaporized=""/>
    <tripinfo id="route_32.1" depart="114.00" departLane="1235147073.116_0" departPos="3.53" departSpeed="0.00" departDelay="18.64" arrival="188.00" arrivalLane="-430406005#1_0" arrivalPos="5.79" arrivalSpeed="6.44" duration="74.00" routeLength="165.22" waitingTime="42.00" waitingCount="1" stopTime="0.00" timeLoss="61.93" rerouteNo="0" devices="tripinfo_route_32.1" vType="car" speedFactor="0.88" vaporized=""/>
    <tripinfo id="route_31.1" depart="105.00" departLane="1235147073.116_0" departPos="6.60" departSpeed="0.00" departDelay="10.03" arrival="190.00" arrivalLane="133126030#0_0" arrivalPos="56.90" arrivalSpeed="11.14" duration="85.00" routeLength="224.82" waitingTime="50.00" waitingCount="1" stopTime="0.00" timeLoss="71.04" rerouteNo="0" devices="tripinfo_route_31.1" vType="car" speedFactor="1.05" vaporized=""/>
    <tripinfo id="route_31.2" depart="118.00" departLane="1235147073.116_0" departPos="2.35" departSpeed="0.00" departDelay="21.05" arrival="191.00" arrivalLane="133126030#0_1" arrivalPos="41.34" arrivalSpeed="11.02" duration="73.00" routeLength="213.51" waitingTime="38.00" waitingCount="2" stopTime="0.00" timeLoss="59.30" rerouteNo="0" devices="tripinfo_route_31.2" vType="car" speedFactor="0.97" vaporized=""/>
    <tripinfo id="route_31.3" depart="128.00" departLane="1235147073.116_0" departPos="14.87" departSpeed="0.00" departDelay="29.08" arrival="192.00" arrivalLane="133126030#0_1" arrivalPos="28.13" arrivalSpeed="10.02" duration="64.00" routeLength="187.78" waitingTime="30.00" waitingCount="1" stopTime="0.00" timeLoss="52.18" rerouteNo="0" devices="tripinfo_route_31.3" vType="car" speedFactor="1.17" vaporized=""/>
    <tripinfo id="route_33.3" depart="133.00" departLane="1235147073.116_0" departPos="2.48" departSpeed="0.00" departDelay="34.31" arrival="192.00" arrivalLane="1369578054_1" arrivalPos="8.34" arrivalSpeed="9.06" duration="59.00" routeLength="185.59" waitingTime="26.00" waitingCount="1" stopTime="0.00" timeLoss="46.70" rerouteNo="0" devices="tripinfo_route_33.3" vType="car" speedFactor="0.99" vaporized=""/>
    <tripinfo id="route_33.2" depart="123.00" departLane="1235147073.116_0" departPos="2.20" departSpeed="0.00" departDelay="26.20" arrival="193.00" arrivalLane="1369578054_1" arrivalPos="50.33" arrivalSpeed="11.69" duration="70.00" routeLength="227.85" waitingTime="33.00" waitingCount="1" stopTime="0.00" timeLoss="53.77" rerouteNo="0" devices="tripinfo_route_33.2" vType="car" speedFactor="0.89" vaporized=""/>
    <tripinfo id="route_36.15" depart="165.00" departLane="485211947#0_0" departPos="170.71" departSpeed="0.00" departDelay="47.01" arrival="193.00" arrivalLane="1369578054_0" arrivalPos="266.01" arrivalSpeed="16.56" duration="28.00" routeLength="292.77" waitingTime="0.00" waitingCount="0" stopTime="0.00" timeLoss="9.23" rerouteNo="0" devices="tripinfo_route_36.15" vType="car" speedFactor="1.12" vaporized=""/>
    <tripinfo id="route_32.0" depart="96.00" departLane="1235147073.116_0" departPos="0.46" departSpeed="0.00" departDelay="3.00" arrival="194.00" arrivalLane="-430406005#1_0" arrivalPos="87.77" arrivalSpeed="13.49" duration="98.00" routeLength="250.27" waitingTime="59.00" waitingCount="1" stopTime="0.00" timeLoss="81.45" rerouteNo="0" devices="tripinfo_route_32.0" vType="car" speedFactor="1.08" vaporized=""/>
    <tripinfo id="route_31.4" depart="136.00" departLane="1235147073.116_0" departPos="2.11" departSpeed="0.00" departDelay="35.11" arrival="195.00" arrivalLane="133126030#0_1" arrivalPos="39.35" arrivalSpeed="11.61" duration="59.00" routeLength="211.76" waitingTime="22.00" waitingCount="1" stopTime="0.00" timeLoss="45.96" rerouteNo="0" devices="tripinfo_route_31.4" vType="car" speedFactor="1.09" vaporized=""/>
    <tripinfo id="route_33.0" depart="102.00" departLane="1235147073.116_0" departPos="4.63" departSpeed="0.00" departDelay="9.00" arrival="199.00" arrivalLane="1369578054_1" arrivalPos="176.77" arrivalSpeed="16.50" duration="97.00" routeLength="351.87" waitingTime="52.00" waitingCount="1" stopTime="0.00" timeLoss="74.28" rerouteNo="0" devices="tripinfo_route_33.0" vType="car" speedFactor="1.03" vaporized=""/>
    <tripinfo id="route_32.2" depart="126.00" departLane="1235147073.116_0" departPos="1.83" departSpeed="0.00" departDelay="28.28" arrival="200.00" arrivalLane="-430406005#1_0" arrivalPos="106.48" arrivalSpeed="14.27" duration="74.00" routeLength="267.61" waitingTime="30.00" waitingCount="1" stopTime="0.00" timeLoss="55.95" rerouteNo="0" devices="tripinfo_route_32.2" vType="car" speedFactor="0.92" vaporized=""/>
    <tripinfo id="route_33.1" depart="110.00" departLane="1235147073.116_0" departPos="1.98" departSpeed="0.00" departDelay="15.10" arrival="201.00" arrivalLane="1369578054_1" arrivalPos="189.81" arrivalSpeed="16.19" duration="91.00" routeLength="367.56" waitingTime="46.00" waitingCount="1" stopTime="0.00" timeLoss="68.14" rerouteNo="0" devices="tripinfo_route_33.1" vType="car" speedFactor="1.12" vaporized=""/>
    <tripinfo id="route_31.5" depart="148.00" departLane="1235147073.116_0" departPos="14.44" departSpeed="0.00" departDelay="45.14" arrival="202.00" arrivalLane="133126030#0_1" arrivalPos="106.29" arrivalSpeed="13.98" duration="54.00" routeLength="266.37" waitingTime="13.00" waitingCount="1" stopTime="0.00" timeLoss="34.82" rerouteNo="0" devices="tripinfo_route_31.5" vType="car" speedFactor="0.85" vaporized=""/>
    <tripinfo id="route_32.3" depart="141.00" departLane="1235147073.116_0" departPos="3.65" departSpeed="0.00" departDelay="40.91" arrival="203.00" arrivalLane="-430406005#1_0" arrivalPos="121.21" arrivalSpeed="14.62" duration="62.00" routeLength="280.52" waitingTime="19.00" waitingCount="1" stopTime="0.00" timeLoss="44.04" rerouteNo="0" devices="tripinfo_route_32.3" vType="car" speedFactor="1.04" vaporized=""/>
    <tripinfo id="route_33.4" depart="147.00" departLane="1235147073.116_0" departPos="4.59" departSpeed="0.00" departDelay="46.41" arrival="204.00" arrivalLane="1369578054_1" arrivalPos="126.81" arrivalSpeed="15.95" duration="57.00" routeLength="301.95" waitingTime="13.00" waitingCount="1" stopTime="0.00" timeLoss="37.87" rerouteNo="0" devices="tripinfo_route_33.4" vType="car" speedFactor="1.04" vaporized=""/>
    <tripinfo id="route_33.5" depart="156.00" departLane="1235147073.116_0" departPos="1.16" departSpeed="0.00" departDelay="53.51" arrival="204.00" arrivalLane="1369578054_1" arrivalPos="88.79" arrivalSpeed="14.69" duration="48.00" routeLength="267.36" waitingTime="3.00" waitingCount="1" stopTime="0.00" timeLoss="30.46" rerouteNo="0" devices="tripinfo_route_33.5" vType="car" speedFactor="1.02" vaporized=""/>
    <tripinfo id="route_31.6" depart="156.00" departLane="1235147073.116_0" departPos="9.51" departSpeed="0.00" departDelay="51.16" arrival="205.00" arrivalLane="133126030#0_1" arrivalPos="125.13" arrivalSpeed="16.19" duration="49.00" routeLength="290.14" waitingTime="7.00" waitingCount="1" stopTime="0.00" timeLoss="31.03" rerouteNo="0" devices="tripinfo_route_31.6" vType="car" speedFactor="1.08" vaporized=""/>
    <tripinfo id="route_32.4" depart="149.00" departLane="1235147073.116_0" departPos="1.02" departSpeed="0.00" departDelay="46.55" arrival="208.00" arrivalLane="-430406005#1_0" arrivalPos="173.50" arrivalSpeed="16.35" duration="59.00" routeLength="335.44" waitingTime="13.00" waitingCount="1" stopTime="0.00" timeLoss="37.54" rerouteNo="0" devices="tripinfo_route_32.4" vType="car" speedFactor="1.17" vaporized=""/>
    <tripinfo id="route_31.9" depart="183.00" departLane="1235147073.116_0" departPos="5.55" departSpeed="0.00" departDelay="72.24" arrival="208.00" arrivalLane="133126030#0_1" arrivalPos="46.42" arrivalSpeed="13.59" duration="25.00" routeLength="215.38" waitingTime="0.00" waitingCount="0" stopTime="0.00" timeLoss="8.97" rerouteNo="0" devices="tripinfo_route_31.9" vType="car" speedFactor="0.83" vaporized=""/>
    <tripinfo id="route_32.5" depart="157.00" departLane="1235147073.116_0" departPos="1.86" departSpeed="0.00" departDelay="52.19" arrival="210.00" arrivalLane="-430406005#1_0" arrivalPos="174.70" arrivalSpeed="16.54" duration="53.00" routeLength="335.80" waitingTime="7.00" waitingCount="1" stopTime="0.00" timeLoss="31.05" rerouteNo="0" devices="tripinfo_route_32.5" vType="car" speedFactor="1.12" vaporized=""/>
    <tripinfo id="route_31.7" depart="165.00" departLane="1235147073.116_0" departPos="6.54" departSpeed="0.00" departDelay="58.19" arrival="210.00" arrivalLane="133126030#0_1" arrivalPos="181.76" arrivalSpeed="16.40" duration="45.00" routeLength="349.74" waitingTime="0.00" waitingCount="0" stopTime="0.00" timeLoss="23.68" rerouteNo="0" devices="tripinfo_route_31.7" vType="car" speedFactor="1.02" vaporized=""/>