<?xml version="1.0" encoding="UTF-8"?>

<!-- generated on 2025-05-04 22:11:45 by Eclipse SUMO sumo Version 1.20.0
<configuration xmlns:xsi="http://www.w3.org/2001/XMLSchema-instance" xsi:noNamespaceSchemaLocation="http://sumo.dlr.de/xsd/sumoConfiguration.xsd">

    <input>
        <net-file value="config/osm.net.xml"/>
        <route-files value="draft/generated_0_093_5_069_0_649_7_027_120_.rou.xml"/>
    </input>

    <output>
        <tripinfo-output value="draft/tripinfo_0_093_5_069_0_649_7_027_120.xml"/>
    </output>

    <time>
        <step-length value="1"/>
    </time>

    <traci_server>
        <remote-port value="39499"/>
    </traci_server>

    <gui_only>
        <start value="true"/>
    </gui_only>

</configuration>
-->

<tripinfos xmlns:xsi="http://www.w3.org/2001/XMLSchema-instance" xsi:noNamespaceSchemaLocation="http://sumo.dlr.de/xsd/tripinfo_file.xsd">
    <tripinfo id="route_38.2" depart="129.00" departLane="485211947#0_0" departPos="162.23" departSpeed="0.00" departDelay="4.39" arrival="146.00" arrivalLane="-430406005#1_1" arrivalPos="54.97" arrivalSpeed="12.41" duration="17.00" routeLength="105.72" waitingTime="0.00" waitingCount="0" stopTime="0.00" timeLoss="9.57" rerouteNo="0" devices="tripinfo_route_38.2" vType="car" speedFactor="1.18" vaporized=""/>
    <tripinfo id="route_37.0" depart="120.00" departLane="485211947#0_0" departPos="162.24" departSpeed="0.00" departDelay="0.00" arrival="147.00" arrivalLane="137415945#0_0" arrivalPos="6.94" arrivalSpeed="15.19" duration="27.00" routeLength="189.23" waitingTime="0.00" waitingCount="0" stopTime="0.00" timeLoss="14.32" rerouteNo="0" devices="tripinfo_route_37.0" vType="car" speedFactor="0.94" vaporized=""/>
    <tripinfo id="route_37.1" depart="123.00" departLane="485211947#0_0" departPos="76.22" departSpeed="0.00" departDelay="0.96" arrival="151.00" arrivalLane="137415945#0_1" arrivalPos="2.03" arrivalSpeed="16.42" duration="28.00" routeLength="270.34" waitingTime="0.00" waitingCount="0" stopTime="0.00" timeLoss="11.08" rerouteNo="0" devices="tripinfo_route_37.1" vType="car" speedFactor="1.16" vaporized=""/>
    <tripinfo id="route_38.1" depart="123.00" departLane="485211947#0_0" departPos="178.72" departSpeed="0.00" departDelay="0.69" arrival="151.00" arrivalLane="-430406005#1_1" arrivalPos="170.84" arrivalSpeed="16.14" duration="28.00" routeLength="205.10" waitingTime="0.00" waitingCount="0" stopTime="0.00" timeLoss="14.68" rerouteNo="0" devices="tripinfo_route_38.1" vType="car" speedFactor="1.02" vaporized=""/>
    <tripinfo id="route_38.0" depart="120.00" departLane="485211947#0_0" departPos="59.66" departSpeed="0.00" departDelay="0.00" arrival="153.00" arrivalLane="-430406005#1_1" arrivalPos="133.07" arrivalSpeed="16.14" duration="33.00" routeLength="286.39" waitingTime="0.00" waitingCount="0" stopTime="0.00" timeLoss="12.89" rerouteNo="0" devices="tripinfo_route_38.0" vType="car" speedFactor="0.86" vaporized=""/>
    <tripinfo id="route_36.2" depart="124.00" departLane="485211947#0_0" departPos="123.80" departSpeed="0.00" departDelay="0.67" arrival="155.00" arrivalLane="1369578054_0" arrivalPos="171.28" arrivalSpeed="13.68" duration="31.00" routeLength="244.94" waitingTime="0.00" waitingCount="0" stopTime="0.00" timeLoss="11.84" rerouteNo="0" devices="tripinfo_route_36.2" vType="car" speedFactor="0.83" vaporized=""/>
    <tripinfo id="route_37.2" depart="128.00" departLane="485211947#0_0" departPos="72.22" departSpeed="0.00" departDelay="3.92" arrival="157.00" arrivalLane="137415945#0_1" arrivalPos="12.22" arrivalSpeed="15.30" duration="29.00" routeLength="284.53" waitingTime="0.00" waitingCount="0" stopTime="0.00" timeLoss="10.27" rerouteNo="0" devices="tripinfo_route_37.2" vType="car" speedFactor="0.93" vaporized=""/>
    <tripinfo id="route_36.0" depart="120.00" departLane="485211947#0_0" departPos="11.17" departSpeed="0.00" departDelay="0.00" arrival="159.00" arrivalLane="1369578054_0" arrivalPos="74.16" arrivalSpeed="12.44" duration="39.00" routeLength="260.46" waitingTime="0.00" waitingCount="0" stopTime="0.00" timeLoss="19.63" rerouteNo="0" devices="tripinfo_route_36.0" vType="car" speedFactor="0.89" vaporized=""/>
    <tripinfo id="route_36.1" depart="122.00" departLane="485211947#0_0" departPos="100.86" departSpeed="0.00" departDelay="0.33" arrival="163.00" arrivalLane="1369578054_1" arrivalPos="281.37" arrivalSpeed="16.30" duration="41.00" routeLength="377.98" waitingTime="0.00" waitingCount="0" stopTime="0.00" timeLoss="16.82" rerouteNo="0" devices="tripinfo_route_36.1" vType="car" speedFactor="0.99" vaporized=""/>
    <tripinfo id="route_38.3" depart="138.00" departLane="485211947#0_0" departPos="44.18" departSpeed="0.00" departDelay="11.08" arrival="163.00" arrivalLane="-430406005#1_1" arrivalPos="32.26" arrivalSpeed="11.06" duration="25.00" routeLength="201.07" waitingTime="0.00" waitingCount="0" stopTime="0.00" timeLoss="10.56" rerouteNo="0" devices="tripinfo_route_38.3" vType="car" speedFactor="0.90" vaporized=""/>
    <tripinfo id="route_36.4" depart="132.00" departLane="485211947#0_0" departPos="51.38" departSpeed="0.00" departDelay="5.34" arrival="167.00" arrivalLane="1369578054_0" arrivalPos="169.94" arrivalSpeed="16.56" duration="35.00" routeLength="316.02" waitingTime="0.00" waitingCount="0" stopTime="0.00" timeLoss="14.35" rerouteNo="0" devices="tripinfo_route_36.4" vType="car" speedFactor="1.18" vaporized=""/>
    <tripinfo id="route_37.3" depart="137.00" departLane="485211947#0_0" departPos="21.25" departSpeed="0.00" departDelay="10.88" arrival="169.00" arrivalLane="137415945#0_1" arrivalPos="2.64" arrivalSpeed="16.34" duration="32.00" routeLength="325.92" waitingTime="0.00" waitingCount="0" stopTime="0.00" timeLoss="11.78" rerouteNo="0" devices="tripinfo_route_37.3" vType="car" speedFactor="1.10" vaporized=""/>
    <tripinfo id="route_36.5" depart="141.00" departLane="485211947#0_0" departPos="174.56" departSpeed="0.00" departDelay="12.67" arrival="172.00" arrivalLane="1369578054_0" arrivalPos="292.70" arrivalSpeed="15.00" duration="31.00" routeLength="315.60" waitingTime="0.00" waitingCount="0" stopTime="0.00" timeLoss="8.52" rerouteNo="0" devices="tripinfo_route_36.5" vType="car" speedFactor="0.90" vaporized=""/>
    <tripinfo id="route_36.6" depart="148.00" departLane="485211947#0_0" departPos="111.97" departSpeed="0.00" departDelay="18.00" arrival="173.00" arrivalLane="1369578054_0" arrivalPos="102.74" arrivalSpeed="14.57" duration="25.00" routeLength="188.23" waitingTime="0.00" waitingCount="0" stopTime="0.00" timeLoss="12.80" rerouteNo="0" devices="tripinfo_route_36.6" vType="car" speedFactor="1.00" vaporized=""/>
    <tripinfo id="route_36.3" depart="126.00" departLane="485211947#0_0" departPos="12.41" departSpeed="0.00" departDelay="1.00" arrival="175.00" arrivalLane="1369578054_0" arrivalPos="280.18" arrivalSpeed="16.37" duration="49.00" routeLength="465.23" waitingTime="0.00" waitingCount="0" stopTime="0.00" timeLoss="19.94" rerouteNo="0" devices="tripinfo_route_36.3" vType="car" speedFactor="1.13" vaporized=""/>
    <tripinfo id="route_36.11" depart="164.00" departLane="485211947#0_0" departPos="177.91" departSpeed="0.00" departDelay="25.67" arrival="175.00" arrivalLane="1369578054_0" arrivalPos="25.34" arrivalSpeed="8.23" duration="11.00" routeLength="44.89" waitingTime="0.00" waitingCount="0" stopTime="0.00" timeLoss="6.70" rerouteNo="0" devices="tripinfo_route_36.11" vType="car" speedFactor="0.91" vaporized=""/>
    <tripinfo id="route_38.5" depart="154.00" departLane="485211947#0_0" departPos="161.43" departSpeed="0.00" departDelay="22.47" arrival="176.00" arrivalLane="-430406005#1_1" arrivalPos="118.46" arrivalSpeed="15.13" duration="22.00" routeLength="170.01" waitingTime="0.00" waitingCount="0" stopTime="0.00" timeLoss="9.82" rerouteNo="0" devices="tripinfo_route_38.5" vType="car" speedFactor="0.91" vaporized=""/>
    <tripinfo id="route_37.4" depart="143.00" departLane="485211947#0_0" departPos="5.84" departSpeed="0.00" departDelay="14.84" arrival="177.00" arrivalLane="137415945#0_1" arrivalPos="0.30" arrivalSpeed="14.30" duration="34.00" routeLength="339.00" waitingTime="0.00" waitingCount="0" stopTime="0.00" timeLoss="10.06" rerouteNo="0" devices="tripinfo_route_37.4" vType="car" speedFactor="0.88" vaporized=""/>
    <tripinfo id="route_37.5" depart="151.00" departLane="485211947#0_0" departPos="27.69" departSpeed="0.00" departDelay="20.80" arrival="182.00" arrivalLane="137415945#0_1" arrivalPos="9.07" arrivalSpeed="16.30" duration="31.00" routeLength="325.90" waitingTime="0.00" waitingCount="0" stopTime="0.00" timeLoss="10.56" rerouteNo="0" devices="tripinfo_route_37.5" vType="car" speedFactor="1.14" vaporized=""/>
    <tripinfo id="route_31.0" depart="120.00" departLane="1235147073.116_0" departPos="7.14" departSpeed="0.00" departDelay="0.00" arrival="185.00" arrivalLane="133126030#0_0" arrivalPos="8.43" arrivalSpeed="7.18" duration="65.00" routeLength="175.81" waitingTime="35.00" waitingCount="1" stopTime="0.00" timeLoss="54.24" rerouteNo="0" devices="tripinfo_route_31.0" vType="car" speedFactor="1.01" vaporized=""/>
    <tripinfo id="route_37.7" depart="160.00" departLane="485211947#0_0" departPos="144.57" departSpeed="0.00" departDelay="25.72" arrival="186.00" arrivalLane="137415945#0_0" arrivalPos="1.46" arrivalSpeed="16.09" duration="26.00" routeLength="201.41" waitingTime="0.00" waitingCount="0" stopTime="0.00" timeLoss="13.49" rerouteNo="0" devices="tripinfo_route_37.7" vType="car" speedFactor="1.09" vaporized=""/>
    <tripinfo id="route_32.1" depart="141.00" departLane="1235147073.116_0" departPos="3.53" departSpeed="0.00" departDelay="18.64" arrival="188.00" arrivalLane="-430406005#1_0" arrivalPos="5.79" arrivalSpeed="7.22" duration="47.00" routeLength="165.22" waitingTime="14.00" waitingCount="1" stopTime="0.00" timeLoss="34.19" rerouteNo="0" devices="tripinfo_route_32.1" vType="car" speedFactor="0.88" vaporized=""/>
    <tripinfo id="route_31.1" depart="132.00" departLane="1235147073.116_0" departPos="6.60" departSpeed="0.00" departDelay="10.03" arrival="190.00" arrivalLane="133126030#0_0" arrivalPos="56.90" arrivalSpeed="11.22" duration="58.00" routeLength="224.82" waitingTime="20.00" waitingCount="1" stopTime="0.00" timeLoss="44.28" rerouteNo="0" devices="tripinfo_route_31.1" vType="car" speedFactor="1.05" vaporized=""/>
    <tripinfo id="route_31.2" depart="147.00" departLane="1235147073.116_0" departPos="7.75" departSpeed="0.00" departDelay="23.05" arrival="191.00" arrivalLane="133126030#0_1" arrivalPos="41.34" arrivalSpeed="10.11" duration="44.00" routeLength="208.11" waitingTime="9.00" waitingCount="1" stopTime="0.00" timeLoss="30.86" rerouteNo="0" devices="tripinfo_route_31.2" vType="car" speedFactor="0.97" vaporized=""/>
    <tripinfo id="route_31.3" depart="157.00" departLane="1235147073.116_0" departPos="1.26" departSpeed="0.00" departDelay="31.08" arrival="191.00" arrivalLane="133126030#0_1" arrivalPos="28.13" arrivalSpeed="9.53" duration="34.00" routeLength="201.39" waitingTime="0.00" waitingCount="0" stopTime="0.00" timeLoss="21.86" rerouteNo="0" devices="tripinfo_route_31.3" vType="car" speedFactor="1.17" vaporized=""/>
    <tripinfo id="route_33.3" depart="163.00" departLane="1235147073.116_0" departPos="5.43" departSpeed="0.00" departDelay="37.31" arrival="192.00" arrivalLane="1369578054_1" arrivalPos="8.34" arrivalSpeed="9.22" duration="29.00" routeLength="182.64" waitingTime="0.00" waitingCount="0" stopTime="0.00" timeLoss="16.60" rerouteNo="0" devices="tripinfo_route_33.3" vType="car" speedFactor="0.99" vaporized=""/>
    <tripinfo id="route_33.2" depart="153.00" departLane="1235147073.116_0" departPos="4.11" departSpeed="0.00" departDelay="29.20" arrival="193.00" arrivalLane="1369578054_1" arrivalPos="50.33" arrivalSpeed="12.17" duration="40.00" routeLength="225.95" waitingTime="3.00" waitingCount="1" stopTime="0.00" timeLoss="23.78" rerouteNo="0" devices="tripinfo_route_33.2" vType="car" speedFactor="0.89" vaporized=""/>
    <tripinfo id="route_32.0" depart="123.00" departLane="1235147073.116_0" departPos="0.46" departSpeed="0.00" departDelay="3.00" arrival="194.00" arrivalLane="-430406005#1_0" arrivalPos="87.77" arrivalSpeed="12.85" duration="71.00" routeLength="250.27" waitingTime="31.00" waitingCount="1" stopTime="0.00" timeLoss="54.58" rerouteNo="0" devices="tripinfo_route_32.0" vType="car" speedFactor="1.08" vaporized=""/>
    <tripinfo id="route_31.4" depart="166.00" departLane="1235147073.116_0" departPos="13.44" departSpeed="0.00" departDelay="38.11" arrival="194.00" arrivalLane="133126030#0_1" arrivalPos="39.35" arrivalSpeed="10.86" duration="28.00" routeLength="200.43" waitingTime="0.00" waitingCount="0" stopTime="0.00" timeLoss="15.85" rerouteNo="0" devices="tripinfo_route_31.4" vType="car" speedFactor="1.09" vaporized=""/>
    <tripinfo id="route_33.0" depart="129.00" departLane="1235147073.116_0" departPos="4.63" departSpeed="0.00" departDelay="9.00" arrival="199.00" arrivalLane="1369578054_1" arrivalPos="176.77" arrivalSpeed="16.30" duration="70.00" routeLength="351.87" waitingTime="26.00" waitingCount="1" stopTime="0.00" timeLoss="47.17" rerouteNo="0" devices="tripinfo_route_33.0" vType="car" speedFactor="1.03" vaporized=""/>
    <tripinfo id="route_32.2" depart="157.00" departLane="1235147073.116_0" departPos="15.19" departSpeed="0.00" departDelay="32.28" arrival="199.00" arrivalLane="-430406005#1_0" arrivalPos="106.48" arrivalSpeed="14.56" duration="42.00" routeLength="254.25" waitingTime="2.00" waitingCount="1" stopTime="0.00" timeLoss="24.47" rerouteNo="0" devices="tripinfo_route_32.2" vType="car" speedFactor="0.92" vaporized=""/>
    <tripinfo id="route_33.1" depart="138.00" departLane="1235147073.116_0" departPos="7.13" departSpeed="0.00" departDelay="16.10" arrival="201.00" arrivalLane="1369578054_1" arrivalPos="189.81" arrivalSpeed="16.29" duration="63.00" routeLength="362.41" waitingTime="17.00" waitingCount="1" stopTime="0.00" timeLoss="40.19" rerouteNo="0" devices="tripinfo_route_33.1" vType="car" speedFactor="1.12" vaporized=""/>
    <tripinfo id="route_32.3" depart="166.00" departLane="1235147073.116_0" departPos="2.44" departSpeed="0.00" departDelay="38.91" arrival="201.00" arrivalLane="-430406005#1_0" arrivalPos="121.21" arrivalSpeed="15.19" duration="35.00" routeLength="281.72" waitingTime="0.00" waitingCount="0" stopTime="0.00" timeLoss="17.15" rerouteNo="0" devices="tripinfo_route_32.3" vType="car" speedFactor="1.04" vaporized=""/>
    <tripinfo id="route_31.5" depart="175.00" departLane="1235147073.116_0" departPos="15.17" departSpeed="0.00" departDelay="45.14" arrival="203.00" arrivalLane="133126030#0_0" arrivalPos="106.29" arrivalSpeed="14.01" duration="28.00" routeLength="265.65" waitingTime="0.00" waitingCount="0" stopTime="0.00" timeLoss="8.46" rerouteNo="0" devices="tripinfo_route_31.5" vType="car" speedFactor="0.85" vaporized=""/>
    <tripinfo id="route_33.4" depart="171.00" departLane="1235147073.116_0" departPos="2.76" departSpeed="0.00" departDelay="43.41" arrival="206.00" arrivalLane="1369578054_1" arrivalPos="126.81" arrivalSpeed="16.10" duration="35.00" routeLength="303.78" waitingTime="0.00" waitingCount="0" stopTime="0.00" timeLoss="15.68" rerouteNo="0" devices="tripinfo_route_33.4" vType="car" speedFactor="1.04" vaporized=""/>
    <tripinfo id="route_33.5" depart="178.00" departLane="1235147073.116_0" departPos="13.55" departSpeed="0.00" departDelay="48.51" arrival="209.00" arrivalLane="1369578054_1" arrivalPos="88.79" arrivalSpeed="16.19" duration="31.00" routeLength="254.97" waitingTime="1.00" waitingCount="1" stopTime="0.00" timeLoss="13.87" rerouteNo="0" devices="tripinfo_route_33.5" vType="car" speedFactor="1.02" vaporized=""/>
    <tripinfo id="route_31.6" depart="183.00" departLane="1235147073.116_0" departPos="2.07" departSpeed="0.00" departDelay="51.16" arrival="212.00" arrivalLane="133126030#0_0" arrivalPos="125.13" arrivalSpeed="16.44" duration="29.00" routeLength="297.58" waitingTime="0.00" waitingCount="0" stopTime="0.00" timeLoss="10.51" rerouteNo="0" devices="tripinfo_route_31.6" vType="car" speedFactor="1.08" vaporized=""/>
    <tripinfo id="route_32.4" depart="176.00" departLane="1235147073.116_0" departPos="0.38" departSpeed="0.00" departDelay="46.55" arrival="214.00" arrivalLane="-430406005#1_0" arrivalPos="173.50" arrivalSpeed="16.47" duration="38.00" routeLength="336.07" waitingTime="0.00" waitingCount="0" stopTime="0.00" timeLoss="16.69" rerouteNo="0" devices="tripinfo_route_32.4" vType="car" speedFactor="1.17" vaporized=""/>
    <tripinfo id="route_32.5" depart="189.00" departLane="1235147073.116_0" departPos="2.64" departSpeed="0.00" departDelay="57.19" arrival="224.00" arrivalLane="-430406005#1_0" arrivalPos="174.70" arrivalSpeed="16.19" duration="35.00" routeLength="335.02" waitingTime="0.00" waitingCount="0" stopTime="0.00" timeLoss="13.89" rerouteNo="0" devices="tripinfo_route_32.5" vType="car" speedFactor="1.12" vaporized=""/>
    <tripinfo id="route_31.7" depart="197.00" departLane="1235147073.116_0" departPos="11.92" departSpeed="0.00" departDelay="63.19" arrival="224.00" arrivalLane="133126030#0_0" arrivalPos="89.44" arrivalSpeed="16.25" duration="27.00" routeLength="252.04" waitingTime="0.00" waitingCount="0" stopTime="0.00" timeLoss="11.50" rerouteNo="0" devices="tripinfo_route_31.7" vType="car" speedFactor="1.02" vaporized=""/>
    <tripinfo id="route_29.1" depart="122.00" departLane="-422986370#2_0" departPos="265.89" departSpeed="0.00" departDelay="0.54" arrival="232.00" arrivalLane="-430406005#1_1" arrivalPos="8.25" arrivalSpeed="8.36" duration="110.00" routeLength="76.79" waitingTime="90.00" waitingCount="1" stopTime="0.00" timeLoss="105.00" rerouteNo="0" devices="tripinfo_route_29.1" vType="car" speedFactor="1.09" vaporized=""/>
    <tripinfo id="route_34.0" depart="120.00" departLane="133126008#0_0" departPos="101.07" departSpeed="0.00" departDelay="0.00" arrival="233.00" arrivalLane="1369578054_1" arrivalPos="13.07" arrivalSpeed="8.80" duration="113.00" routeLength="125.36" waitingTime="86.00" waitingCount="1" stopTime="0.00" timeLoss="104.82" rerouteNo="0" devices="tripinfo_route_34.0" vType="car" speedFactor="0.83" vaporized=""/>
    <tripinfo id="route_29.4" depart="126.00" departLane="-422986370#2_0" departPos="297.23" departSpeed="0.00" departDelay="0.15" arrival="234.00" arrivalLane="-430406005#1_0" arrivalPos="32.75" arrivalSpeed="10.84" duration="108.00" routeLength="69.94" waitingTime="93.00" waitingCount="1" stopTime="0.00" timeLoss="103.47" rerouteNo="0" devices="tripinfo_route_29.4" vType="car" speedFactor="1.15" vaporized=""/>
    <tripinfo id="route_33.6" depart="194.00" departLane="1235147073.116_0" departPos="0.85" departSpeed="0.00" departDelay="62.61" arrival="235.00" arrivalLane="1369578054_1" arrivalPos="253.34" arrivalSpeed="16.32" duration="41.00" routeLength="432.22" waitingTime="0.00" waitingCount="0" stopTime="0.00" timeLoss="14.17" rerouteNo="0" devices="tripinfo_route_33.6" vType="car" speedFactor="1.02" vaporized=""/>
    <tripinfo id="route_34.3" depart="131.00" departLane="133126008#0_0" departPos="127.31" departSpeed="0.00" departDelay="4.18" arrival="236.00" arrivalLane="1369578054_1" arrivalPos="25.77" arrivalSpeed="10.12" duration="105.00" routeLength="111.83" waitingTime="78.00" waitingCount="1" stopTime="0.00" timeLoss="98.00" rerouteNo="0" devices="tripinfo_route_34.3" vType="car" speedFactor="0.97" vaporized=""/>
    <tripinfo id="route_35.2" depart="129.00" departLane="133126008#0_0" departPos="111.59" departSpeed="0.00" departDelay="3.34" arrival="238.00" arrivalLane="133126030#0_0" arrivalPos="51.67" arrivalSpeed="10.37" duration="109.00" routeLength="127.60" waitingTime="79.00" waitingCount="1" stopTime="0.00" timeLoss="100.83" rerouteNo="0" devices="tripinfo_route_35.2" vType="car" speedFactor="1.02" vaporized=""/>
    <tripinfo id="route_29.2" depart="123.00" departLane="-422986370#2_0" departPos="99.24" departSpeed="0.00" departDelay="0.07" arrival="240.00" arrivalLane="-430406005#1_1" arrivalPos="42.28" arrivalSpeed="11.48" duration="117.00" routeLength="277.46" waitingTime="74.00" waitingCount="1" stopTime="0.00" timeLoss="98.89" rerouteNo="0" devices="tripinfo_route_29.2" vType="car" speedFactor="0.93" vaporized=""/>
    <tripinfo id="route_34.5" depart="133.00" departLane="133126008#0_0" departPos="98.03" departSpeed="0.00" departDelay="1.64" arrival="241.00" arrivalLane="1369578054_1" arrivalPos="46.01" arrivalSpeed="11.67" duration="108.00" routeLength="161.35" waitingTime="75.00" waitingCount="1" stopTime="0.00" timeLoss="97.74" rerouteNo="0" devices="tripinfo_route_34.5" vType="car" speedFactor="0.99" vaporized=""/>
    <tripinfo id="route_29.8" depart="136.00" departLane="-422986370#2_0" departPos="62.16" departSpeed="0.00" departDelay="4.30" arrival="242.00" arrivalLane="-430406005#1_1" arrivalPos="7.61" arrivalSpeed="10.40" duration="106.00" routeLength="279.88" waitingTime="65.00" waitingCount="1" stopTime="0.00" timeLoss="88.81" rerouteNo="0" devices="tripinfo_route_29.8" vType="car" speedFactor="1.02" vaporized=""/>
    <tripinfo id="route_30.0" depart="120.00" departLane="-422986370#2_0" departPos="201.60" departSpeed="0.00" departDelay="0.00" arrival="243.00" arrivalLane="137415945#0_0" arrivalPos="9.07" arrivalSpeed="15.64" duration="123.00" routeLength="253.29" waitingTime="85.00" waitingCount="1" stopTime="0.00" timeLoss="105.41" rerouteNo="0" devices="tripinfo_route_30.0" vType="car" speedFactor="0.94" vaporized=""/>
    <tripinfo id="route_35.1" depart="124.00" departLane="133126008#0_0" departPos="144.87" departSpeed="0.00" departDelay="1.17" arrival="243.00" arrivalLane="133126030#0_0" arrivalPos="141.65" arrivalSpeed="15.30" duration="119.00" routeLength="184.30" waitingTime="88.00" waitingCount="1" stopTime="0.00" timeLoss="105.86" rerouteNo="0" devices="tripinfo_route_35.1" vType="car" speedFactor="0.94" vaporized=""/>
    <tripinfo id="route_29.3" depart="125.00" departLane="-422986370#2_0" departPos="173.76" departSpeed="0.00" departDelay="0.61" arrival="244.00" arrivalLane="-430406005#1_1" arrivalPos="127.79" arrivalSpeed="15.82" duration="119.00" routeLength="288.46" waitingTime="76.00" waitingCount="1" stopTime="0.00" timeLoss="99.91" rerouteNo="0" devices="tripinfo_route_29.3" vType="car" speedFactor="0.87" vaporized=""/>
    <tripinfo id="route_29.5" depart="129.00" departLane="-422986370#2_0" departPos="127.34" departSpeed="0.00" departDelay="1.69" arrival="245.00" arrivalLane="-430406005#1_1" arrivalPos="62.84" arrivalSpeed="12.93" duration="116.00" routeLength="269.93" waitingTime="72.00" waitingCount="1" stopTime="0.00" timeLoss="99.33" rerouteNo="0" devices="tripinfo_route_29.5" vType="car" speedFactor="1.03" vaporized=""/>
    <tripinfo id="route_34.6" depart="136.00" departLane="133126008#0_0" departPos="57.73" departSpeed="0.00" departDelay="2.37" arrival="245.00" arrivalLane="1369578054_1" arrivalPos="50.19" arrivalSpeed="12.58" duration="109.00" routeLength="205.83" waitingTime="72.00" waitingCount="1" stopTime="0.00" timeLoss="95.72" rerouteNo="0" devices="tripinfo_route_34.6" vType="car" speedFactor="0.94" vaporized=""/>
    <tripinfo id="route_34.1" depart="123.00" departLane="133126008#0_0" departPos="23.09" departSpeed="0.00" departDelay="0.73" arrival="246.00" arrivalLane="1369578054_1" arrivalPos="90.42" arrivalSpeed="13.81" duration="123.00" routeLength="280.69" waitingTime="75.00" waitingCount="1" stopTime="0.00" timeLoss="105.39" rerouteNo="0" devices="tripinfo_route_34.1" vType="car" speedFactor="0.94" vaporized=""/>
    <tripinfo id="route_30.5" depart="133.00" departLane="-422986370#2_0" departPos="245.96" departSpeed="0.00" departDelay="3.26" arrival="246.00" arrivalLane="137415945#0_0" arrivalPos="11.12" arrivalSpeed="13.73" duration="113.00" routeLength="210.98" waitingTime="80.00" waitingCount="1" stopTime="0.00" timeLoss="96.85" rerouteNo="0" devices="tripinfo_route_30.5" vType="car" speedFactor="0.85" vaporized=""/>
    <tripinfo id="route_35.0" depart="120.00" departLane="133126008#0_0" departPos="47.21" departSpeed="0.00" departDelay="0.00" arrival="247.00" arrivalLane="133126030#0_0" arrivalPos="137.72" arrivalSpeed="15.76" duration="127.00" routeLength="278.03" waitingTime="78.00" waitingCount="1" stopTime="0.00" timeLoss="109.02" rerouteNo="0" devices="tripinfo_route_35.0" vType="car" speedFactor="1.05" vaporized=""/>
    <tripinfo id="route_34.2" depart="126.00" departLane="133126008#0_0" departPos="165.65" departSpeed="0.00" departDelay="1.46" arrival="247.00" arrivalLane="1369578054_0" arrivalPos="207.23" arrivalSpeed="15.33" duration="121.00" routeLength="254.95" waitingTime="88.00" waitingCount="1" stopTime="0.00" timeLoss="104.90" rerouteNo="0" devices="tripinfo_route_34.2" vType="car" speedFactor="0.95" vaporized=""/>
    <tripinfo id="route_35.3" depart="131.00" departLane="133126008#0_0" departPos="66.33" departSpeed="0.00" departDelay="2.51" arrival="247.00" arrivalLane="133126030#0_0" arrivalPos="67.66" arrivalSpeed="11.37" duration="116.00" routeLength="188.86" waitingTime="77.00" waitingCount="1" stopTime="0.00" timeLoss="103.71" rerouteNo="0" devices="tripinfo_route_35.3" vType="car" speedFactor="1.00" vaporized=""/>
    <tripinfo id="route_29.7" depart="134.00" departLane="-422986370#2_0" departPos="0.26" departSpeed="0.00" departDelay="3.76" arrival="247.00" arrivalLane="-430406005#1_1" arrivalPos="50.22" arrivalSpeed="13.66" duration="113.00" routeLength="384.39" waitingTime="63.00" waitingCount="1" stopTime="0.00" timeLoss="87.71" rerouteNo="0" devices="tripinfo_route_29.7" vType="car" speedFactor="0.90" vaporized=""/>
    <tripinfo id="route_30.4" depart="129.00" departLane="-422986370#2_0" departPos="212.90" departSpeed="0.00" departDelay="1.21" arrival="248.00" arrivalLane="137415945#0_0" arrivalPos="3.69" arrivalSpeed="15.79" duration="119.00" routeLength="236.61" waitingTime="79.00" waitingCount="1" stopTime="0.00" timeLoss="102.72" rerouteNo="0" devices="tripinfo_route_30.4" vType="car" speedFactor="0.96" vaporized=""/>
    <tripinfo id="route_29.6" depart="133.00" departLane="-422986370#2_0" departPos="192.05" departSpeed="0.00" departDelay="4.22" arrival="248.00" arrivalLane="-430406005#1_0" arrivalPos="74.50" arrivalSpeed="14.35" duration="115.00" routeLength="216.88" waitingTime="73.00" waitingCount="1" stopTime="0.00" timeLoss="101.18" rerouteNo="0" devices="tripinfo_route_29.6" vType="car" speedFactor="1.09" vaporized=""/>
    <tripinfo id="route_29.0" depart="120.00" departLane="-422986370#2_0" departPos="1.81" departSpeed="0.00" departDelay="0.00" arrival="249.00" arrivalLane="-430406005#1_1" arrivalPos="159.13" arrivalSpeed="16.28" duration="129.00" routeLength="491.75" waitingTime="74.00" waitingCount="1" stopTime="0.00" timeLoss="99.37" rerouteNo="0" devices="tripinfo_route_29.0" vType="car" speedFactor="1.06" vaporized=""/>
    <tripinfo id="route_34.4" depart="131.00" departLane="133126008#0_0" departPos="85.67" departSpeed="0.00" departDelay="1.91" arrival="249.00" arrivalLane="1369578054_0" arrivalPos="123.18" arrivalSpeed="16.15" duration="118.00" routeLength="250.86" waitingTime="78.00" waitingCount="1" stopTime="0.00" timeLoss="102.54" rerouteNo="0" devices="tripinfo_route_34.4" vType="car" speedFactor="1.10" vaporized=""/>
    <tripinfo id="route_29.10" depart="143.00" departLane="-422986370#2_0" departPos="60.49" departSpeed="0.00" departDelay="8.37" arrival="249.00" arrivalLane="-430406005#1_1" arrivalPos="2.08" arrivalSpeed="12.64" duration="106.00" routeLength="276.02" waitingTime="59.00" waitingCount="1" stopTime="0.00" timeLoss="88.86" rerouteNo="0" devices="tripinfo_route_29.10" vType="car" speedFactor="0.98" vaporized=""/>
    <tripinfo id="route_34.10" depart="161.00" departLane="133126008#0_0" departPos="93.06" departSpeed="0.00" departDelay="18.28" arrival="250.00" arrivalLane="1369578054_1" arrivalPos="63.44" arrivalSpeed="14.52" duration="89.00" routeLength="183.74" waitingTime="58.00" waitingCount="1" stopTime="0.00" timeLoss="77.91" rerouteNo="0" devices="tripinfo_route_34.10" vType="car" speedFactor="1.18" vaporized=""/>
    <tripinfo id="route_34.8" depart="143.00" departLane="133126008#0_0" departPos="97.21" departSpeed="0.00" departDelay="4.82" arrival="251.00" arrivalLane="1369578054_1" arrivalPos="120.85" arrivalSpeed="16.23" duration="108.00" routeLength="237.00" waitingTime="71.00" waitingCount="1" stopTime="0.00" timeLoss="93.22" rerouteNo="0" devices="tripinfo_route_34.8" vType="car" speedFactor="1.01" vaporized=""/>
    <tripinfo id="route_29.13" depart="146.00" departLane="-422986370#2_0" departPos="140.33" departSpeed="0.00" departDelay="6.98" arrival="251.00" arrivalLane="-430406005#1_1" arrivalPos="81.38" arrivalSpeed="15.48" duration="105.00" routeLength="275.48" waitingTime="63.00" waitingCount="1" stopTime="0.00" timeLoss="88.28" rerouteNo="0" devices="tripinfo_route_29.13" vType="car" speedFactor="1.06" vaporized=""/>
    <tripinfo id="route_29.9" depart="142.00" departLane="-422986370#2_0" departPos="248.09" departSpeed="0.00" departDelay="8.83" arrival="252.00" arrivalLane="-430406005#1_0" arrivalPos="175.19" arrivalSpeed="16.31" duration="110.00" routeLength="261.53" waitingTime="73.00" waitingCount="1" stopTime="0.00" timeLoss="94.08" rerouteNo="0" devices="tripinfo_route_29.9" vType="car" speedFactor="1.04" vaporized=""/>
    <tripinfo id="route_29.14" depart="146.00" departLane="-422986370#2_0" departPos="158.60" departSpeed="0.00" departDelay="5.52" arrival="252.00" arrivalLane="-430406005#1_1" arrivalPos="70.44" arrivalSpeed="14.94" duration="106.00" routeLength="246.27" waitingTime="62.00" waitingCount="2" stopTime="0.00" timeLoss="90.93" rerouteNo="0" devices="tripinfo_route_29.14" vType="car" speedFactor="1.07" vaporized=""/>