<?xml version="1.0" encoding="UTF-8"?>

<!-- generated on 2025-05-04 22:10:09 by Eclipse SUMO sumo Version 1.20.0
<configuration xmlns:xsi="http://www.w3.org/2001/XMLSchema-instance" xsi:noNamespaceSchemaLocation="http://sumo.dlr.de/xsd/sumoConfiguration.xsd">

    <input>
        <net-file value="config/osm.net.xml"/>
        <route-files value="draft/generated_0_093_5_069_0_649_7_027_6_.rou.xml"/>
    </input>

    <output>
        <tripinfo-output value="draft/tripinfo_0_093_5_069_0_649_7_027_6.xml"/>
    </output>

    <time>
        <step-length value="1"/>
    </time>

    <traci_server>
        <remote-port value="43859"/>
    </traci_server>

    <gui_only>
        <start value="true"/>
    </gui_only>

</configuration>
-->

<tripinfos xmlns:xsi="http://www.w3.org/2001/XMLSchema-instance" xsi:noNamespaceSchemaLocation="http://sumo.dlr.de/xsd/tripinfo_file.xsd">
    <tripinfo id="route_37.0" depart="6.00" departLane="485211947#0_0" departPos="162.24" departSpeed="0.00" departDelay="0.00" arrival="29.00" arrivalLane="137415945#0_0" arrivalPos="6.94" arrivalSpeed="15.59" duration="23.00" routeLength="189.23" waitingTime="0.00" waitingCount="0" stopTime="0.00" timeLoss="10.52" rerouteNo="0" devices="tripinfo_route_37.0" vType="car" speedFactor="0.94" vaporized=""/>
    <tripinfo id="route_38.2" depart="15.00" departLane="485211947#0_0" departPos="162.23" departSpeed="0.00" departDelay="4.39" arrival="32.00" arrivalLane="-430406005#1_1" arrivalPos="54.97" arrivalSpeed="12.57" duration="17.00" routeLength="105.72" waitingTime="0.00" waitingCount="0" stopTime="0.00" timeLoss="9.51" rerouteNo="0" devices="tripinfo_route_38.2" vType="car" speedFactor="1.18" vaporized=""/>
    <tripinfo id="route_38.1" depart="9.00" departLane="485211947#0_0" departPos="178.72" departSpeed="0.00" departDelay="0.69" arrival="33.00" arrivalLane="-430406005#1_1" arrivalPos="170.84" arrivalSpeed="16.29" duration="24.00" routeLength="205.10" waitingTime="0.00" waitingCount="0" stopTime="0.00" timeLoss="10.64" rerouteNo="0" devices="tripinfo_route_38.1" vType="car" speedFactor="1.02" vaporized=""/>
    <tripinfo id="route_37.1" depart="9.00" departLane="485211947#0_0" departPos="76.22" departSpeed="0.00" departDelay="0.96" arrival="37.00" arrivalLane="137415945#0_1" arrivalPos="2.03" arrivalSpeed="16.57" duration="28.00" routeLength="270.34" waitingTime="0.00" waitingCount="0" stopTime="0.00" timeLoss="11.13" rerouteNo="0" devices="tripinfo_route_37.1" vType="car" speedFactor="1.16" vaporized=""/>
    <tripinfo id="route_38.0" depart="6.00" departLane="485211947#0_0" departPos="59.66" departSpeed="0.00" departDelay="0.00" arrival="40.00" arrivalLane="-430406005#1_1" arrivalPos="133.07" arrivalSpeed="16.32" duration="34.00" routeLength="286.39" waitingTime="0.00" waitingCount="0" stopTime="0.00" timeLoss="13.73" rerouteNo="0" devices="tripinfo_route_38.0" vType="car" speedFactor="0.86" vaporized=""/>
    <tripinfo id="route_36.2" depart="10.00" departLane="485211947#0_0" departPos="123.80" departSpeed="0.00" departDelay="0.67" arrival="41.00" arrivalLane="1369578054_0" arrivalPos="171.28" arrivalSpeed="13.29" duration="31.00" routeLength="244.94" waitingTime="0.00" waitingCount="0" stopTime="0.00" timeLoss="11.84" rerouteNo="0" devices="tripinfo_route_36.2" vType="car" speedFactor="0.83" vaporized=""/>
    <tripinfo id="route_37.2" depart="14.00" departLane="485211947#0_0" departPos="72.22" departSpeed="0.00" departDelay="3.92" arrival="44.00" arrivalLane="137415945#0_1" arrivalPos="12.22" arrivalSpeed="15.30" duration="30.00" routeLength="284.53" waitingTime="0.00" waitingCount="0" stopTime="0.00" timeLoss="11.20" rerouteNo="0" devices="tripinfo_route_37.2" vType="car" speedFactor="0.93" vaporized=""/>
    <tripinfo id="route_36.0" depart="6.00" departLane="485211947#0_0" departPos="11.17" departSpeed="0.00" departDelay="0.00" arrival="45.00" arrivalLane="1369578054_0" arrivalPos="74.16" arrivalSpeed="13.19" duration="39.00" routeLength="260.46" waitingTime="0.00" waitingCount="0" stopTime="0.00" timeLoss="19.55" rerouteNo="0" devices="tripinfo_route_36.0" vType="car" speedFactor="0.89" vaporized=""/>
    <tripinfo id="route_36.1" depart="8.00" departLane="485211947#0_0" departPos="100.86" departSpeed="0.00" departDelay="0.33" arrival="49.00" arrivalLane="1369578054_1" arrivalPos="281.37" arrivalSpeed="16.19" duration="41.00" routeLength="377.98" waitingTime="0.00" waitingCount="0" stopTime="0.00" timeLoss="16.98" rerouteNo="0" devices="tripinfo_route_36.1" vType="car" speedFactor="0.99" vaporized=""/>
    <tripinfo id="route_37.3" depart="20.00" departLane="485211947#0_0" departPos="62.79" departSpeed="0.00" departDelay="7.88" arrival="49.00" arrivalLane="137415945#0_1" arrivalPos="2.64" arrivalSpeed="16.11" duration="29.00" routeLength="284.38" waitingTime="0.00" waitingCount="0" stopTime="0.00" timeLoss="11.42" rerouteNo="0" devices="tripinfo_route_37.3" vType="car" speedFactor="1.10" vaporized=""/>
    <tripinfo id="route_31.0" depart="6.00" departLane="1235147073.116_0" departPos="7.14" departSpeed="0.00" departDelay="0.00" arrival="56.00" arrivalLane="133126030#0_0" arrivalPos="8.43" arrivalSpeed="7.11" duration="50.00" routeLength="175.81" waitingTime="19.00" waitingCount="1" stopTime="0.00" timeLoss="39.11" rerouteNo="0" devices="tripinfo_route_31.0" vType="car" speedFactor="1.01" vaporized=""/>
    <tripinfo id="route_36.5" depart="20.00" departLane="485211947#0_0" departPos="122.04" departSpeed="0.00" departDelay="5.67" arrival="57.00" arrivalLane="1369578054_0" arrivalPos="292.70" arrivalSpeed="14.77" duration="37.00" routeLength="368.12" waitingTime="0.00" waitingCount="0" stopTime="0.00" timeLoss="11.12" rerouteNo="0" devices="tripinfo_route_36.5" vType="car" speedFactor="0.90" vaporized=""/>
    <tripinfo id="route_32.1" depart="26.00" departLane="1235147073.116_0" departPos="15.04" departSpeed="0.00" departDelay="17.64" arrival="59.00" arrivalLane="-430406005#1_0" arrivalPos="5.79" arrivalSpeed="7.01" duration="33.00" routeLength="153.71" waitingTime="2.00" waitingCount="1" stopTime="0.00" timeLoss="21.05" rerouteNo="0" devices="tripinfo_route_32.1" vType="car" speedFactor="0.88" vaporized=""/>
    <tripinfo id="route_31.1" depart="18.00" departLane="1235147073.116_0" departPos="6.60" departSpeed="0.00" departDelay="10.03" arrival="60.00" arrivalLane="133126030#0_1" arrivalPos="56.90" arrivalSpeed="10.99" duration="42.00" routeLength="224.82" waitingTime="7.00" waitingCount="1" stopTime="0.00" timeLoss="28.37" rerouteNo="0" devices="tripinfo_route_31.1" vType="car" speedFactor="1.05" vaporized=""/>
    <tripinfo id="route_31.2" depart="26.00" departLane="1235147073.116_0" departPos="6.04" departSpeed="0.00" departDelay="16.05" arrival="61.00" arrivalLane="133126030#0_1" arrivalPos="41.34" arrivalSpeed="10.31" duration="35.00" routeLength="209.83" waitingTime="0.00" waitingCount="0" stopTime="0.00" timeLoss="21.87" rerouteNo="0" devices="tripinfo_route_31.2" vType="car" speedFactor="0.97" vaporized=""/>
    <tripinfo id="route_31.3" depart="37.00" departLane="1235147073.116_0" departPos="1.28" departSpeed="0.00" departDelay="25.08" arrival="62.00" arrivalLane="133126030#0_1" arrivalPos="28.13" arrivalSpeed="11.91" duration="25.00" routeLength="201.37" waitingTime="0.00" waitingCount="0" stopTime="0.00" timeLoss="12.39" rerouteNo="0" devices="tripinfo_route_31.3" vType="car" speedFactor="1.17" vaporized=""/>
    <tripinfo id="route_32.0" depart="9.00" departLane="1235147073.116_0" departPos="0.46" departSpeed="0.00" departDelay="3.00" arrival="64.00" arrivalLane="-430406005#1_0" arrivalPos="87.77" arrivalSpeed="12.90" duration="55.00" routeLength="250.27" waitingTime="17.00" waitingCount="1" stopTime="0.00" timeLoss="39.13" rerouteNo="0" devices="tripinfo_route_32.0" vType="car" speedFactor="1.08" vaporized=""/>
    <tripinfo id="route_33.2" depart="28.00" departLane="1235147073.116_0" departPos="0.20" departSpeed="0.00" departDelay="18.20" arrival="65.00" arrivalLane="1369578054_1" arrivalPos="50.33" arrivalSpeed="12.12" duration="37.00" routeLength="229.85" waitingTime="1.00" waitingCount="1" stopTime="0.00" timeLoss="19.88" rerouteNo="0" devices="tripinfo_route_33.2" vType="car" speedFactor="0.89" vaporized=""/>
    <tripinfo id="route_31.4" depart="45.00" departLane="1235147073.116_0" departPos="1.26" departSpeed="0.00" departDelay="31.11" arrival="68.00" arrivalLane="133126030#0_0" arrivalPos="39.35" arrivalSpeed="16.15" duration="23.00" routeLength="212.61" waitingTime="0.00" waitingCount="0" stopTime="0.00" timeLoss="10.12" rerouteNo="0" devices="tripinfo_route_31.4" vType="car" speedFactor="1.09" vaporized=""/>
    <tripinfo id="route_33.0" depart="15.00" departLane="1235147073.116_0" departPos="4.63" departSpeed="0.00" departDelay="9.00" arrival="69.00" arrivalLane="1369578054_1" arrivalPos="176.77" arrivalSpeed="16.18" duration="54.00" routeLength="351.87" waitingTime="10.00" waitingCount="1" stopTime="0.00" timeLoss="32.11" rerouteNo="0" devices="tripinfo_route_33.0" vType="car" speedFactor="1.03" vaporized=""/>
    <tripinfo id="route_33.3" depart="43.00" departLane="1235147073.116_0" departPos="9.38" departSpeed="0.00" departDelay="31.31" arrival="69.00" arrivalLane="1369578054_1" arrivalPos="8.34" arrivalSpeed="8.77" duration="26.00" routeLength="178.69" waitingTime="0.00" waitingCount="0" stopTime="0.00" timeLoss="14.26" rerouteNo="0" devices="tripinfo_route_33.3" vType="car" speedFactor="0.99" vaporized=""/>
    <tripinfo id="route_32.2" depart="32.00" departLane="1235147073.116_0" departPos="8.83" departSpeed="0.00" departDelay="21.28" arrival="70.00" arrivalLane="-430406005#1_0" arrivalPos="106.48" arrivalSpeed="14.61" duration="38.00" routeLength="260.61" waitingTime="0.00" waitingCount="0" stopTime="0.00" timeLoss="20.21" rerouteNo="0" devices="tripinfo_route_32.2" vType="car" speedFactor="0.92" vaporized=""/>
    <tripinfo id="route_33.1" depart="22.00" departLane="1235147073.116_0" departPos="2.35" departSpeed="0.00" departDelay="14.10" arrival="72.00" arrivalLane="1369578054_1" arrivalPos="189.81" arrivalSpeed="16.52" duration="50.00" routeLength="367.20" waitingTime="4.00" waitingCount="1" stopTime="0.00" timeLoss="27.15" rerouteNo="0" devices="tripinfo_route_33.1" vType="car" speedFactor="1.12" vaporized=""/>
    <tripinfo id="route_32.3" depart="51.00" departLane="1235147073.116_0" departPos="3.12" departSpeed="0.00" departDelay="37.91" arrival="84.00" arrivalLane="-430406005#1_0" arrivalPos="121.21" arrivalSpeed="16.16" duration="33.00" routeLength="281.04" waitingTime="0.00" waitingCount="0" stopTime="0.00" timeLoss="14.45" rerouteNo="0" devices="tripinfo_route_32.3" vType="car" speedFactor="1.04" vaporized=""/>
    <tripinfo id="route_31.5" depart="60.00" departLane="1235147073.116_0" departPos="3.75" departSpeed="0.00" departDelay="44.14" arrival="90.00" arrivalLane="133126030#0_0" arrivalPos="106.29" arrivalSpeed="13.77" duration="30.00" routeLength="277.06" waitingTime="0.00" waitingCount="0" stopTime="0.00" timeLoss="9.77" rerouteNo="0" devices="tripinfo_route_31.5" vType="car" speedFactor="0.85" vaporized=""/>
    <tripinfo id="route_33.4" depart="57.00" departLane="1235147073.116_0" departPos="9.62" departSpeed="0.00" departDelay="43.41" arrival="92.00" arrivalLane="1369578054_1" arrivalPos="126.81" arrivalSpeed="15.75" duration="35.00" routeLength="296.92" waitingTime="0.00" waitingCount="0" stopTime="0.00" timeLoss="16.35" rerouteNo="0" devices="tripinfo_route_33.4" vType="car" speedFactor="1.04" vaporized=""/>
    <tripinfo id="route_32.4" depart="66.00" departLane="1235147073.116_0" departPos="5.08" departSpeed="0.00" departDelay="50.55" arrival="100.00" arrivalLane="-430406005#1_0" arrivalPos="173.50" arrivalSpeed="16.23" duration="34.00" routeLength="331.38" waitingTime="0.00" waitingCount="0" stopTime="0.00" timeLoss="12.27" rerouteNo="0" devices="tripinfo_route_32.4" vType="car" speedFactor="1.17" vaporized=""/>
    <tripinfo id="route_34.0" depart="6.00" departLane="133126008#0_0" departPos="101.07" departSpeed="0.00" departDelay="0.00" arrival="103.00" arrivalLane="1369578054_1" arrivalPos="13.07" arrivalSpeed="8.75" duration="97.00" routeLength="125.36" waitingTime="71.00" waitingCount="1" stopTime="0.00" timeLoss="89.01" rerouteNo="0" devices="tripinfo_route_34.0" vType="car" speedFactor="0.83" vaporized=""/>
    <tripinfo id="route_29.1" depart="8.00" departLane="-422986370#2_0" departPos="265.89" departSpeed="0.00" departDelay="0.54" arrival="103.00" arrivalLane="-430406005#1_1" arrivalPos="8.25" arrivalSpeed="7.69" duration="95.00" routeLength="76.79" waitingTime="75.00" waitingCount="1" stopTime="0.00" timeLoss="90.17" rerouteNo="0" devices="tripinfo_route_29.1" vType="car" speedFactor="1.09" vaporized=""/>
    <tripinfo id="route_29.4" depart="12.00" departLane="-422986370#2_0" departPos="297.23" departSpeed="0.00" departDelay="0.15" arrival="106.00" arrivalLane="-430406005#1_0" arrivalPos="32.75" arrivalSpeed="10.43" duration="94.00" routeLength="69.94" waitingTime="78.00" waitingCount="1" stopTime="0.00" timeLoss="89.23" rerouteNo="0" devices="tripinfo_route_29.4" vType="car" speedFactor="1.15" vaporized=""/>
    <tripinfo id="route_34.3" depart="17.00" departLane="133126008#0_0" departPos="127.31" departSpeed="0.00" departDelay="4.18" arrival="109.00" arrivalLane="1369578054_0" arrivalPos="25.77" arrivalSpeed="10.85" duration="92.00" routeLength="111.83" waitingTime="65.00" waitingCount="1" stopTime="0.00" timeLoss="84.98" rerouteNo="0" devices="tripinfo_route_34.3" vType="car" speedFactor="0.97" vaporized=""/>
    <tripinfo id="route_34.6" depart="20.00" departLane="133126008#0_0" departPos="162.26" departSpeed="0.00" departDelay="0.37" arrival="109.00" arrivalLane="1369578054_1" arrivalPos="50.19" arrivalSpeed="11.57" duration="89.00" routeLength="101.29" waitingTime="67.00" waitingCount="2" stopTime="0.00" timeLoss="82.62" rerouteNo="0" devices="tripinfo_route_34.6" vType="car" speedFactor="0.94" vaporized=""/>
    <tripinfo id="route_35.2" depart="15.00" departLane="133126008#0_0" departPos="111.59" departSpeed="0.00" departDelay="3.34" arrival="111.00" arrivalLane="133126030#0_0" arrivalPos="51.67" arrivalSpeed="10.44" duration="96.00" routeLength="127.60" waitingTime="65.00" waitingCount="1" stopTime="0.00" timeLoss="87.82" rerouteNo="0" devices="tripinfo_route_35.2" vType="car" speedFactor="1.02" vaporized=""/>
    <tripinfo id="route_29.8" depart="22.00" departLane="-422986370#2_0" departPos="216.62" departSpeed="0.00" departDelay="4.30" arrival="111.00" arrivalLane="-430406005#1_0" arrivalPos="7.61" arrivalSpeed="10.45" duration="89.00" routeLength="125.42" waitingTime="60.00" waitingCount="1" stopTime="0.00" timeLoss="81.31" rerouteNo="0" devices="tripinfo_route_29.8" vType="car" speedFactor="1.02" vaporized=""/>
    <tripinfo id="route_34.5" depart="19.00" departLane="133126008#0_0" departPos="98.03" departSpeed="0.00" departDelay="1.64" arrival="111.00" arrivalLane="1369578054_1" arrivalPos="46.01" arrivalSpeed="11.74" duration="92.00" routeLength="161.35" waitingTime="59.00" waitingCount="1" stopTime="0.00" timeLoss="82.24" rerouteNo="0" devices="tripinfo_route_34.5" vType="car" speedFactor="0.99" vaporized=""/>
    <tripinfo id="route_29.2" depart="9.00" departLane="-422986370#2_0" departPos="99.24" departSpeed="0.00" departDelay="0.07" arrival="113.00" arrivalLane="-430406005#1_1" arrivalPos="42.28" arrivalSpeed="11.85" duration="104.00" routeLength="277.46" waitingTime="61.00" waitingCount="1" stopTime="0.00" timeLoss="85.83" rerouteNo="0" devices="tripinfo_route_29.2" vType="car" speedFactor="0.93" vaporized=""/>
    <tripinfo id="route_35.1" depart="10.00" departLane="133126008#0_0" departPos="144.87" departSpeed="0.00" departDelay="1.17" arrival="113.00" arrivalLane="133126030#0_0" arrivalPos="141.65" arrivalSpeed="15.40" duration="103.00" routeLength="184.30" waitingTime="73.00" waitingCount="1" stopTime="0.00" timeLoss="90.21" rerouteNo="0" devices="tripinfo_route_35.1" vType="car" speedFactor="0.94" vaporized=""/>
    <tripinfo id="route_30.0" depart="6.00" departLane="-422986370#2_0" departPos="201.60" departSpeed="0.00" departDelay="0.00" arrival="114.00" arrivalLane="137415945#0_0" arrivalPos="9.07" arrivalSpeed="15.42" duration="108.00" routeLength="253.29" waitingTime="70.00" waitingCount="1" stopTime="0.00" timeLoss="90.74" rerouteNo="0" devices="tripinfo_route_30.0" vType="car" speedFactor="0.94" vaporized=""/>
    <tripinfo id="route_34.1" depart="9.00" departLane="133126008#0_0" departPos="23.09" departSpeed="0.00" departDelay="0.73" arrival="117.00" arrivalLane="1369578054_1" arrivalPos="90.42" arrivalSpeed="14.23" duration="108.00" routeLength="280.69" waitingTime="59.00" waitingCount="1" stopTime="0.00" timeLoss="90.28" rerouteNo="0" devices="tripinfo_route_34.1" vType="car" speedFactor="0.94" vaporized=""/>
    <tripinfo id="route_29.3" depart="11.00" departLane="-422986370#2_0" departPos="173.76" departSpeed="0.00" departDelay="0.61" arrival="117.00" arrivalLane="-430406005#1_1" arrivalPos="127.79" arrivalSpeed="15.81" duration="106.00" routeLength="288.46" waitingTime="62.00" waitingCount="1" stopTime="0.00" timeLoss="87.27" rerouteNo="0" devices="tripinfo_route_29.3" vType="car" speedFactor="0.87" vaporized=""/>
    <tripinfo id="route_34.2" depart="12.00" departLane="133126008#0_0" departPos="165.65" departSpeed="0.00" departDelay="1.46" arrival="118.00" arrivalLane="1369578054_0" arrivalPos="207.23" arrivalSpeed="15.71" duration="106.00" routeLength="254.95" waitingTime="73.00" waitingCount="1" stopTime="0.00" timeLoss="89.20" rerouteNo="0" devices="tripinfo_route_34.2" vType="car" speedFactor="0.95" vaporized=""/>
    <tripinfo id="route_29.6" depart="19.00" departLane="-422986370#2_0" departPos="192.05" departSpeed="0.00" departDelay="4.22" arrival="118.00" arrivalLane="-430406005#1_0" arrivalPos="74.50" arrivalSpeed="14.59" duration="99.00" routeLength="216.88" waitingTime="60.00" waitingCount="1" stopTime="0.00" timeLoss="85.79" rerouteNo="0" devices="tripinfo_route_29.6" vType="car" speedFactor="1.09" vaporized=""/>
    <tripinfo id="route_35.3" depart="17.00" departLane="133126008#0_0" departPos="66.33" departSpeed="0.00" departDelay="2.51" arrival="118.00" arrivalLane="133126030#0_0" arrivalPos="67.66" arrivalSpeed="11.51" duration="101.00" routeLength="188.86" waitingTime="59.00" waitingCount="1" stopTime="0.00" timeLoss="88.52" rerouteNo="0" devices="tripinfo_route_35.3" vType="car" speedFactor="1.00" vaporized=""/>
    <tripinfo id="route_30.5" depart="19.00" departLane="-422986370#2_0" departPos="245.96" departSpeed="0.00" departDelay="3.26" arrival="118.00" arrivalLane="137415945#0_0" arrivalPos="11.12" arrivalSpeed="13.73" duration="99.00" routeLength="210.98" waitingTime="65.00" waitingCount="1" stopTime="0.00" timeLoss="82.27" rerouteNo="0" devices="tripinfo_route_30.5" vType="car" speedFactor="0.85" vaporized=""/>
    <tripinfo id="route_29.9" depart="23.00" departLane="-422986370#2_0" departPos="275.45" departSpeed="0.00" departDelay="3.83" arrival="118.00" arrivalLane="-430406005#1_1" arrivalPos="175.19" arrivalSpeed="16.32" duration="95.00" routeLength="234.17" waitingTime="63.00" waitingCount="1" stopTime="0.00" timeLoss="80.83" rerouteNo="0" devices="tripinfo_route_29.9" vType="car" speedFactor="1.04" vaporized=""/>
    <tripinfo id="route_29.5" depart="15.00" departLane="-422986370#2_0" departPos="127.34" departSpeed="0.00" departDelay="1.69" arrival="119.00" arrivalLane="-430406005#1_1" arrivalPos="62.84" arrivalSpeed="14.10" duration="104.00" routeLength="269.93" waitingTime="58.00" waitingCount="1" stopTime="0.00" timeLoss="86.99" rerouteNo="0" devices="tripinfo_route_29.5" vType="car" speedFactor="1.03" vaporized=""/>
    <tripinfo id="route_30.4" depart="15.00" departLane="-422986370#2_0" departPos="212.90" departSpeed="0.00" departDelay="1.21" arrival="119.00" arrivalLane="137415945#0_0" arrivalPos="3.69" arrivalSpeed="15.47" duration="104.00" routeLength="236.61" waitingTime="64.00" waitingCount="1" stopTime="0.00" timeLoss="87.83" rerouteNo="0" devices="tripinfo_route_30.4" vType="car" speedFactor="0.96" vaporized=""/>
    <tripinfo id="route_35.0" depart="6.00" departLane="133126008#0_0" departPos="47.21" departSpeed="0.00" departDelay="0.00" arrival="120.00" arrivalLane="133126030#0_0" arrivalPos="137.72" arrivalSpeed="15.48" duration="114.00" routeLength="278.03" waitingTime="64.00" waitingCount="1" stopTime="0.00" timeLoss="95.75" rerouteNo="0" devices="tripinfo_route_35.0" vType="car" speedFactor="1.05" vaporized=""/>
    <tripinfo id="route_29.7" depart="20.00" departLane="-422986370#2_0" departPos="3.49" departSpeed="0.00" departDelay="3.76" arrival="120.00" arrivalLane="-430406005#1_1" arrivalPos="50.22" arrivalSpeed="13.85" duration="100.00" routeLength="381.16" waitingTime="50.00" waitingCount="1" stopTime="0.00" timeLoss="74.53" rerouteNo="0" devices="tripinfo_route_29.7" vType="car" speedFactor="0.90" vaporized=""/>
    <tripinfo id="route_34.7" depart="23.00" departLane="133126008#0_0" departPos="44.71" departSpeed="0.00" departDelay="1.10" arrival="120.00" arrivalLane="1369578054_1" arrivalPos="62.18" arrivalSpeed="13.76" duration="97.00" routeLength="230.83" waitingTime="56.00" waitingCount="1" stopTime="0.00" timeLoss="82.71" rerouteNo="0" devices="tripinfo_route_34.7" vType="car" speedFactor="0.97" vaporized=""/>
    <tripinfo id="route_29.11" depart="32.00" departLane="-422986370#2_0" departPos="158.60" departSpeed="0.00" departDelay="9.91" arrival="120.00" arrivalLane="-430406005#1_1" arrivalPos="28.15" arrivalSpeed="13.08" duration="88.00" routeLength="203.98" waitingTime="50.00" waitingCount="1" stopTime="0.00" timeLoss="75.26" rerouteNo="0" devices="tripinfo_route_29.11" vType="car" speedFactor="1.15" vaporized=""/>
    <tripinfo id="route_34.4" depart="17.00" departLane="133126008#0_0" departPos="85.67" departSpeed="0.00" departDelay="1.91" arrival="121.00" arrivalLane="1369578054_1" arrivalPos="123.18" arrivalSpeed="16.31" duration="104.00" routeLength="250.86" waitingTime="57.00" waitingCount="1" stopTime="0.00" timeLoss="88.21" rerouteNo="0" devices="tripinfo_route_34.4" vType="car" speedFactor="1.10" vaporized=""/>
    <tripinfo id="route_34.9" depart="37.00" departLane="133126008#0_0" departPos="75.47" departSpeed="0.00" departDelay="10.55" arrival="122.00" arrivalLane="1369578054_1" arrivalPos="66.50" arrivalSpeed="14.61" duration="85.00" routeLength="204.39" waitingTime="49.00" waitingCount="1" stopTime="0.00" timeLoss="72.32" rerouteNo="0" devices="tripinfo_route_34.9" vType="car" speedFactor="1.03" vaporized=""/>
    <tripinfo id="route_29.0" depart="6.00" departLane="-422986370#2_0" departPos="1.81" departSpeed="0.00" departDelay="0.00" arrival="123.00" arrivalLane="-430406005#1_1" arrivalPos="159.13" arrivalSpeed="16.16" duration="117.00" routeLength="491.75" waitingTime="61.00" waitingCount="1" stopTime="0.00" timeLoss="87.14" rerouteNo="0" devices="tripinfo_route_29.0" vType="car" speedFactor="1.06" vaporized=""/>
    <tripinfo id="route_35.6" depart="28.00" departLane="133126008#0_0" departPos="5.63" departSpeed="0.00" departDelay="5.02" arrival="123.00" arrivalLane="133126030#0_0" arrivalPos="23.99" arrivalSpeed="8.28" duration="95.00" routeLength="205.89" waitingTime="50.00" waitingCount="1" stopTime="0.00" timeLoss="81.15" rerouteNo="0" devices="tripinfo_route_35.6" vType="car" speedFactor="1.00" vaporized=""/>
    <tripinfo id="route_29.10" depart="27.00" departLane="-422986370#2_0" departPos="79.17" departSpeed="0.00" departDelay="6.37" arrival="125.00" arrivalLane="-430406005#1_1" arrivalPos="73.55" arrivalSpeed="16.18" duration="98.00" routeLength="328.82" waitingTime="49.00" waitingCount="1" stopTime="0.00" timeLoss="77.33" rerouteNo="0" devices="tripinfo_route_29.10" vType="car" speedFactor="0.98" vaporized=""/>
    <tripinfo id="route_34.8" depart="29.00" departLane="133126008#0_0" departPos="104.16" departSpeed="0.00" departDelay="4.82" arrival="125.00" arrivalLane="1369578054_1" arrivalPos="170.67" arrivalSpeed="16.51" duration="96.00" routeLength="279.87" waitingTime="57.00" waitingCount="1" stopTime="0.00" timeLoss="78.97" rerouteNo="0" devices="tripinfo_route_34.8" vType="car" speedFactor="1.01" vaporized=""/>
    <tripinfo id="route_34.10" depart="41.00" departLane="133126008#0_0" departPos="94.35" departSpeed="0.00" departDelay="12.28" arrival="125.00" arrivalLane="1369578054_0" arrivalPos="60.51" arrivalSpeed="14.65" duration="84.00" routeLength="179.52" waitingTime="50.00" waitingCount="1" stopTime="0.00" timeLoss="72.46" rerouteNo="0" devices="tripinfo_route_34.10" vType="car" speedFactor="1.18" vaporized=""/>
    <tripinfo id="route_30.1" depart="8.00" departLane="-422986370#2_0" departPos="118.79" departSpeed="0.00" departDelay="0.05" arrival="126.00" arrivalLane="137415945#0_0" arrivalPos="6.53" arrivalSpeed="16.29" duration="118.00" routeLength="333.56" waitingTime="60.00" waitingCount="1" stopTime="0.00" timeLoss="96.05" rerouteNo="0" devices="tripinfo_route_30.1" vType="car" speedFactor="1.03" vaporized=""/>
    <tripinfo id="route_35.5" depart="22.00" departLane="133126008#0_0" departPos="65.41" departSpeed="0.00" departDelay="1.85" arrival="126.00" arrivalLane="133126030#0_0" arrivalPos="157.74" arrivalSpeed="16.24" duration="104.00" routeLength="279.84" waitingTime="56.00" waitingCount="1" stopTime="0.00" timeLoss="86.04" rerouteNo="0" devices="tripinfo_route_35.5" vType="car" speedFactor="0.98" vaporized=""/>
    <tripinfo id="route_29.13" depart="35.00" departLane="-422986370#2_0" departPos="74.71" departSpeed="0.00" departDelay="9.98" arrival="127.00" arrivalLane="-430406005#1_1" arrivalPos="76.84" arrivalSpeed="16.57" duration="92.00" routeLength="336.56" waitingTime="43.00" waitingCount="1" stopTime="0.00" timeLoss="70.87" rerouteNo="0" devices="tripinfo_route_29.13" vType="car" speedFactor="1.06" vaporized=""/>
    <tripinfo id="route_30.3" depart="12.00" departLane="-422986370#2_0" departPos="94.02" departSpeed="0.00" departDelay="0.16" arrival="128.00" arrivalLane="137415945#0_0" arrivalPos="8.17" arrivalSpeed="16.44" duration="116.00" routeLength="359.97" waitingTime="60.00" waitingCount="1" stopTime="0.00" timeLoss="92.90" rerouteNo="0" devices="tripinfo_route_30.3" vType="car" speedFactor="1.01" vaporized=""/>
    <tripinfo id="route_29.16" depart="47.00" departLane="-422986370#2_0" departPos="153.07" departSpeed="0.00" departDelay="17.59" arrival="129.00" arrivalLane="-430406005#1_1" arrivalPos="85.05" arrivalSpeed="16.29" duration="82.00" routeLength="266.41" waitingTime="40.00" waitingCount="1" stopTime="0.00" timeLoss="65.30" rerouteNo="0" devices="tripinfo_route_29.16" vType="car" speedFactor="1.07" vaporized=""/>
    <tripinfo id="route_34.13" depart="54.00" departLane="133126008#0_0" departPos="39.28" departSpeed="0.00" departDelay="18.46" arrival="129.00" arrivalLane="1369578054_1" arrivalPos="66.05" arrivalSpeed="13.38" duration="75.00" routeLength="240.13" waitingTime="36.00" waitingCount="1" stopTime="0.00" timeLoss="60.28" rerouteNo="0" devices="tripinfo_route_34.13" vType="car" speedFactor="1.07" vaporized=""/>
    <tripinfo id="route_30.2" depart="10.00" departLane="-422986370#2_0" departPos="26.67" departSpeed="0.00" departDelay="0.10" arrival="130.00" arrivalLane="137415945#0_0" arrivalPos="3.36" arrivalSpeed="15.72" duration="120.00" routeLength="422.51" waitingTime="59.00" waitingCount="1" stopTime="0.00" timeLoss="93.40" rerouteNo="0" devices="tripinfo_route_30.2" vType="car" speedFactor="1.01" vaporized=""/>
    <tripinfo id="route_35.4" depart="19.00" departLane="133126008#0_0" departPos="2.61" departSpeed="0.00" departDelay="1.68" arrival="130.00" arrivalLane="133126030#0_0" arrivalPos="167.58" arrivalSpeed="15.28" duration="111.00" routeLength="352.49" waitingTime="56.00" waitingCount="1" stopTime="0.00" timeLoss="87.19" rerouteNo="0" devices="tripinfo_route_35.4" vType="car" speedFactor="0.94" vaporized=""/>
    <tripinfo id="route_29.12" depart="34.00" departLane="-422986370#2_0" departPos="4.92" departSpeed="0.00" departDelay="10.44" arrival="131.00" arrivalLane="-430406005#1_1" arrivalPos="83.19" arrivalSpeed="16.55" duration="97.00" routeLength="412.71" waitingTime="41.00" waitingCount="1" stopTime="0.00" timeLoss="71.84" rerouteNo="0" devices="tripinfo_route_29.12" vType="car" speedFactor="1.02" vaporized=""/>
    <tripinfo id="route_34.16" depart="83.00" departLane="133126008#0_0" departPos="53.35" departSpeed="0.00" departDelay="40.65" arrival="131.00" arrivalLane="1369578054_1" arrivalPos="77.63" arrivalSpeed="15.14" duration="48.00" routeLength="237.64" waitingTime="12.00" waitingCount="1" stopTime="0.00" timeLoss="33.21" rerouteNo="0" devices="tripinfo_route_34.16" vType="car" speedFactor="0.92" vaporized=""/>
    <tripinfo id="route_35.7" depart="31.00" departLane="133126008#0_0" departPos="1.98" departSpeed="0.00" departDelay="5.19" arrival="133.00" arrivalLane="133126030#0_0" arrivalPos="112.02" arrivalSpeed="14.15" duration="102.00" routeLength="297.56" waitingTime="50.00" waitingCount="1" stopTime="0.00" timeLoss="82.27" rerouteNo="0" devices="tripinfo_route_35.7" vType="car" speedFactor="0.95" vaporized=""/>
    <tripinfo id="route_30.9" depart="34.00" departLane="-422986370#2_0" departPos="128.13" departSpeed="0.00" departDelay="10.47" arrival="135.00" arrivalLane="137415945#0_0" arrivalPos="2.43" arrivalSpeed="14.58" duration="101.00" routeLength="320.11" waitingTime="48.00" waitingCount="1" stopTime="0.00" timeLoss="78.27" rerouteNo="0" devices="tripinfo_route_30.9" vType="car" speedFactor="0.89" vaporized=""/>