<?xml version="1.0" encoding="UTF-8"?>

<!-- generated on 2025-05-04 22:11:42 by Eclipse SUMO sumo Version 1.20.0
<configuration xmlns:xsi="http://www.w3.org/2001/XMLSchema-instance" xsi:noNamespaceSchemaLocation="http://sumo.dlr.de/xsd/sumoConfiguration.xsd">

    <input>
        <net-file value="config/osm.net.xml"/>
        <route-files value="draft/generated_0_093_5_069_0_649_7_027_117_.rou.xml"/>
    </input>

    <output>
        <tripinfo-output value="draft/tripinfo_0_093_5_069_0_649_7_027_117.xml"/>
    </output>

    <time>
        <step-length value="1"/>
    </time>

    <traci_server>
        <remote-port value="46691"/>
    </traci_server>

    <gui_only>
        <start value="true"/>
    </gui_only>

</configuration>
-->

<tripinfos xmlns:xsi="http://www.w3.org/2001/XMLSchema-instance" xsi:noNamespaceSchemaLocation="http://sumo.dlr.de/xsd/tripinfo_file.xsd">
    <tripinfo id="route_38.2" depart="126.00" departLane="485211947#0_0" departPos="162.23" departSpeed="0.00" departDelay="4.39" arrival="145.00" arrivalLane="-430406005#1_1" arrivalPos="54.97" arrivalSpeed="11.12" duration="19.00" routeLength="105.72" waitingTime="0.00" waitingCount="0" stopTime="0.00" timeLoss="11.76" rerouteNo="0" devices="tripinfo_route_38.2" vType="car" speedFactor="1.18" vaporized=""/>
    <tripinfo id="route_37.1" depart="120.00" departLane="485211947#0_0" departPos="76.22" departSpeed="0.00" departDelay="0.96" arrival="147.00" arrivalLane="137415945#0_1" arrivalPos="2.03" arrivalSpeed="16.43" duration="27.00" routeLength="270.34" waitingTime="0.00" waitingCount="0" stopTime="0.00" timeLoss="10.66" rerouteNo="0" devices="tripinfo_route_37.1" vType="car" speedFactor="1.16" vaporized=""/>
    <tripinfo id="route_37.0" depart="117.00" departLane="485211947#0_0" departPos="162.24" departSpeed="0.00" departDelay="0.00" arrival="149.00" arrivalLane="137415945#0_0" arrivalPos="6.94" arrivalSpeed="15.22" duration="32.00" routeLength="189.23" waitingTime="2.00" waitingCount="1" stopTime="0.00" timeLoss="19.83" rerouteNo="0" devices="tripinfo_route_37.0" vType="car" speedFactor="0.94" vaporized=""/>
    <tripinfo id="route_38.1" depart="120.00" departLane="485211947#0_0" departPos="178.72" departSpeed="0.00" departDelay="0.69" arrival="152.00" arrivalLane="-430406005#1_1" arrivalPos="170.84" arrivalSpeed="16.23" duration="32.00" routeLength="205.10" waitingTime="3.00" waitingCount="1" stopTime="0.00" timeLoss="18.07" rerouteNo="0" devices="tripinfo_route_38.1" vType="car" speedFactor="1.02" vaporized=""/>
    <tripinfo id="route_36.2" depart="121.00" departLane="485211947#0_0" departPos="123.80" departSpeed="0.00" departDelay="0.67" arrival="152.00" arrivalLane="1369578054_0" arrivalPos="171.28" arrivalSpeed="13.29" duration="31.00" routeLength="244.94" waitingTime="0.00" waitingCount="0" stopTime="0.00" timeLoss="11.96" rerouteNo="0" devices="tripinfo_route_36.2" vType="car" speedFactor="0.83" vaporized=""/>
    <tripinfo id="route_38.0" depart="117.00" departLane="485211947#0_0" departPos="59.66" departSpeed="0.00" departDelay="0.00" arrival="153.00" arrivalLane="-430406005#1_1" arrivalPos="133.07" arrivalSpeed="15.41" duration="36.00" routeLength="286.39" waitingTime="0.00" waitingCount="0" stopTime="0.00" timeLoss="15.52" rerouteNo="0" devices="tripinfo_route_38.0" vType="car" speedFactor="0.86" vaporized=""/>
    <tripinfo id="route_37.2" depart="125.00" departLane="485211947#0_0" departPos="72.22" departSpeed="0.00" departDelay="3.92" arrival="155.00" arrivalLane="137415945#0_1" arrivalPos="12.22" arrivalSpeed="15.30" duration="30.00" routeLength="284.53" waitingTime="0.00" waitingCount="0" stopTime="0.00" timeLoss="11.26" rerouteNo="0" devices="tripinfo_route_37.2" vType="car" speedFactor="0.93" vaporized=""/>
    <tripinfo id="route_36.0" depart="117.00" departLane="485211947#0_0" departPos="11.17" departSpeed="0.00" departDelay="0.00" arrival="156.00" arrivalLane="1369578054_0" arrivalPos="74.16" arrivalSpeed="13.19" duration="39.00" routeLength="260.46" waitingTime="0.00" waitingCount="0" stopTime="0.00" timeLoss="19.47" rerouteNo="0" devices="tripinfo_route_36.0" vType="car" speedFactor="0.89" vaporized=""/>
    <tripinfo id="route_38.3" depart="131.00" departLane="485211947#0_0" departPos="0.16" departSpeed="0.00" departDelay="7.08" arrival="159.00" arrivalLane="-430406005#1_1" arrivalPos="32.26" arrivalSpeed="11.31" duration="28.00" routeLength="245.09" waitingTime="0.00" waitingCount="0" stopTime="0.00" timeLoss="10.60" rerouteNo="0" devices="tripinfo_route_38.3" vType="car" speedFactor="0.90" vaporized=""/>
    <tripinfo id="route_36.1" depart="119.00" departLane="485211947#0_0" departPos="100.86" departSpeed="0.00" departDelay="0.33" arrival="160.00" arrivalLane="1369578054_1" arrivalPos="281.37" arrivalSpeed="16.19" duration="41.00" routeLength="377.98" waitingTime="0.00" waitingCount="0" stopTime="0.00" timeLoss="17.08" rerouteNo="0" devices="tripinfo_route_36.1" vType="car" speedFactor="0.99" vaporized=""/>
    <tripinfo id="route_37.3" depart="131.00" departLane="485211947#0_0" departPos="62.79" departSpeed="0.00" departDelay="7.88" arrival="160.00" arrivalLane="137415945#0_1" arrivalPos="2.64" arrivalSpeed="16.31" duration="29.00" routeLength="284.38" waitingTime="0.00" waitingCount="0" stopTime="0.00" timeLoss="11.12" rerouteNo="0" devices="tripinfo_route_37.3" vType="car" speedFactor="1.10" vaporized=""/>
    <tripinfo id="route_36.5" depart="131.00" departLane="485211947#0_0" departPos="122.04" departSpeed="0.00" departDelay="5.67" arrival="168.00" arrivalLane="1369578054_0" arrivalPos="292.70" arrivalSpeed="14.99" duration="37.00" routeLength="368.12" waitingTime="0.00" waitingCount="0" stopTime="0.00" timeLoss="11.03" rerouteNo="0" devices="tripinfo_route_36.5" vType="car" speedFactor="0.90" vaporized=""/>
    <tripinfo id="route_36.6" depart="137.00" departLane="485211947#0_0" departPos="97.89" departSpeed="0.00" departDelay="10.00" arrival="168.00" arrivalLane="1369578054_0" arrivalPos="102.74" arrivalSpeed="14.56" duration="31.00" routeLength="202.31" waitingTime="0.00" waitingCount="0" stopTime="0.00" timeLoss="17.60" rerouteNo="0" devices="tripinfo_route_36.6" vType="car" speedFactor="1.00" vaporized=""/>
    <tripinfo id="route_37.6" depart="146.00" departLane="485211947#0_0" departPos="158.48" departSpeed="0.00" departDelay="16.76" arrival="169.00" arrivalLane="137415945#0_0" arrivalPos="7.30" arrivalSpeed="14.80" duration="23.00" routeLength="193.35" waitingTime="0.00" waitingCount="0" stopTime="0.00" timeLoss="9.48" rerouteNo="0" devices="tripinfo_route_37.6" vType="car" speedFactor="0.91" vaporized=""/>
    <tripinfo id="route_37.4" depart="136.00" departLane="485211947#0_0" departPos="22.13" departSpeed="0.00" departDelay="10.84" arrival="170.00" arrivalLane="137415945#0_1" arrivalPos="0.30" arrivalSpeed="14.34" duration="34.00" routeLength="322.70" waitingTime="0.00" waitingCount="0" stopTime="0.00" timeLoss="11.62" rerouteNo="0" devices="tripinfo_route_37.4" vType="car" speedFactor="0.88" vaporized=""/>
    <tripinfo id="route_38.4" depart="137.00" departLane="485211947#0_0" departPos="2.16" departSpeed="0.00" departDelay="10.77" arrival="172.00" arrivalLane="-430406005#1_1" arrivalPos="124.92" arrivalSpeed="16.44" duration="35.00" routeLength="335.74" waitingTime="0.00" waitingCount="0" stopTime="0.00" timeLoss="13.50" rerouteNo="0" devices="tripinfo_route_38.4" vType="car" speedFactor="1.00" vaporized=""/>
    <tripinfo id="route_36.4" depart="129.00" departLane="485211947#0_0" departPos="51.38" departSpeed="0.00" departDelay="5.34" arrival="174.00" arrivalLane="1369578054_0" arrivalPos="169.94" arrivalSpeed="16.29" duration="45.00" routeLength="316.02" waitingTime="0.00" waitingCount="0" stopTime="0.00" timeLoss="24.85" rerouteNo="0" devices="tripinfo_route_36.4" vType="car" speedFactor="1.18" vaporized=""/>
    <tripinfo id="route_37.5" depart="141.00" departLane="485211947#0_0" departPos="54.37" departSpeed="0.00" departDelay="13.80" arrival="174.00" arrivalLane="137415945#0_1" arrivalPos="9.07" arrivalSpeed="16.11" duration="33.00" routeLength="299.22" waitingTime="0.00" waitingCount="0" stopTime="0.00" timeLoss="14.64" rerouteNo="0" devices="tripinfo_route_37.5" vType="car" speedFactor="1.14" vaporized=""/>
    <tripinfo id="route_36.7" depart="143.00" departLane="485211947#0_0" departPos="73.50" departSpeed="0.00" departDelay="14.34" arrival="175.00" arrivalLane="1369578054_0" arrivalPos="103.24" arrivalSpeed="14.35" duration="32.00" routeLength="227.20" waitingTime="0.00" waitingCount="0" stopTime="0.00" timeLoss="14.76" rerouteNo="0" devices="tripinfo_route_36.7" vType="car" speedFactor="0.88" vaporized=""/>
    <tripinfo id="route_36.11" depart="158.00" departLane="485211947#0_0" departPos="135.89" departSpeed="0.00" departDelay="22.67" arrival="175.00" arrivalLane="1369578054_0" arrivalPos="10.38" arrivalSpeed="7.86" duration="17.00" routeLength="71.94" waitingTime="0.00" waitingCount="0" stopTime="0.00" timeLoss="11.00" rerouteNo="0" devices="tripinfo_route_36.11" vType="car" speedFactor="0.91" vaporized=""/>
    <tripinfo id="route_38.5" depart="143.00" departLane="485211947#0_0" departPos="34.04" departSpeed="0.00" departDelay="14.47" arrival="176.00" arrivalLane="-430406005#1_1" arrivalPos="118.46" arrivalSpeed="15.87" duration="33.00" routeLength="297.40" waitingTime="0.00" waitingCount="0" stopTime="0.00" timeLoss="13.04" rerouteNo="0" devices="tripinfo_route_38.5" vType="car" speedFactor="0.91" vaporized=""/>
    <tripinfo id="route_37.7" depart="149.00" departLane="485211947#0_0" departPos="66.50" departSpeed="0.00" departDelay="17.72" arrival="177.00" arrivalLane="137415945#0_1" arrivalPos="5.01" arrivalSpeed="16.39" duration="28.00" routeLength="283.04" waitingTime="0.00" waitingCount="0" stopTime="0.00" timeLoss="10.47" rerouteNo="0" devices="tripinfo_route_37.7" vType="car" speedFactor="1.09" vaporized=""/>
    <tripinfo id="route_38.6" depart="146.00" departLane="485211947#0_0" departPos="10.53" departSpeed="0.00" departDelay="15.16" arrival="181.00" arrivalLane="-430406005#1_1" arrivalPos="142.51" arrivalSpeed="16.25" duration="35.00" routeLength="344.95" waitingTime="0.00" waitingCount="0" stopTime="0.00" timeLoss="12.65" rerouteNo="0" devices="tripinfo_route_38.6" vType="car" speedFactor="0.96" vaporized=""/>
    <tripinfo id="route_36.3" depart="123.00" departLane="485211947#0_0" departPos="12.41" departSpeed="0.00" departDelay="1.00" arrival="183.00" arrivalLane="1369578054_0" arrivalPos="280.18" arrivalSpeed="16.55" duration="60.00" routeLength="465.23" waitingTime="0.00" waitingCount="0" stopTime="0.00" timeLoss="30.17" rerouteNo="0" devices="tripinfo_route_36.3" vType="car" speedFactor="1.13" vaporized=""/>
    <tripinfo id="route_37.8" depart="156.00" departLane="485211947#0_0" departPos="104.11" departSpeed="0.00" departDelay="22.68" arrival="183.00" arrivalLane="137415945#0_1" arrivalPos="1.46" arrivalSpeed="16.30" duration="27.00" routeLength="241.88" waitingTime="0.00" waitingCount="0" stopTime="0.00" timeLoss="11.48" rerouteNo="0" devices="tripinfo_route_37.8" vType="car" speedFactor="1.01" vaporized=""/>
    <tripinfo id="route_37.9" depart="160.00" departLane="485211947#0_0" departPos="151.85" departSpeed="0.00" departDelay="24.64" arrival="183.00" arrivalLane="137415945#0_0" arrivalPos="9.54" arrivalSpeed="16.57" duration="23.00" routeLength="202.22" waitingTime="0.00" waitingCount="0" stopTime="0.00" timeLoss="10.60" rerouteNo="0" devices="tripinfo_route_37.9" vType="car" speedFactor="1.12" vaporized=""/>
    <tripinfo id="route_31.0" depart="117.00" departLane="1235147073.116_0" departPos="7.14" departSpeed="0.00" departDelay="0.00" arrival="185.00" arrivalLane="133126030#0_0" arrivalPos="8.43" arrivalSpeed="7.11" duration="68.00" routeLength="175.81" waitingTime="37.00" waitingCount="1" stopTime="0.00" timeLoss="57.26" rerouteNo="0" devices="tripinfo_route_31.0" vType="car" speedFactor="1.01" vaporized=""/>
    <tripinfo id="route_32.1" depart="137.00" departLane="1235147073.116_0" departPos="15.04" departSpeed="0.00" departDelay="17.64" arrival="188.00" arrivalLane="-430406005#1_0" arrivalPos="5.79" arrivalSpeed="7.11" duration="51.00" routeLength="153.71" waitingTime="22.00" waitingCount="1" stopTime="0.00" timeLoss="39.01" rerouteNo="0" devices="tripinfo_route_32.1" vType="car" speedFactor="0.88" vaporized=""/>
    <tripinfo id="route_31.1" depart="129.00" departLane="1235147073.116_0" departPos="6.60" departSpeed="0.00" departDelay="10.03" arrival="190.00" arrivalLane="133126030#0_1" arrivalPos="56.90" arrivalSpeed="10.79" duration="61.00" routeLength="224.82" waitingTime="25.00" waitingCount="1" stopTime="0.00" timeLoss="47.09" rerouteNo="0" devices="tripinfo_route_31.1" vType="car" speedFactor="1.05" vaporized=""/>
    <tripinfo id="route_31.2" depart="137.00" departLane="1235147073.116_0" departPos="6.04" departSpeed="0.00" departDelay="16.05" arrival="190.00" arrivalLane="133126030#0_1" arrivalPos="41.34" arrivalSpeed="10.42" duration="53.00" routeLength="209.83" waitingTime="18.00" waitingCount="1" stopTime="0.00" timeLoss="40.03" rerouteNo="0" devices="tripinfo_route_31.2" vType="car" speedFactor="0.97" vaporized=""/>
    <tripinfo id="route_31.3" depart="148.00" departLane="1235147073.116_0" departPos="1.28" departSpeed="0.00" departDelay="25.08" arrival="191.00" arrivalLane="133126030#0_1" arrivalPos="28.13" arrivalSpeed="10.48" duration="43.00" routeLength="201.37" waitingTime="9.00" waitingCount="1" stopTime="0.00" timeLoss="30.58" rerouteNo="0" devices="tripinfo_route_31.3" vType="car" speedFactor="1.17" vaporized=""/>
    <tripinfo id="route_33.3" depart="154.00" departLane="1235147073.116_0" departPos="2.67" departSpeed="0.00" departDelay="31.31" arrival="192.00" arrivalLane="1369578054_1" arrivalPos="8.34" arrivalSpeed="9.21" duration="38.00" routeLength="185.40" waitingTime="4.00" waitingCount="1" stopTime="0.00" timeLoss="25.91" rerouteNo="0" devices="tripinfo_route_33.3" vType="car" speedFactor="0.99" vaporized=""/>
    <tripinfo id="route_32.0" depart="120.00" departLane="1235147073.116_0" departPos="0.46" departSpeed="0.00" departDelay="3.00" arrival="194.00" arrivalLane="-430406005#1_0" arrivalPos="87.77" arrivalSpeed="13.14" duration="74.00" routeLength="250.27" waitingTime="35.00" waitingCount="1" stopTime="0.00" timeLoss="57.68" rerouteNo="0" devices="tripinfo_route_32.0" vType="car" speedFactor="1.08" vaporized=""/>
    <tripinfo id="route_33.2" depart="139.00" departLane="1235147073.116_0" departPos="0.20" departSpeed="0.00" departDelay="18.20" arrival="194.00" arrivalLane="1369578054_1" arrivalPos="50.33" arrivalSpeed="11.84" duration="55.00" routeLength="229.85" waitingTime="18.00" waitingCount="2" stopTime="0.00" timeLoss="38.20" rerouteNo="0" devices="tripinfo_route_33.2" vType="car" speedFactor="0.89" vaporized=""/>
    <tripinfo id="route_31.4" depart="155.00" departLane="1235147073.116_0" departPos="14.63" departSpeed="0.00" departDelay="30.11" arrival="194.00" arrivalLane="133126030#0_1" arrivalPos="39.35" arrivalSpeed="11.46" duration="39.00" routeLength="199.24" waitingTime="5.00" waitingCount="1" stopTime="0.00" timeLoss="26.87" rerouteNo="0" devices="tripinfo_route_31.4" vType="car" speedFactor="1.09" vaporized=""/>
    <tripinfo id="route_33.0" depart="126.00" departLane="1235147073.116_0" departPos="4.63" departSpeed="0.00" departDelay="9.00" arrival="199.00" arrivalLane="1369578054_1" arrivalPos="176.77" arrivalSpeed="16.35" duration="73.00" routeLength="351.87" waitingTime="28.00" waitingCount="1" stopTime="0.00" timeLoss="50.23" rerouteNo="0" devices="tripinfo_route_33.0" vType="car" speedFactor="1.03" vaporized=""/>
    <tripinfo id="route_32.2" depart="143.00" departLane="1235147073.116_0" departPos="8.83" departSpeed="0.00" departDelay="21.28" arrival="199.00" arrivalLane="-430406005#1_0" arrivalPos="106.48" arrivalSpeed="14.84" duration="56.00" routeLength="260.61" waitingTime="16.00" waitingCount="1" stopTime="0.00" timeLoss="38.14" rerouteNo="0" devices="tripinfo_route_32.2" vType="car" speedFactor="0.92" vaporized=""/>
    <tripinfo id="route_33.1" depart="133.00" departLane="1235147073.116_0" departPos="2.35" departSpeed="0.00" departDelay="14.10" arrival="201.00" arrivalLane="1369578054_1" arrivalPos="189.81" arrivalSpeed="16.44" duration="68.00" routeLength="367.20" waitingTime="22.00" waitingCount="1" stopTime="0.00" timeLoss="45.06" rerouteNo="0" devices="tripinfo_route_33.1" vType="car" speedFactor="1.12" vaporized=""/>
    <tripinfo id="route_31.5" depart="167.00" departLane="1235147073.116_0" departPos="10.52" departSpeed="0.00" departDelay="40.14" arrival="201.00" arrivalLane="133126030#0_1" arrivalPos="106.29" arrivalSpeed="13.88" duration="34.00" routeLength="270.29" waitingTime="0.00" waitingCount="0" stopTime="0.00" timeLoss="14.59" rerouteNo="0" devices="tripinfo_route_31.5" vType="car" speedFactor="0.85" vaporized=""/>
    <tripinfo id="route_32.3" depart="159.00" departLane="1235147073.116_0" departPos="4.17" departSpeed="0.00" departDelay="34.91" arrival="202.00" arrivalLane="-430406005#1_0" arrivalPos="121.21" arrivalSpeed="15.59" duration="43.00" routeLength="279.99" waitingTime="3.00" waitingCount="1" stopTime="0.00" timeLoss="24.92" rerouteNo="0" devices="tripinfo_route_32.3" vType="car" speedFactor="1.04" vaporized=""/>
    <tripinfo id="route_33.4" depart="164.00" departLane="1235147073.116_0" departPos="7.21" departSpeed="0.00" departDelay="39.41" arrival="204.00" arrivalLane="1369578054_1" arrivalPos="126.81" arrivalSpeed="15.99" duration="40.00" routeLength="299.33" waitingTime="0.00" waitingCount="0" stopTime="0.00" timeLoss="20.88" rerouteNo="0" devices="tripinfo_route_33.4" vType="car" speedFactor="1.04" vaporized=""/>
    <tripinfo id="route_32.4" depart="171.00" departLane="1235147073.116_0" departPos="3.75" departSpeed="0.00" departDelay="44.55" arrival="206.00" arrivalLane="-430406005#1_0" arrivalPos="173.50" arrivalSpeed="16.17" duration="35.00" routeLength="332.70" waitingTime="0.00" waitingCount="0" stopTime="0.00" timeLoss="14.52" rerouteNo="0" devices="tripinfo_route_32.4" vType="car" speedFactor="1.17" vaporized=""/>
    <tripinfo id="route_31.6" depart="177.00" departLane="1235147073.116_0" departPos="11.05" departSpeed="0.00" departDelay="48.16" arrival="206.00" arrivalLane="133126030#0_0" arrivalPos="125.13" arrivalSpeed="16.44" duration="29.00" routeLength="288.60" waitingTime="0.00" waitingCount="0" stopTime="0.00" timeLoss="10.67" rerouteNo="0" devices="tripinfo_route_31.6" vType="car" speedFactor="1.08" vaporized=""/>
    <tripinfo id="route_33.5" depart="176.00" departLane="1235147073.116_0" departPos="2.10" departSpeed="0.00" departDelay="49.51" arrival="210.00" arrivalLane="1369578054_1" arrivalPos="88.79" arrivalSpeed="15.30" duration="34.00" routeLength="266.42" waitingTime="0.00" waitingCount="0" stopTime="0.00" timeLoss="16.52" rerouteNo="0" devices="tripinfo_route_33.5" vType="car" speedFactor="1.02" vaporized=""/>
    <tripinfo id="route_31.7" depart="185.00" departLane="1235147073.116_0" departPos="11.86" departSpeed="0.00" departDelay="54.19" arrival="212.00" arrivalLane="133126030#0_0" arrivalPos="89.44" arrivalSpeed="16.46" duration="27.00" routeLength="252.10" waitingTime="0.00" waitingCount="0" stopTime="0.00" timeLoss="11.20" rerouteNo="0" devices="tripinfo_route_31.7" vType="car" speedFactor="1.02" vaporized=""/>
    <tripinfo id="route_32.5" depart="178.00" departLane="1235147073.116_0" departPos="2.46" departSpeed="0.00" departDelay="49.19" arrival="213.00" arrivalLane="-430406005#1_0" arrivalPos="174.70" arrivalSpeed="16.53" duration="35.00" routeLength="335.20" waitingTime="0.00" waitingCount="0" stopTime="0.00" timeLoss="13.55" rerouteNo="0" devices="tripinfo_route_32.5" vType="car" speedFactor="1.12" vaporized=""/>
    <tripinfo id="route_32.6" depart="191.00" departLane="1235147073.116_0" departPos="1.60" departSpeed="0.00" departDelay="59.83" arrival="217.00" arrivalLane="-430406005#1_0" arrivalPos="20.42" arrivalSpeed="10.44" duration="26.00" routeLength="181.78" waitingTime="0.00" waitingCount="0" stopTime="0.00" timeLoss="13.95" rerouteNo="0" devices="tripinfo_route_32.6" vType="car" speedFactor="1.03" vaporized=""/>
    <tripinfo id="route_31.8" depart="191.00" departLane="1235147073.116_0" departPos="11.77" departSpeed="0.00" departDelay="58.22" arrival="221.00" arrivalLane="133126030#0_0" arrivalPos="156.32" arrivalSpeed="16.17" duration="30.00" routeLength="319.07" waitingTime="0.00" waitingCount="0" stopTime="0.00" timeLoss="10.41" rerouteNo="0" devices="tripinfo_route_31.8" vType="car" speedFactor="1.00" vaporized=""/>
    <tripinfo id="route_33.6" depart="184.00" departLane="1235147073.116_0" departPos="1.28" departSpeed="0.00" departDelay="55.61" arrival="226.00" arrivalLane="1369578054_1" arrivalPos="253.34" arrivalSpeed="16.33" duration="42.00" routeLength="431.79" waitingTime="0.00" waitingCount="0" stopTime="0.00" timeLoss="14.84" rerouteNo="0" devices="tripinfo_route_33.6" vType="car" speedFactor="1.02" vaporized=""/>
    <tripinfo id="route_33.7" depart="188.00" departLane="1235147073.116_0" departPos="7.86" departSpeed="0.00" departDelay="57.71" arrival="232.00" arrivalLane="1369578054_1" arrivalPos="270.68" arrivalSpeed="16.15" duration="44.00" routeLength="442.56" waitingTime="0.00" waitingCount="0" stopTime="0.00" timeLoss="14.92" rerouteNo="0" devices="tripinfo_route_33.7" vType="car" speedFactor="0.97" vaporized=""/>
    <tripinfo id="route_34.0" depart="117.00" departLane="133126008#0_0" departPos="101.07" departSpeed="0.00" departDelay="0.00" arrival="233.00" arrivalLane="1369578054_1" arrivalPos="13.07" arrivalSpeed="8.72" duration="116.00" routeLength="125.36" waitingTime="89.00" waitingCount="1" stopTime="0.00" timeLoss="107.90" rerouteNo="0" devices="tripinfo_route_34.0" vType="car" speedFactor="0.83" vaporized=""/>
    <tripinfo id="route_29.1" depart="119.00" departLane="-422986370#2_0" departPos="265.89" departSpeed="0.00" departDelay="0.54" arrival="233.00" arrivalLane="-430406005#1_1" arrivalPos="8.25" arrivalSpeed="8.39" duration="114.00" routeLength="76.79" waitingTime="93.00" waitingCount="1" stopTime="0.00" timeLoss="108.91" rerouteNo="0" devices="tripinfo_route_29.1" vType="car" speedFactor="1.09" vaporized=""/>
    <tripinfo id="route_29.4" depart="123.00" departLane="-422986370#2_0" departPos="297.23" departSpeed="0.00" departDelay="0.15" arrival="235.00" arrivalLane="-430406005#1_0" arrivalPos="32.75" arrivalSpeed="9.69" duration="112.00" routeLength="69.94" waitingTime="96.00" waitingCount="1" stopTime="0.00" timeLoss="107.55" rerouteNo="0" devices="tripinfo_route_29.4" vType="car" speedFactor="1.15" vaporized=""/>
    <tripinfo id="route_34.3" depart="128.00" departLane="133126008#0_0" departPos="127.31" departSpeed="0.00" departDelay="4.18" arrival="238.00" arrivalLane="1369578054_0" arrivalPos="25.77" arrivalSpeed="11.26" duration="110.00" routeLength="111.83" waitingTime="83.00" waitingCount="1" stopTime="0.00" timeLoss="102.73" rerouteNo="0" devices="tripinfo_route_34.3" vType="car" speedFactor="0.97" vaporized=""/>
    <tripinfo id="route_34.6" depart="131.00" departLane="133126008#0_0" departPos="162.26" departSpeed="0.00" departDelay="0.37" arrival="238.00" arrivalLane="1369578054_1" arrivalPos="50.19" arrivalSpeed="11.64" duration="107.00" routeLength="101.29" waitingTime="85.00" waitingCount="2" stopTime="0.00" timeLoss="100.67" rerouteNo="0" devices="tripinfo_route_34.6" vType="car" speedFactor="0.94" vaporized=""/>
    <tripinfo id="route_35.2" depart="126.00" departLane="133126008#0_0" departPos="111.59" departSpeed="0.00" departDelay="3.34" arrival="240.00" arrivalLane="133126030#0_0" arrivalPos="51.67" arrivalSpeed="10.59" duration="114.00" routeLength="127.60" waitingTime="83.00" waitingCount="1" stopTime="0.00" timeLoss="105.49" rerouteNo="0" devices="tripinfo_route_35.2" vType="car" speedFactor="1.02" vaporized=""/>
    <tripinfo id="route_29.8" depart="133.00" departLane="-422986370#2_0" departPos="216.62" departSpeed="0.00" departDelay="4.30" arrival="241.00" arrivalLane="-430406005#1_0" arrivalPos="7.61" arrivalSpeed="10.79" duration="108.00" routeLength="125.42" waitingTime="79.00" waitingCount="1" stopTime="0.00" timeLoss="99.92" rerouteNo="0" devices="tripinfo_route_29.8" vType="car" speedFactor="1.02" vaporized=""/>
    <tripinfo id="route_34.5" depart="130.00" departLane="133126008#0_0" departPos="98.03" departSpeed="0.00" departDelay="1.64" arrival="241.00" arrivalLane="1369578054_1" arrivalPos="46.01" arrivalSpeed="11.91" duration="111.00" routeLength="161.35" waitingTime="77.00" waitingCount="1" stopTime="0.00" timeLoss="100.74" rerouteNo="0" devices="tripinfo_route_34.5" vType="car" speedFactor="0.99" vaporized=""/>
    <tripinfo id="route_29.2" depart="120.00" departLane="-422986370#2_0" departPos="99.24" departSpeed="0.00" departDelay="0.07" arrival="242.00" arrivalLane="-430406005#1_1" arrivalPos="42.28" arrivalSpeed="11.85" duration="122.00" routeLength="277.46" waitingTime="79.00" waitingCount="1" stopTime="0.00" timeLoss="103.86" rerouteNo="0" devices="tripinfo_route_29.2" vType="car" speedFactor="0.93" vaporized=""/>
    <tripinfo id="route_35.1" depart="121.00" departLane="133126008#0_0" departPos="144.87" departSpeed="0.00" departDelay="1.17" arrival="242.00" arrivalLane="133126030#0_0" arrivalPos="141.65" arrivalSpeed="15.52" duration="121.00" routeLength="184.30" waitingTime="91.00" waitingCount="1" stopTime="0.00" timeLoss="108.53" rerouteNo="0" devices="tripinfo_route_35.1" vType="car" speedFactor="0.94" vaporized=""/>
    <tripinfo id="route_30.0" depart="117.00" departLane="-422986370#2_0" departPos="201.60" departSpeed="0.00" departDelay="0.00" arrival="243.00" arrivalLane="137415945#0_0" arrivalPos="9.07" arrivalSpeed="15.48" duration="126.00" routeLength="253.29" waitingTime="88.00" waitingCount="1" stopTime="0.00" timeLoss="108.93" rerouteNo="0" devices="tripinfo_route_30.0" vType="car" speedFactor="0.94" vaporized=""/>
    <tripinfo id="route_34.1" depart="120.00" departLane="133126008#0_0" departPos="23.09" departSpeed="0.00" departDelay="0.73" arrival="246.00" arrivalLane="1369578054_1" arrivalPos="90.42" arrivalSpeed="15.21" duration="126.00" routeLength="280.69" waitingTime="77.00" waitingCount="1" stopTime="0.00" timeLoss="107.98" rerouteNo="0" devices="tripinfo_route_34.1" vType="car" speedFactor="0.94" vaporized=""/>
    <tripinfo id="route_29.3" depart="122.00" departLane="-422986370#2_0" departPos="173.76" departSpeed="0.00" departDelay="0.61" arrival="246.00" arrivalLane="-430406005#1_1" arrivalPos="127.79" arrivalSpeed="15.99" duration="124.00" routeLength="288.46" waitingTime="80.00" waitingCount="1" stopTime="0.00" timeLoss="105.21" rerouteNo="0" devices="tripinfo_route_29.3" vType="car" speedFactor="0.87" vaporized=""/>
    <tripinfo id="route_35.3" depart="128.00" departLane="133126008#0_0" departPos="66.33" departSpeed="0.00" departDelay="2.51" arrival="246.00" arrivalLane="133126030#0_0" arrivalPos="67.66" arrivalSpeed="11.75" duration="118.00" routeLength="188.86" waitingTime="77.00" waitingCount="1" stopTime="0.00" timeLoss="105.40" rerouteNo="0" devices="tripinfo_route_35.3" vType="car" speedFactor="1.00" vaporized=""/>
    <tripinfo id="route_30.5" depart="130.00" departLane="-422986370#2_0" departPos="245.96" departSpeed="0.00" departDelay="3.26" arrival="246.00" arrivalLane="137415945#0_0" arrivalPos="11.12" arrivalSpeed="13.81" duration="116.00" routeLength="210.98" waitingTime="83.00" waitingCount="1" stopTime="0.00" timeLoss="100.42" rerouteNo="0" devices="tripinfo_route_30.5" vType="car" speedFactor="0.85" vaporized=""/>
    <tripinfo id="route_29.5" depart="126.00" departLane="-422986370#2_0" departPos="127.34" departSpeed="0.00" departDelay="1.69" arrival="247.00" arrivalLane="-430406005#1_1" arrivalPos="62.84" arrivalSpeed="13.45" duration="121.00" routeLength="269.93" waitingTime="76.00" waitingCount="1" stopTime="0.00" timeLoss="104.52" rerouteNo="0" devices="tripinfo_route_29.5" vType="car" speedFactor="1.03" vaporized=""/>
    <tripinfo id="route_29.9" depart="134.00" departLane="-422986370#2_0" departPos="275.45" departSpeed="0.00" departDelay="3.83" arrival="247.00" arrivalLane="-430406005#1_1" arrivalPos="175.19" arrivalSpeed="16.47" duration="113.00" routeLength="234.17" waitingTime="81.00" waitingCount="1" stopTime="0.00" timeLoss="98.71" rerouteNo="0" devices="tripinfo_route_29.9" vType="car" speedFactor="1.04" vaporized=""/>
    <tripinfo id="route_34.2" depart="123.00" departLane="133126008#0_0" departPos="165.65" departSpeed="0.00" departDelay="1.46" arrival="248.00" arrivalLane="1369578054_0" arrivalPos="207.23" arrivalSpeed="15.48" duration="125.00" routeLength="254.95" waitingTime="91.00" waitingCount="1" stopTime="0.00" timeLoss="108.05" rerouteNo="0" devices="tripinfo_route_34.2" vType="car" speedFactor="0.95" vaporized=""/>
    <tripinfo id="route_30.4" depart="126.00" departLane="-422986370#2_0" departPos="212.90" departSpeed="0.00" departDelay="1.21" arrival="248.00" arrivalLane="137415945#0_0" arrivalPos="3.69" arrivalSpeed="15.80" duration="122.00" routeLength="236.61" waitingTime="82.00" waitingCount="1" stopTime="0.00" timeLoss="105.54" rerouteNo="0" devices="tripinfo_route_30.4" vType="car" speedFactor="0.96" vaporized=""/>
    <tripinfo id="route_29.6" depart="130.00" departLane="-422986370#2_0" departPos="192.05" departSpeed="0.00" departDelay="4.22" arrival="248.00" arrivalLane="-430406005#1_0" arrivalPos="74.50" arrivalSpeed="14.88" duration="118.00" routeLength="216.88" waitingTime="78.00" waitingCount="1" stopTime="0.00" timeLoss="104.38" rerouteNo="0" devices="tripinfo_route_29.6" vType="car" speedFactor="1.09" vaporized=""/>