<?xml version="1.0" encoding="UTF-8"?>

<!-- generated on 2025-05-04 22:11:07 by Eclipse SUMO sumo Version 1.20.0
<configuration xmlns:xsi="http://www.w3.org/2001/XMLSchema-instance" xsi:noNamespaceSchemaLocation="http://sumo.dlr.de/xsd/sumoConfiguration.xsd">

    <input>
        <net-file value="config/osm.net.xml"/>
        <route-files value="draft/generated_0_093_5_069_0_649_7_027_75_.rou.xml"/>
    </input>

    <output>
        <tripinfo-output value="draft/tripinfo_0_093_5_069_0_649_7_027_75.xml"/>
    </output>

    <time>
        <step-length value="1"/>
    </time>

    <traci_server>
        <remote-port value="37877"/>
    </traci_server>

    <gui_only>
        <start value="true"/>
    </gui_only>

</configuration>
-->

<tripinfos xmlns:xsi="http://www.w3.org/2001/XMLSchema-instance" xsi:noNamespaceSchemaLocation="http://sumo.dlr.de/xsd/tripinfo_file.xsd">
    <tripinfo id="route_34.0" depart="75.00" departLane="133126008#0_0" departPos="101.07" departSpeed="0.00" departDelay="0.00" arrival="103.00" arrivalLane="1369578054_1" arrivalPos="13.07" arrivalSpeed="9.09" duration="28.00" routeLength="125.36" waitingTime="2.00" waitingCount="1" stopTime="0.00" timeLoss="19.98" rerouteNo="0" devices="tripinfo_route_34.0" vType="car" speedFactor="0.83" vaporized=""/>
    <tripinfo id="route_29.1" depart="77.00" departLane="-422986370#2_0" departPos="265.89" departSpeed="0.00" departDelay="0.54" arrival="103.00" arrivalLane="-430406005#1_1" arrivalPos="8.25" arrivalSpeed="8.42" duration="26.00" routeLength="76.79" waitingTime="6.00" waitingCount="1" stopTime="0.00" timeLoss="20.93" rerouteNo="0" devices="tripinfo_route_29.1" vType="car" speedFactor="1.09" vaporized=""/>
    <tripinfo id="route_29.4" depart="81.00" departLane="-422986370#2_0" departPos="297.23" departSpeed="0.00" departDelay="0.15" arrival="105.00" arrivalLane="-430406005#1_0" arrivalPos="32.75" arrivalSpeed="9.97" duration="24.00" routeLength="69.94" waitingTime="9.00" waitingCount="1" stopTime="0.00" timeLoss="19.75" rerouteNo="0" devices="tripinfo_route_29.4" vType="car" speedFactor="1.15" vaporized=""/>
    <tripinfo id="route_29.2" depart="78.00" departLane="-422986370#2_0" departPos="99.24" departSpeed="0.00" departDelay="0.07" arrival="109.00" arrivalLane="-430406005#1_1" arrivalPos="42.28" arrivalSpeed="12.21" duration="31.00" routeLength="277.46" waitingTime="0.00" waitingCount="0" stopTime="0.00" timeLoss="13.39" rerouteNo="0" devices="tripinfo_route_29.2" vType="car" speedFactor="0.93" vaporized=""/>
    <tripinfo id="route_35.2" depart="84.00" departLane="133126008#0_0" departPos="111.59" departSpeed="0.00" departDelay="3.34" arrival="109.00" arrivalLane="133126030#0_0" arrivalPos="51.67" arrivalSpeed="10.84" duration="25.00" routeLength="127.60" waitingTime="0.00" waitingCount="0" stopTime="0.00" timeLoss="15.80" rerouteNo="0" devices="tripinfo_route_35.2" vType="car" speedFactor="1.02" vaporized=""/>
    <tripinfo id="route_34.3" depart="86.00" departLane="133126008#0_0" departPos="127.31" departSpeed="0.00" departDelay="4.18" arrival="109.00" arrivalLane="1369578054_1" arrivalPos="25.77" arrivalSpeed="10.60" duration="23.00" routeLength="111.83" waitingTime="0.00" waitingCount="0" stopTime="0.00" timeLoss="15.82" rerouteNo="0" devices="tripinfo_route_34.3" vType="car" speedFactor="0.97" vaporized=""/>
    <tripinfo id="route_34.6" depart="89.00" departLane="133126008#0_0" departPos="162.26" departSpeed="0.00" departDelay="0.37" arrival="109.00" arrivalLane="1369578054_1" arrivalPos="50.19" arrivalSpeed="11.74" duration="20.00" routeLength="101.29" waitingTime="1.00" waitingCount="1" stopTime="0.00" timeLoss="13.10" rerouteNo="0" devices="tripinfo_route_34.6" vType="car" speedFactor="0.94" vaporized=""/>
    <tripinfo id="route_34.5" depart="88.00" departLane="133126008#0_0" departPos="98.03" departSpeed="0.00" departDelay="1.64" arrival="113.00" arrivalLane="1369578054_1" arrivalPos="46.01" arrivalSpeed="11.82" duration="25.00" routeLength="161.35" waitingTime="0.00" waitingCount="0" stopTime="0.00" timeLoss="14.61" rerouteNo="0" devices="tripinfo_route_34.5" vType="car" speedFactor="0.99" vaporized=""/>
    <tripinfo id="route_35.1" depart="79.00" departLane="133126008#0_0" departPos="144.87" departSpeed="0.00" departDelay="1.17" arrival="114.00" arrivalLane="133126030#0_0" arrivalPos="141.65" arrivalSpeed="14.43" duration="35.00" routeLength="184.30" waitingTime="4.00" waitingCount="1" stopTime="0.00" timeLoss="22.41" rerouteNo="0" devices="tripinfo_route_35.1" vType="car" speedFactor="0.94" vaporized=""/>
    <tripinfo id="route_29.3" depart="80.00" departLane="-422986370#2_0" departPos="173.76" departSpeed="0.00" departDelay="0.61" arrival="114.00" arrivalLane="-430406005#1_1" arrivalPos="127.79" arrivalSpeed="15.82" duration="34.00" routeLength="288.46" waitingTime="0.00" waitingCount="0" stopTime="0.00" timeLoss="15.09" rerouteNo="0" devices="tripinfo_route_29.3" vType="car" speedFactor="0.87" vaporized=""/>
    <tripinfo id="route_29.6" depart="88.00" departLane="-422986370#2_0" departPos="192.05" departSpeed="0.00" departDelay="4.22" arrival="115.00" arrivalLane="-430406005#1_1" arrivalPos="74.50" arrivalSpeed="15.82" duration="27.00" routeLength="216.88" waitingTime="0.00" waitingCount="0" stopTime="0.00" timeLoss="13.51" rerouteNo="0" devices="tripinfo_route_29.6" vType="car" speedFactor="1.09" vaporized=""/>
    <tripinfo id="route_29.8" depart="91.00" departLane="-422986370#2_0" departPos="216.62" departSpeed="0.00" departDelay="4.30" arrival="115.00" arrivalLane="-430406005#1_0" arrivalPos="7.61" arrivalSpeed="10.68" duration="24.00" routeLength="125.42" waitingTime="0.00" waitingCount="0" stopTime="0.00" timeLoss="15.81" rerouteNo="0" devices="tripinfo_route_29.8" vType="car" speedFactor="1.02" vaporized=""/>
    <tripinfo id="route_30.0" depart="75.00" departLane="-422986370#2_0" departPos="201.60" departSpeed="0.00" departDelay="0.00" arrival="116.00" arrivalLane="137415945#0_0" arrivalPos="9.07" arrivalSpeed="15.19" duration="41.00" routeLength="253.29" waitingTime="1.00" waitingCount="1" stopTime="0.00" timeLoss="23.12" rerouteNo="0" devices="tripinfo_route_30.0" vType="car" speedFactor="0.94" vaporized=""/>
    <tripinfo id="route_29.5" depart="84.00" departLane="-422986370#2_0" departPos="127.34" departSpeed="0.00" departDelay="1.69" arrival="116.00" arrivalLane="-430406005#1_1" arrivalPos="62.84" arrivalSpeed="15.50" duration="32.00" routeLength="269.93" waitingTime="0.00" waitingCount="0" stopTime="0.00" timeLoss="15.18" rerouteNo="0" devices="tripinfo_route_29.5" vType="car" speedFactor="1.03" vaporized=""/>
    <tripinfo id="route_35.0" depart="75.00" departLane="133126008#0_0" departPos="47.21" departSpeed="0.00" departDelay="0.00" arrival="117.00" arrivalLane="133126030#0_0" arrivalPos="137.72" arrivalSpeed="15.71" duration="42.00" routeLength="278.03" waitingTime="0.00" waitingCount="0" stopTime="0.00" timeLoss="24.39" rerouteNo="0" devices="tripinfo_route_35.0" vType="car" speedFactor="1.05" vaporized=""/>
    <tripinfo id="route_35.3" depart="86.00" departLane="133126008#0_0" departPos="66.33" departSpeed="0.00" departDelay="2.51" arrival="117.00" arrivalLane="133126030#0_0" arrivalPos="67.66" arrivalSpeed="11.15" duration="31.00" routeLength="188.86" waitingTime="0.00" waitingCount="0" stopTime="0.00" timeLoss="18.35" rerouteNo="0" devices="tripinfo_route_35.3" vType="car" speedFactor="1.00" vaporized=""/>
    <tripinfo id="route_34.1" depart="78.00" departLane="133126008#0_0" departPos="23.09" departSpeed="0.00" departDelay="0.73" arrival="118.00" arrivalLane="1369578054_1" arrivalPos="90.42" arrivalSpeed="14.55" duration="40.00" routeLength="280.69" waitingTime="0.00" waitingCount="0" stopTime="0.00" timeLoss="21.95" rerouteNo="0" devices="tripinfo_route_34.1" vType="car" speedFactor="0.94" vaporized=""/>
    <tripinfo id="route_34.2" depart="81.00" departLane="133126008#0_0" departPos="165.65" departSpeed="0.00" departDelay="1.46" arrival="118.00" arrivalLane="1369578054_0" arrivalPos="207.23" arrivalSpeed="15.66" duration="37.00" routeLength="254.95" waitingTime="4.00" waitingCount="1" stopTime="0.00" timeLoss="20.45" rerouteNo="0" devices="tripinfo_route_34.2" vType="car" speedFactor="0.95" vaporized=""/>
    <tripinfo id="route_29.0" depart="75.00" departLane="-422986370#2_0" departPos="1.81" departSpeed="0.00" departDelay="0.00" arrival="119.00" arrivalLane="-430406005#1_1" arrivalPos="159.13" arrivalSpeed="16.44" duration="44.00" routeLength="491.75" waitingTime="0.00" waitingCount="0" stopTime="0.00" timeLoss="13.52" rerouteNo="0" devices="tripinfo_route_29.0" vType="car" speedFactor="1.06" vaporized=""/>
    <tripinfo id="route_34.4" depart="86.00" departLane="133126008#0_0" departPos="85.67" departSpeed="0.00" departDelay="1.91" arrival="119.00" arrivalLane="1369578054_0" arrivalPos="123.18" arrivalSpeed="16.13" duration="33.00" routeLength="250.86" waitingTime="0.00" waitingCount="0" stopTime="0.00" timeLoss="17.34" rerouteNo="0" devices="tripinfo_route_34.4" vType="car" speedFactor="1.10" vaporized=""/>
    <tripinfo id="route_30.5" depart="88.00" departLane="-422986370#2_0" departPos="245.96" departSpeed="0.00" departDelay="3.26" arrival="120.00" arrivalLane="137415945#0_0" arrivalPos="11.12" arrivalSpeed="14.18" duration="32.00" routeLength="210.98" waitingTime="0.00" waitingCount="0" stopTime="0.00" timeLoss="15.15" rerouteNo="0" devices="tripinfo_route_30.5" vType="car" speedFactor="0.85" vaporized=""/>
    <tripinfo id="route_29.9" depart="92.00" departLane="-422986370#2_0" departPos="275.45" departSpeed="0.00" departDelay="3.83" arrival="120.00" arrivalLane="-430406005#1_0" arrivalPos="175.19" arrivalSpeed="16.36" duration="28.00" routeLength="234.17" waitingTime="0.00" waitingCount="0" stopTime="0.00" timeLoss="13.75" rerouteNo="0" devices="tripinfo_route_29.9" vType="car" speedFactor="1.04" vaporized=""/>
    <tripinfo id="route_34.7" depart="92.00" departLane="133126008#0_0" departPos="44.71" departSpeed="0.00" departDelay="1.10" arrival="121.00" arrivalLane="1369578054_1" arrivalPos="62.18" arrivalSpeed="15.72" duration="29.00" routeLength="230.83" waitingTime="0.00" waitingCount="0" stopTime="0.00" timeLoss="14.29" rerouteNo="0" devices="tripinfo_route_34.7" vType="car" speedFactor="0.97" vaporized=""/>
    <tripinfo id="route_30.4" depart="84.00" departLane="-422986370#2_0" departPos="212.90" departSpeed="0.00" departDelay="1.21" arrival="122.00" arrivalLane="137415945#0_0" arrivalPos="3.69" arrivalSpeed="15.27" duration="38.00" routeLength="236.61" waitingTime="0.00" waitingCount="0" stopTime="0.00" timeLoss="21.91" rerouteNo="0" devices="tripinfo_route_30.4" vType="car" speedFactor="0.96" vaporized=""/>
    <tripinfo id="route_29.7" depart="89.00" departLane="-422986370#2_0" departPos="3.49" departSpeed="0.00" departDelay="3.76" arrival="123.00" arrivalLane="-430406005#1_1" arrivalPos="50.22" arrivalSpeed="16.23" duration="34.00" routeLength="381.16" waitingTime="0.00" waitingCount="0" stopTime="0.00" timeLoss="9.16" rerouteNo="0" devices="tripinfo_route_29.7" vType="car" speedFactor="0.90" vaporized=""/>
    <tripinfo id="route_34.10" depart="105.00" departLane="133126008#0_0" departPos="145.61" departSpeed="0.00" departDelay="7.28" arrival="124.00" arrivalLane="1369578054_0" arrivalPos="60.51" arrivalSpeed="14.09" duration="19.00" routeLength="128.27" waitingTime="0.00" waitingCount="0" stopTime="0.00" timeLoss="10.67" rerouteNo="0" devices="tripinfo_route_34.10" vType="car" speedFactor="1.18" vaporized=""/>
    <tripinfo id="route_34.8" depart="98.00" departLane="133126008#0_0" departPos="104.16" departSpeed="0.00" departDelay="4.82" arrival="126.00" arrivalLane="1369578054_1" arrivalPos="170.67" arrivalSpeed="16.56" duration="28.00" routeLength="279.87" waitingTime="0.00" waitingCount="0" stopTime="0.00" timeLoss="10.43" rerouteNo="0" devices="tripinfo_route_34.8" vType="car" speedFactor="1.01" vaporized=""/>
    <tripinfo id="route_30.8" depart="101.00" departLane="-422986370#2_0" departPos="252.59" departSpeed="0.00" departDelay="10.42" arrival="127.00" arrivalLane="137415945#0_0" arrivalPos="5.89" arrivalSpeed="14.94" duration="26.00" routeLength="199.13" waitingTime="0.00" waitingCount="0" stopTime="0.00" timeLoss="13.41" rerouteNo="0" devices="tripinfo_route_30.8" vType="car" speedFactor="1.03" vaporized=""/>
    <tripinfo id="route_30.1" depart="77.00" departLane="-422986370#2_0" departPos="118.79" departSpeed="0.00" departDelay="0.05" arrival="129.00" arrivalLane="137415945#0_0" arrivalPos="6.53" arrivalSpeed="15.61" duration="52.00" routeLength="333.56" waitingTime="0.00" waitingCount="0" stopTime="0.00" timeLoss="30.87" rerouteNo="0" devices="tripinfo_route_30.1" vType="car" speedFactor="1.03" vaporized=""/>
    <tripinfo id="route_29.10" depart="96.00" departLane="-422986370#2_0" departPos="79.17" departSpeed="0.00" departDelay="6.37" arrival="129.00" arrivalLane="-430406005#1_1" arrivalPos="73.55" arrivalSpeed="16.47" duration="33.00" routeLength="328.82" waitingTime="0.00" waitingCount="0" stopTime="0.00" timeLoss="12.53" rerouteNo="0" devices="tripinfo_route_29.10" vType="car" speedFactor="0.98" vaporized=""/>
    <tripinfo id="route_35.7" depart="102.00" departLane="133126008#0_0" departPos="123.74" departSpeed="0.00" departDelay="7.19" arrival="130.00" arrivalLane="133126030#0_0" arrivalPos="112.02" arrivalSpeed="13.20" duration="28.00" routeLength="175.80" waitingTime="0.00" waitingCount="0" stopTime="0.00" timeLoss="15.83" rerouteNo="0" devices="tripinfo_route_35.7" vType="car" speedFactor="0.95" vaporized=""/>
    <tripinfo id="route_30.3" depart="81.00" departLane="-422986370#2_0" departPos="94.02" departSpeed="0.00" departDelay="0.16" arrival="132.00" arrivalLane="137415945#0_0" arrivalPos="8.17" arrivalSpeed="16.26" duration="51.00" routeLength="359.97" waitingTime="0.00" waitingCount="0" stopTime="0.00" timeLoss="27.32" rerouteNo="0" devices="tripinfo_route_30.3" vType="car" speedFactor="1.01" vaporized=""/>
    <tripinfo id="route_30.2" depart="79.00" departLane="-422986370#2_0" departPos="26.67" departSpeed="0.00" departDelay="0.10" arrival="134.00" arrivalLane="137415945#0_0" arrivalPos="3.36" arrivalSpeed="16.53" duration="55.00" routeLength="422.51" waitingTime="0.00" waitingCount="0" stopTime="0.00" timeLoss="27.53" rerouteNo="0" devices="tripinfo_route_30.2" vType="car" speedFactor="1.01" vaporized=""/>
    <tripinfo id="route_35.5" depart="91.00" departLane="133126008#0_0" departPos="65.41" departSpeed="0.00" departDelay="1.85" arrival="135.00" arrivalLane="133126030#0_0" arrivalPos="157.74" arrivalSpeed="15.78" duration="44.00" routeLength="279.84" waitingTime="0.00" waitingCount="0" stopTime="0.00" timeLoss="26.16" rerouteNo="0" devices="tripinfo_route_35.5" vType="car" speedFactor="0.98" vaporized=""/>
    <tripinfo id="route_35.4" depart="88.00" departLane="133126008#0_0" departPos="2.61" departSpeed="0.00" departDelay="1.68" arrival="138.00" arrivalLane="133126030#0_0" arrivalPos="167.58" arrivalSpeed="15.38" duration="50.00" routeLength="352.49" waitingTime="0.00" waitingCount="0" stopTime="0.00" timeLoss="26.97" rerouteNo="0" devices="tripinfo_route_35.4" vType="car" speedFactor="0.94" vaporized=""/>
    <tripinfo id="route_38.2" depart="84.00" departLane="485211947#0_0" departPos="162.23" departSpeed="0.00" departDelay="4.39" arrival="145.00" arrivalLane="-430406005#1_1" arrivalPos="54.97" arrivalSpeed="11.04" duration="61.00" routeLength="105.72" waitingTime="38.00" waitingCount="1" stopTime="0.00" timeLoss="54.07" rerouteNo="0" devices="tripinfo_route_38.2" vType="car" speedFactor="1.18" vaporized=""/>
    <tripinfo id="route_38.3" depart="89.00" departLane="485211947#0_0" departPos="0.16" departSpeed="0.00" departDelay="7.08" arrival="147.00" arrivalLane="-430406005#1_1" arrivalPos="32.26" arrivalSpeed="10.00" duration="58.00" routeLength="245.09" waitingTime="19.00" waitingCount="1" stopTime="0.00" timeLoss="40.87" rerouteNo="0" devices="tripinfo_route_38.3" vType="car" speedFactor="0.90" vaporized=""/>
    <tripinfo id="route_34.11" depart="108.00" departLane="133126008#0_0" departPos="92.33" departSpeed="0.00" departDelay="8.01" arrival="148.00" arrivalLane="1369578054_0" arrivalPos="298.02" arrivalSpeed="13.63" duration="40.00" routeLength="419.05" waitingTime="0.00" waitingCount="0" stopTime="0.00" timeLoss="10.30" rerouteNo="0" devices="tripinfo_route_34.11" vType="car" speedFactor="0.82" vaporized=""/>
    <tripinfo id="route_37.0" depart="75.00" departLane="485211947#0_0" departPos="162.24" departSpeed="0.00" departDelay="0.00" arrival="149.00" arrivalLane="137415945#0_0" arrivalPos="6.94" arrivalSpeed="15.58" duration="74.00" routeLength="189.23" waitingTime="44.00" waitingCount="1" stopTime="0.00" timeLoss="61.40" rerouteNo="0" devices="tripinfo_route_37.0" vType="car" speedFactor="0.94" vaporized=""/>
    <tripinfo id="route_37.1" depart="78.00" departLane="485211947#0_0" departPos="76.22" departSpeed="0.00" departDelay="0.96" arrival="149.00" arrivalLane="137415945#0_1" arrivalPos="2.03" arrivalSpeed="15.52" duration="71.00" routeLength="270.34" waitingTime="31.00" waitingCount="1" stopTime="0.00" timeLoss="54.06" rerouteNo="0" devices="tripinfo_route_37.1" vType="car" speedFactor="1.16" vaporized=""/>
    <tripinfo id="route_36.2" depart="79.00" departLane="485211947#0_0" departPos="123.80" departSpeed="0.00" departDelay="0.67" arrival="151.00" arrivalLane="1369578054_0" arrivalPos="171.28" arrivalSpeed="13.62" duration="72.00" routeLength="244.94" waitingTime="37.00" waitingCount="1" stopTime="0.00" timeLoss="53.43" rerouteNo="0" devices="tripinfo_route_36.2" vType="car" speedFactor="0.83" vaporized=""/>
    <tripinfo id="route_37.2" depart="83.00" departLane="485211947#0_0" departPos="72.22" departSpeed="0.00" departDelay="3.92" arrival="151.00" arrivalLane="137415945#0_1" arrivalPos="12.22" arrivalSpeed="15.30" duration="68.00" routeLength="284.53" waitingTime="27.00" waitingCount="1" stopTime="0.00" timeLoss="49.16" rerouteNo="0" devices="tripinfo_route_37.2" vType="car" speedFactor="0.93" vaporized=""/>
    <tripinfo id="route_36.0" depart="75.00" departLane="485211947#0_0" departPos="11.17" departSpeed="0.00" departDelay="0.00" arrival="152.00" arrivalLane="1369578054_0" arrivalPos="74.16" arrivalSpeed="12.98" duration="77.00" routeLength="260.46" waitingTime="30.00" waitingCount="1" stopTime="0.00" timeLoss="57.62" rerouteNo="0" devices="tripinfo_route_36.0" vType="car" speedFactor="0.89" vaporized=""/>
    <tripinfo id="route_38.1" depart="78.00" departLane="485211947#0_0" departPos="178.72" departSpeed="0.00" departDelay="0.69" arrival="152.00" arrivalLane="-430406005#1_1" arrivalPos="170.84" arrivalSpeed="16.51" duration="74.00" routeLength="205.10" waitingTime="45.00" waitingCount="1" stopTime="0.00" timeLoss="60.16" rerouteNo="0" devices="tripinfo_route_38.1" vType="car" speedFactor="1.02" vaporized=""/>
    <tripinfo id="route_37.3" depart="89.00" departLane="485211947#0_0" departPos="62.79" departSpeed="0.00" departDelay="7.88" arrival="152.00" arrivalLane="137415945#0_1" arrivalPos="2.64" arrivalSpeed="16.45" duration="63.00" routeLength="284.38" waitingTime="22.00" waitingCount="1" stopTime="0.00" timeLoss="45.31" rerouteNo="0" devices="tripinfo_route_37.3" vType="car" speedFactor="1.10" vaporized=""/>
    <tripinfo id="route_38.0" depart="75.00" departLane="485211947#0_0" departPos="59.66" departSpeed="0.00" departDelay="0.00" arrival="153.00" arrivalLane="-430406005#1_1" arrivalPos="133.07" arrivalSpeed="16.35" duration="78.00" routeLength="286.39" waitingTime="37.00" waitingCount="1" stopTime="0.00" timeLoss="57.15" rerouteNo="0" devices="tripinfo_route_38.0" vType="car" speedFactor="0.86" vaporized=""/>
    <tripinfo id="route_37.4" depart="94.00" departLane="485211947#0_0" departPos="22.13" departSpeed="0.00" departDelay="10.84" arrival="154.00" arrivalLane="137415945#0_1" arrivalPos="0.30" arrivalSpeed="14.18" duration="60.00" routeLength="322.70" waitingTime="16.00" waitingCount="1" stopTime="0.00" timeLoss="37.41" rerouteNo="0" devices="tripinfo_route_37.4" vType="car" speedFactor="0.88" vaporized=""/>
    <tripinfo id="route_38.7" depart="118.00" departLane="485211947#0_0" departPos="23.76" departSpeed="0.00" departDelay="26.85" arrival="154.00" arrivalLane="-430406005#1_1" arrivalPos="17.45" arrivalSpeed="10.70" duration="36.00" routeLength="206.67" waitingTime="0.00" waitingCount="0" stopTime="0.00" timeLoss="22.58" rerouteNo="0" devices="tripinfo_route_38.7" vType="car" speedFactor="1.02" vaporized=""/>
    <tripinfo id="route_38.4" depart="95.00" departLane="485211947#0_0" departPos="2.16" departSpeed="0.00" departDelay="10.77" arrival="156.00" arrivalLane="-430406005#1_1" arrivalPos="124.92" arrivalSpeed="15.68" duration="61.00" routeLength="335.74" waitingTime="15.00" waitingCount="1" stopTime="0.00" timeLoss="39.43" rerouteNo="0" devices="tripinfo_route_38.4" vType="car" speedFactor="1.00" vaporized=""/>
    <tripinfo id="route_36.7" depart="100.00" departLane="485211947#0_0" departPos="136.99" departSpeed="0.00" departDelay="13.34" arrival="156.00" arrivalLane="1369578054_0" arrivalPos="103.24" arrivalSpeed="14.08" duration="56.00" routeLength="163.71" waitingTime="27.00" waitingCount="1" stopTime="0.00" timeLoss="43.42" rerouteNo="0" devices="tripinfo_route_36.7" vType="car" speedFactor="0.88" vaporized=""/>
    <tripinfo id="route_37.6" depart="100.00" departLane="485211947#0_0" departPos="66.16" departSpeed="0.00" departDelay="12.76" arrival="157.00" arrivalLane="137415945#0_1" arrivalPos="7.30" arrivalSpeed="14.95" duration="57.00" routeLength="285.67" waitingTime="14.00" waitingCount="1" stopTime="0.00" timeLoss="37.31" rerouteNo="0" devices="tripinfo_route_37.6" vType="car" speedFactor="0.91" vaporized=""/>
    <tripinfo id="route_36.6" depart="95.00" departLane="485211947#0_0" departPos="97.89" departSpeed="0.00" departDelay="10.00" arrival="158.00" arrivalLane="1369578054_0" arrivalPos="102.74" arrivalSpeed="14.74" duration="63.00" routeLength="202.31" waitingTime="26.00" waitingCount="1" stopTime="0.00" timeLoss="49.68" rerouteNo="0" devices="tripinfo_route_36.6" vType="car" speedFactor="1.00" vaporized=""/>
    <tripinfo id="route_37.5" depart="99.00" departLane="485211947#0_0" departPos="54.37" departSpeed="0.00" departDelay="13.80" arrival="158.00" arrivalLane="137415945#0_1" arrivalPos="9.07" arrivalSpeed="15.88" duration="59.00" routeLength="299.22" waitingTime="13.00" waitingCount="1" stopTime="0.00" timeLoss="40.64" rerouteNo="0" devices="tripinfo_route_37.5" vType="car" speedFactor="1.14" vaporized=""/>
    <tripinfo id="route_37.7" depart="115.00" departLane="485211947#0_0" departPos="57.15" departSpeed="0.00" departDelay="25.72" arrival="159.00" arrivalLane="137415945#0_1" arrivalPos="5.01" arrivalSpeed="16.25" duration="44.00" routeLength="292.39" waitingTime="2.00" waitingCount="1" stopTime="0.00" timeLoss="26.33" rerouteNo="0" devices="tripinfo_route_37.7" vType="car" speedFactor="1.09" vaporized=""/>
    <tripinfo id="route_36.1" depart="77.00" departLane="485211947#0_0" departPos="100.86" departSpeed="0.00" departDelay="0.33" arrival="160.00" arrivalLane="1369578054_0" arrivalPos="281.37" arrivalSpeed="16.31" duration="83.00" routeLength="377.98" waitingTime="37.00" waitingCount="1" stopTime="0.00" timeLoss="59.08" rerouteNo="0" devices="tripinfo_route_36.1" vType="car" speedFactor="0.99" vaporized=""/>
    <tripinfo id="route_38.5" depart="100.00" departLane="485211947#0_0" departPos="2.06" departSpeed="0.00" departDelay="13.47" arrival="160.00" arrivalLane="-430406005#1_1" arrivalPos="118.46" arrivalSpeed="15.85" duration="60.00" routeLength="329.38" waitingTime="8.00" waitingCount="1" stopTime="0.00" timeLoss="37.26" rerouteNo="0" devices="tripinfo_route_38.5" vType="car" speedFactor="0.91" vaporized=""/>
    <tripinfo id="route_38.6" depart="107.00" departLane="485211947#0_0" departPos="66.50" departSpeed="0.00" departDelay="18.16" arrival="160.00" arrivalLane="-430406005#1_1" arrivalPos="142.51" arrivalSpeed="16.57" duration="53.00" routeLength="288.99" waitingTime="9.00" waitingCount="1" stopTime="0.00" timeLoss="33.37" rerouteNo="0" devices="tripinfo_route_38.6" vType="car" speedFactor="0.96" vaporized=""/>
    <tripinfo id="route_37.8" depart="118.00" departLane="485211947#0_0" departPos="13.31" departSpeed="0.00" departDelay="26.68" arrival="161.00" arrivalLane="137415945#0_1" arrivalPos="1.46" arrivalSpeed="16.43" duration="43.00" routeLength="332.68" waitingTime="0.00" waitingCount="0" stopTime="0.00" timeLoss="22.24" rerouteNo="0" devices="tripinfo_route_37.8" vType="car" speedFactor="1.01" vaporized=""/>
    <tripinfo id="route_36.11" depart="123.00" departLane="485211947#0_0" departPos="40.78" departSpeed="0.00" departDelay="29.67" arrival="163.00" arrivalLane="1369578054_0" arrivalPos="10.38" arrivalSpeed="7.45" duration="40.00" routeLength="167.06" waitingTime="6.00" waitingCount="1" stopTime="0.00" timeLoss="27.78" rerouteNo="0" devices="tripinfo_route_36.11" vType="car" speedFactor="0.91" vaporized=""/>
    <tripinfo id="route_37.10" depart="133.00" departLane="485211947#0_0" departPos="69.86" departSpeed="0.00" departDelay="37.60" arrival="163.00" arrivalLane="137415945#0_1" arrivalPos="11.66" arrivalSpeed="16.50" duration="30.00" routeLength="286.33" waitingTime="0.00" waitingCount="0" stopTime="0.00" timeLoss="12.22" rerouteNo="0" devices="tripinfo_route_37.10" vType="car" speedFactor="1.06" vaporized=""/>
    <tripinfo id="route_36.4" depart="87.00" departLane="485211947#0_0" departPos="51.38" departSpeed="0.00" departDelay="5.34" arrival="164.00" arrivalLane="1369578054_0" arrivalPos="169.94" arrivalSpeed="16.60" duration="77.00" routeLength="316.02" waitingTime="26.00" waitingCount="1" stopTime="0.00" timeLoss="56.68" rerouteNo="0" devices="tripinfo_route_36.4" vType="car" speedFactor="1.18" vaporized=""/>
    <tripinfo id="route_37.9" depart="127.00" departLane="485211947#0_0" departPos="10.06" departSpeed="0.00" departDelay="33.64" arrival="164.00" arrivalLane="137415945#0_1" arrivalPos="9.54" arrivalSpeed="16.33" duration="37.00" routeLength="344.01" waitingTime="0.00" waitingCount="0" stopTime="0.00" timeLoss="16.14" rerouteNo="0" devices="tripinfo_route_37.9" vType="car" speedFactor="1.12" vaporized=""/>
    <tripinfo id="route_38.8" depart="131.00" departLane="485211947#0_0" departPos="40.06" departSpeed="0.00" departDelay="37.54" arrival="164.00" arrivalLane="-430406005#1_1" arrivalPos="132.35" arrivalSpeed="16.18" duration="33.00" routeLength="305.27" waitingTime="0.00" waitingCount="0" stopTime="0.00" timeLoss="13.75" rerouteNo="0" devices="tripinfo_route_38.8" vType="car" speedFactor="1.10" vaporized=""/>
    <tripinfo id="route_38.9" depart="135.00" departLane="485211947#0_0" departPos="24.47" departSpeed="0.00" departDelay="39.24" arrival="164.00" arrivalLane="-430406005#1_1" arrivalPos="41.25" arrivalSpeed="12.77" duration="29.00" routeLength="229.76" waitingTime="0.00" waitingCount="0" stopTime="0.00" timeLoss="13.39" rerouteNo="0" devices="tripinfo_route_38.9" vType="car" speedFactor="0.96" vaporized=""/>
    <tripinfo id="route_36.5" depart="89.00" departLane="485211947#0_0" departPos="122.04" departSpeed="0.00" departDelay="5.67" arrival="165.00" arrivalLane="1369578054_0" arrivalPos="292.70" arrivalSpeed="14.77" duration="76.00" routeLength="368.12" waitingTime="30.00" waitingCount="1" stopTime="0.00" timeLoss="50.15" rerouteNo="0" devices="tripinfo_route_36.5" vType="car" speedFactor="0.90" vaporized=""/>
    <tripinfo id="route_36.8" depart="106.00" departLane="485211947#0_0" departPos="37.56" departSpeed="0.00" departDelay="17.67" arrival="167.00" arrivalLane="1369578054_0" arrivalPos="103.63" arrivalSpeed="14.64" duration="61.00" routeLength="263.52" waitingTime="15.00" waitingCount="1" stopTime="0.00" timeLoss="43.78" rerouteNo="0" devices="tripinfo_route_36.8" vType="car" speedFactor="1.06" vaporized=""/>
    <tripinfo id="route_37.11" depart="136.00" departLane="485211947#0_0" departPos="7.29" departSpeed="0.00" departDelay="38.56" arrival="169.00" arrivalLane="137415945#0_1" arrivalPos="3.62" arrivalSpeed="16.49" duration="33.00" routeLength="340.86" waitingTime="0.00" waitingCount="0" stopTime="0.00" timeLoss="12.23" rerouteNo="0" devices="tripinfo_route_37.11" vType="car" speedFactor="0.99" vaporized=""/>
    <tripinfo id="route_36.3" depart="81.00" departLane="485211947#0_0" departPos="12.41" departSpeed="0.00" departDelay="1.00" arrival="172.00" arrivalLane="1369578054_1" arrivalPos="280.18" arrivalSpeed="16.15" duration="91.00" routeLength="465.23" waitingTime="27.00" waitingCount="1" stopTime="0.00" timeLoss="61.93" rerouteNo="0" devices="tripinfo_route_36.3" vType="car" speedFactor="1.13" vaporized=""/>
    <tripinfo id="route_36.9" depart="111.00" departLane="485211947#0_0" departPos="78.82" departSpeed="0.00" departDelay="21.01" arrival="173.00" arrivalLane="1369578054_0" arrivalPos="245.51" arrivalSpeed="16.13" duration="62.00" routeLength="364.15" waitingTime="16.00" waitingCount="1" stopTime="0.00" timeLoss="39.19" rerouteNo="0" devices="tripinfo_route_36.9" vType="car" speedFactor="1.01" vaporized=""/>
    <tripinfo id="route_36.12" depart="132.00" departLane="485211947#0_0" departPos="10.24" departSpeed="0.00" departDelay="37.01" arrival="174.00" arrivalLane="1369578054_0" arrivalPos="57.11" arrivalSpeed="11.73" duration="42.00" routeLength="244.33" waitingTime="0.00" waitingCount="0" stopTime="0.00" timeLoss="25.03" rerouteNo="0" devices="tripinfo_route_36.12" vType="car" speedFactor="0.89" vaporized=""/>