<?xml version="1.0" encoding="UTF-8"?>

<!-- generated on 2025-05-04 22:10:45 by Eclipse SUMO sumo Version 1.20.0
<configuration xmlns:xsi="http://www.w3.org/2001/XMLSchema-instance" xsi:noNamespaceSchemaLocation="http://sumo.dlr.de/xsd/sumoConfiguration.xsd">

    <input>
        <net-file value="config/osm.net.xml"/>
        <route-files value="draft/generated_0_093_5_069_0_649_7_027_48_.rou.xml"/>
    </input>

    <output>
        <tripinfo-output value="draft/tripinfo_0_093_5_069_0_649_7_027_48.xml"/>
    </output>

    <time>
        <step-length value="1"/>
    </time>

    <traci_server>
        <remote-port value="51637"/>
    </traci_server>

    <gui_only>
        <start value="true"/>
    </gui_only>

</configuration>
-->

<tripinfos xmlns:xsi="http://www.w3.org/2001/XMLSchema-instance" xsi:noNamespaceSchemaLocation="http://sumo.dlr.de/xsd/tripinfo_file.xsd">
    <tripinfo id="route_31.0" depart="48.00" departLane="1235147073.116_0" departPos="7.14" departSpeed="0.00" departDelay="0.00" arrival="69.00" arrivalLane="133126030#0_0" arrivalPos="8.43" arrivalSpeed="15.69" duration="21.00" routeLength="175.81" waitingTime="0.00" waitingCount="0" stopTime="0.00" timeLoss="10.36" rerouteNo="0" devices="tripinfo_route_31.0" vType="car" speedFactor="1.01" vaporized=""/>
    <tripinfo id="route_32.0" depart="51.00" departLane="1235147073.116_0" departPos="0.46" departSpeed="0.00" departDelay="3.00" arrival="81.00" arrivalLane="-430406005#1_0" arrivalPos="87.77" arrivalSpeed="13.73" duration="30.00" routeLength="250.27" waitingTime="0.00" waitingCount="0" stopTime="0.00" timeLoss="14.09" rerouteNo="0" devices="tripinfo_route_32.0" vType="car" speedFactor="1.08" vaporized=""/>
    <tripinfo id="route_31.1" depart="60.00" departLane="1235147073.116_0" departPos="6.60" departSpeed="0.00" departDelay="10.03" arrival="84.00" arrivalLane="133126030#0_0" arrivalPos="56.90" arrivalSpeed="16.19" duration="24.00" routeLength="224.82" waitingTime="0.00" waitingCount="0" stopTime="0.00" timeLoss="10.20" rerouteNo="0" devices="tripinfo_route_31.1" vType="car" speedFactor="1.05" vaporized=""/>
    <tripinfo id="route_32.1" depart="68.00" departLane="1235147073.116_0" departPos="15.04" departSpeed="0.00" departDelay="17.64" arrival="90.00" arrivalLane="-430406005#1_0" arrivalPos="5.79" arrivalSpeed="7.49" duration="22.00" routeLength="153.71" waitingTime="0.00" waitingCount="0" stopTime="0.00" timeLoss="10.32" rerouteNo="0" devices="tripinfo_route_32.1" vType="car" speedFactor="0.88" vaporized=""/>
    <tripinfo id="route_33.0" depart="57.00" departLane="1235147073.116_0" departPos="4.63" departSpeed="0.00" departDelay="9.00" arrival="93.00" arrivalLane="1369578054_1" arrivalPos="176.77" arrivalSpeed="16.43" duration="36.00" routeLength="351.87" waitingTime="0.00" waitingCount="0" stopTime="0.00" timeLoss="13.35" rerouteNo="0" devices="tripinfo_route_33.0" vType="car" speedFactor="1.03" vaporized=""/>
    <tripinfo id="route_33.1" depart="64.00" departLane="1235147073.116_0" departPos="2.35" departSpeed="0.00" departDelay="14.10" arrival="102.00" arrivalLane="1369578054_1" arrivalPos="189.81" arrivalSpeed="16.49" duration="38.00" routeLength="367.20" waitingTime="0.00" waitingCount="0" stopTime="0.00" timeLoss="14.83" rerouteNo="0" devices="tripinfo_route_33.1" vType="car" speedFactor="1.12" vaporized=""/>
    <tripinfo id="route_34.0" depart="48.00" departLane="133126008#0_0" departPos="101.07" departSpeed="0.00" departDelay="0.00" arrival="103.00" arrivalLane="1369578054_1" arrivalPos="13.07" arrivalSpeed="8.79" duration="55.00" routeLength="125.36" waitingTime="29.00" waitingCount="1" stopTime="0.00" timeLoss="47.13" rerouteNo="0" devices="tripinfo_route_34.0" vType="car" speedFactor="0.83" vaporized=""/>
    <tripinfo id="route_29.1" depart="50.00" departLane="-422986370#2_0" departPos="265.89" departSpeed="0.00" departDelay="0.54" arrival="103.00" arrivalLane="-430406005#1_1" arrivalPos="8.25" arrivalSpeed="8.09" duration="53.00" routeLength="76.79" waitingTime="33.00" waitingCount="1" stopTime="0.00" timeLoss="48.03" rerouteNo="0" devices="tripinfo_route_29.1" vType="car" speedFactor="1.09" vaporized=""/>
    <tripinfo id="route_29.4" depart="54.00" departLane="-422986370#2_0" departPos="297.23" departSpeed="0.00" departDelay="0.15" arrival="105.00" arrivalLane="-430406005#1_0" arrivalPos="32.75" arrivalSpeed="9.75" duration="51.00" routeLength="69.94" waitingTime="36.00" waitingCount="1" stopTime="0.00" timeLoss="46.65" rerouteNo="0" devices="tripinfo_route_29.4" vType="car" speedFactor="1.15" vaporized=""/>
    <tripinfo id="route_34.3" depart="59.00" departLane="133126008#0_0" departPos="127.31" departSpeed="0.00" departDelay="4.18" arrival="108.00" arrivalLane="1369578054_0" arrivalPos="25.77" arrivalSpeed="10.68" duration="49.00" routeLength="111.83" waitingTime="23.00" waitingCount="1" stopTime="0.00" timeLoss="42.20" rerouteNo="0" devices="tripinfo_route_34.3" vType="car" speedFactor="0.97" vaporized=""/>
    <tripinfo id="route_34.6" depart="62.00" departLane="133126008#0_0" departPos="162.26" departSpeed="0.00" departDelay="0.37" arrival="109.00" arrivalLane="1369578054_1" arrivalPos="50.19" arrivalSpeed="11.55" duration="47.00" routeLength="101.29" waitingTime="25.00" waitingCount="2" stopTime="0.00" timeLoss="40.47" rerouteNo="0" devices="tripinfo_route_34.6" vType="car" speedFactor="0.94" vaporized=""/>
    <tripinfo id="route_35.2" depart="57.00" departLane="133126008#0_0" departPos="111.59" departSpeed="0.00" departDelay="3.34" arrival="111.00" arrivalLane="133126030#0_0" arrivalPos="51.67" arrivalSpeed="10.30" duration="54.00" routeLength="127.60" waitingTime="23.00" waitingCount="1" stopTime="0.00" timeLoss="44.89" rerouteNo="0" devices="tripinfo_route_35.2" vType="car" speedFactor="1.02" vaporized=""/>
    <tripinfo id="route_29.8" depart="64.00" departLane="-422986370#2_0" departPos="216.62" departSpeed="0.00" departDelay="4.30" arrival="111.00" arrivalLane="-430406005#1_0" arrivalPos="7.61" arrivalSpeed="10.05" duration="47.00" routeLength="125.42" waitingTime="18.00" waitingCount="1" stopTime="0.00" timeLoss="39.31" rerouteNo="0" devices="tripinfo_route_29.8" vType="car" speedFactor="1.02" vaporized=""/>
    <tripinfo id="route_34.5" depart="61.00" departLane="133126008#0_0" departPos="98.03" departSpeed="0.00" departDelay="1.64" arrival="111.00" arrivalLane="1369578054_1" arrivalPos="46.01" arrivalSpeed="11.55" duration="50.00" routeLength="161.35" waitingTime="17.00" waitingCount="1" stopTime="0.00" timeLoss="40.22" rerouteNo="0" devices="tripinfo_route_34.5" vType="car" speedFactor="0.99" vaporized=""/>
    <tripinfo id="route_29.2" depart="51.00" departLane="-422986370#2_0" departPos="99.24" departSpeed="0.00" departDelay="0.07" arrival="113.00" arrivalLane="-430406005#1_1" arrivalPos="42.28" arrivalSpeed="11.30" duration="62.00" routeLength="277.46" waitingTime="19.00" waitingCount="1" stopTime="0.00" timeLoss="43.80" rerouteNo="0" devices="tripinfo_route_29.2" vType="car" speedFactor="0.93" vaporized=""/>
    <tripinfo id="route_35.1" depart="52.00" departLane="133126008#0_0" departPos="144.87" departSpeed="0.00" departDelay="1.17" arrival="113.00" arrivalLane="133126030#0_0" arrivalPos="141.65" arrivalSpeed="15.33" duration="61.00" routeLength="184.30" waitingTime="31.00" waitingCount="1" stopTime="0.00" timeLoss="48.31" rerouteNo="0" devices="tripinfo_route_35.1" vType="car" speedFactor="0.94" vaporized=""/>
    <tripinfo id="route_30.0" depart="48.00" departLane="-422986370#2_0" departPos="201.60" departSpeed="0.00" departDelay="0.00" arrival="115.00" arrivalLane="137415945#0_0" arrivalPos="9.07" arrivalSpeed="15.19" duration="67.00" routeLength="253.29" waitingTime="28.00" waitingCount="1" stopTime="0.00" timeLoss="49.19" rerouteNo="0" devices="tripinfo_route_30.0" vType="car" speedFactor="0.94" vaporized=""/>
    <tripinfo id="route_34.1" depart="51.00" departLane="133126008#0_0" departPos="23.09" departSpeed="0.00" departDelay="0.73" arrival="117.00" arrivalLane="1369578054_1" arrivalPos="90.42" arrivalSpeed="14.22" duration="66.00" routeLength="280.69" waitingTime="17.00" waitingCount="1" stopTime="0.00" timeLoss="48.24" rerouteNo="0" devices="tripinfo_route_34.1" vType="car" speedFactor="0.94" vaporized=""/>
    <tripinfo id="route_29.3" depart="53.00" departLane="-422986370#2_0" departPos="173.76" departSpeed="0.00" departDelay="0.61" arrival="117.00" arrivalLane="-430406005#1_1" arrivalPos="127.79" arrivalSpeed="15.49" duration="64.00" routeLength="288.46" waitingTime="20.00" waitingCount="1" stopTime="0.00" timeLoss="45.33" rerouteNo="0" devices="tripinfo_route_29.3" vType="car" speedFactor="0.87" vaporized=""/>
    <tripinfo id="route_30.5" depart="61.00" departLane="-422986370#2_0" departPos="245.96" departSpeed="0.00" departDelay="3.26" arrival="117.00" arrivalLane="137415945#0_0" arrivalPos="11.12" arrivalSpeed="14.18" duration="56.00" routeLength="210.98" waitingTime="23.00" waitingCount="1" stopTime="0.00" timeLoss="39.53" rerouteNo="0" devices="tripinfo_route_30.5" vType="car" speedFactor="0.85" vaporized=""/>
    <tripinfo id="route_34.2" depart="54.00" departLane="133126008#0_0" departPos="165.65" departSpeed="0.00" departDelay="1.46" arrival="118.00" arrivalLane="1369578054_0" arrivalPos="207.23" arrivalSpeed="15.38" duration="64.00" routeLength="254.95" waitingTime="31.00" waitingCount="1" stopTime="0.00" timeLoss="47.34" rerouteNo="0" devices="tripinfo_route_34.2" vType="car" speedFactor="0.95" vaporized=""/>
    <tripinfo id="route_30.4" depart="57.00" departLane="-422986370#2_0" departPos="212.90" departSpeed="0.00" departDelay="1.21" arrival="118.00" arrivalLane="137415945#0_0" arrivalPos="3.69" arrivalSpeed="14.53" duration="61.00" routeLength="236.61" waitingTime="21.00" waitingCount="1" stopTime="0.00" timeLoss="45.37" rerouteNo="0" devices="tripinfo_route_30.4" vType="car" speedFactor="0.96" vaporized=""/>
    <tripinfo id="route_35.3" depart="59.00" departLane="133126008#0_0" departPos="66.33" departSpeed="0.00" departDelay="2.51" arrival="118.00" arrivalLane="133126030#0_0" arrivalPos="67.66" arrivalSpeed="11.37" duration="59.00" routeLength="188.86" waitingTime="18.00" waitingCount="1" stopTime="0.00" timeLoss="46.57" rerouteNo="0" devices="tripinfo_route_35.3" vType="car" speedFactor="1.00" vaporized=""/>
    <tripinfo id="route_29.9" depart="65.00" departLane="-422986370#2_0" departPos="275.45" departSpeed="0.00" departDelay="3.83" arrival="118.00" arrivalLane="-430406005#1_1" arrivalPos="175.19" arrivalSpeed="16.54" duration="53.00" routeLength="234.17" waitingTime="21.00" waitingCount="1" stopTime="0.00" timeLoss="38.58" rerouteNo="0" devices="tripinfo_route_29.9" vType="car" speedFactor="1.04" vaporized=""/>
    <tripinfo id="route_29.6" depart="61.00" departLane="-422986370#2_0" departPos="192.05" departSpeed="0.00" departDelay="4.22" arrival="119.00" arrivalLane="-430406005#1_1" arrivalPos="74.50" arrivalSpeed="14.37" duration="58.00" routeLength="216.88" waitingTime="18.00" waitingCount="1" stopTime="0.00" timeLoss="44.12" rerouteNo="0" devices="tripinfo_route_29.6" vType="car" speedFactor="1.09" vaporized=""/>
    <tripinfo id="route_35.0" depart="48.00" departLane="133126008#0_0" departPos="47.21" departSpeed="0.00" departDelay="0.00" arrival="120.00" arrivalLane="133126030#0_0" arrivalPos="137.72" arrivalSpeed="15.33" duration="72.00" routeLength="278.03" waitingTime="22.00" waitingCount="1" stopTime="0.00" timeLoss="54.09" rerouteNo="0" devices="tripinfo_route_35.0" vType="car" speedFactor="1.05" vaporized=""/>
    <tripinfo id="route_29.5" depart="57.00" departLane="-422986370#2_0" departPos="127.34" departSpeed="0.00" departDelay="1.69" arrival="120.00" arrivalLane="-430406005#1_1" arrivalPos="62.84" arrivalSpeed="14.02" duration="63.00" routeLength="269.93" waitingTime="17.00" waitingCount="1" stopTime="0.00" timeLoss="46.34" rerouteNo="0" devices="tripinfo_route_29.5" vType="car" speedFactor="1.03" vaporized=""/>
    <tripinfo id="route_34.7" depart="65.00" departLane="133126008#0_0" departPos="44.71" departSpeed="0.00" departDelay="1.10" arrival="120.00" arrivalLane="1369578054_1" arrivalPos="62.18" arrivalSpeed="14.26" duration="55.00" routeLength="230.83" waitingTime="14.00" waitingCount="1" stopTime="0.00" timeLoss="40.63" rerouteNo="0" devices="tripinfo_route_34.7" vType="car" speedFactor="0.97" vaporized=""/>
    <tripinfo id="route_34.4" depart="59.00" departLane="133126008#0_0" departPos="85.67" departSpeed="0.00" departDelay="1.91" arrival="121.00" arrivalLane="1369578054_1" arrivalPos="123.18" arrivalSpeed="16.19" duration="62.00" routeLength="250.86" waitingTime="15.00" waitingCount="1" stopTime="0.00" timeLoss="46.16" rerouteNo="0" devices="tripinfo_route_34.4" vType="car" speedFactor="1.10" vaporized=""/>
    <tripinfo id="route_29.0" depart="48.00" departLane="-422986370#2_0" departPos="1.81" departSpeed="0.00" departDelay="0.00" arrival="122.00" arrivalLane="-430406005#1_1" arrivalPos="159.13" arrivalSpeed="16.32" duration="74.00" routeLength="491.75" waitingTime="18.00" waitingCount="1" stopTime="0.00" timeLoss="44.30" rerouteNo="0" devices="tripinfo_route_29.0" vType="car" speedFactor="1.06" vaporized=""/>
    <tripinfo id="route_29.7" depart="62.00" departLane="-422986370#2_0" departPos="3.49" departSpeed="0.00" departDelay="3.76" arrival="122.00" arrivalLane="-430406005#1_1" arrivalPos="50.22" arrivalSpeed="13.75" duration="60.00" routeLength="381.16" waitingTime="10.00" waitingCount="1" stopTime="0.00" timeLoss="35.11" rerouteNo="0" devices="tripinfo_route_29.7" vType="car" speedFactor="0.90" vaporized=""/>
    <tripinfo id="route_35.6" depart="70.00" departLane="133126008#0_0" departPos="5.63" departSpeed="0.00" departDelay="5.02" arrival="122.00" arrivalLane="133126030#0_0" arrivalPos="23.99" arrivalSpeed="8.37" duration="52.00" routeLength="205.89" waitingTime="10.00" waitingCount="1" stopTime="0.00" timeLoss="39.00" rerouteNo="0" devices="tripinfo_route_35.6" vType="car" speedFactor="1.00" vaporized=""/>
    <tripinfo id="route_34.10" depart="81.00" departLane="133126008#0_0" departPos="92.33" departSpeed="0.00" departDelay="10.28" arrival="122.00" arrivalLane="1369578054_1" arrivalPos="60.51" arrivalSpeed="14.68" duration="41.00" routeLength="181.54" waitingTime="8.00" waitingCount="1" stopTime="0.00" timeLoss="29.28" rerouteNo="0" devices="tripinfo_route_34.10" vType="car" speedFactor="1.18" vaporized=""/>
    <tripinfo id="route_30.1" depart="50.00" departLane="-422986370#2_0" departPos="118.79" departSpeed="0.00" departDelay="0.05" arrival="123.00" arrivalLane="137415945#0_0" arrivalPos="6.53" arrivalSpeed="16.44" duration="73.00" routeLength="333.56" waitingTime="17.00" waitingCount="1" stopTime="0.00" timeLoss="51.40" rerouteNo="0" devices="tripinfo_route_30.1" vType="car" speedFactor="1.03" vaporized=""/>
    <tripinfo id="route_29.11" depart="76.00" departLane="-422986370#2_0" departPos="128.13" departSpeed="0.00" departDelay="11.91" arrival="124.00" arrivalLane="-430406005#1_1" arrivalPos="28.15" arrivalSpeed="14.12" duration="48.00" routeLength="234.45" waitingTime="8.00" waitingCount="1" stopTime="0.00" timeLoss="33.53" rerouteNo="0" devices="tripinfo_route_29.11" vType="car" speedFactor="1.15" vaporized=""/>
    <tripinfo id="route_30.3" depart="54.00" departLane="-422986370#2_0" departPos="94.02" departSpeed="0.00" departDelay="0.16" arrival="125.00" arrivalLane="137415945#0_0" arrivalPos="8.17" arrivalSpeed="16.18" duration="71.00" routeLength="359.97" waitingTime="16.00" waitingCount="1" stopTime="0.00" timeLoss="48.35" rerouteNo="0" devices="tripinfo_route_30.3" vType="car" speedFactor="1.01" vaporized=""/>
    <tripinfo id="route_34.8" depart="71.00" departLane="133126008#0_0" departPos="104.16" departSpeed="0.00" departDelay="4.82" arrival="125.00" arrivalLane="1369578054_1" arrivalPos="170.67" arrivalSpeed="16.28" duration="54.00" routeLength="279.87" waitingTime="15.00" waitingCount="1" stopTime="0.00" timeLoss="36.90" rerouteNo="0" devices="tripinfo_route_34.8" vType="car" speedFactor="1.01" vaporized=""/>
    <tripinfo id="route_34.9" depart="80.00" departLane="133126008#0_0" departPos="76.70" departSpeed="0.00" departDelay="11.55" arrival="125.00" arrivalLane="1369578054_0" arrivalPos="66.50" arrivalSpeed="14.39" duration="45.00" routeLength="203.15" waitingTime="10.00" waitingCount="1" stopTime="0.00" timeLoss="32.46" rerouteNo="0" devices="tripinfo_route_34.9" vType="car" speedFactor="1.03" vaporized=""/>
    <tripinfo id="route_29.10" depart="69.00" departLane="-422986370#2_0" departPos="79.17" departSpeed="0.00" departDelay="6.37" arrival="126.00" arrivalLane="-430406005#1_1" arrivalPos="73.55" arrivalSpeed="16.42" duration="57.00" routeLength="328.82" waitingTime="9.00" waitingCount="1" stopTime="0.00" timeLoss="36.07" rerouteNo="0" devices="tripinfo_route_29.10" vType="car" speedFactor="0.98" vaporized=""/>
    <tripinfo id="route_35.5" depart="64.00" departLane="133126008#0_0" departPos="65.41" departSpeed="0.00" departDelay="1.85" arrival="126.00" arrivalLane="133126030#0_0" arrivalPos="157.74" arrivalSpeed="16.13" duration="62.00" routeLength="279.84" waitingTime="16.00" waitingCount="1" stopTime="0.00" timeLoss="44.23" rerouteNo="0" devices="tripinfo_route_35.5" vType="car" speedFactor="0.98" vaporized=""/>
    <tripinfo id="route_29.15" depart="82.00" departLane="-422986370#2_0" departPos="228.06" departSpeed="0.00" departDelay="12.06" arrival="126.00" arrivalLane="-430406005#1_1" arrivalPos="135.91" arrivalSpeed="16.23" duration="44.00" routeLength="242.28" waitingTime="10.00" waitingCount="1" stopTime="0.00" timeLoss="28.75" rerouteNo="0" devices="tripinfo_route_29.15" vType="car" speedFactor="0.93" vaporized=""/>
    <tripinfo id="route_29.16" depart="83.00" departLane="-422986370#2_0" departPos="236.08" departSpeed="0.00" departDelay="11.59" arrival="127.00" arrivalLane="-430406005#1_0" arrivalPos="85.05" arrivalSpeed="14.80" duration="44.00" routeLength="183.41" waitingTime="13.00" waitingCount="1" stopTime="0.00" timeLoss="32.50" rerouteNo="0" devices="tripinfo_route_29.16" vType="car" speedFactor="1.07" vaporized=""/>
    <tripinfo id="route_30.2" depart="52.00" departLane="-422986370#2_0" departPos="26.67" departSpeed="0.00" departDelay="0.10" arrival="128.00" arrivalLane="137415945#0_0" arrivalPos="3.36" arrivalSpeed="15.01" duration="76.00" routeLength="422.51" waitingTime="15.00" waitingCount="1" stopTime="0.00" timeLoss="48.73" rerouteNo="0" devices="tripinfo_route_30.2" vType="car" speedFactor="1.01" vaporized=""/>
    <tripinfo id="route_29.13" depart="78.00" departLane="-422986370#2_0" departPos="203.40" departSpeed="0.00" departDelay="10.98" arrival="128.00" arrivalLane="-430406005#1_0" arrivalPos="76.84" arrivalSpeed="14.07" duration="50.00" routeLength="207.88" waitingTime="13.00" waitingCount="1" stopTime="0.00" timeLoss="37.22" rerouteNo="0" devices="tripinfo_route_29.13" vType="car" speedFactor="1.06" vaporized=""/>
    <tripinfo id="route_35.4" depart="61.00" departLane="133126008#0_0" departPos="2.61" departSpeed="0.00" departDelay="1.68" arrival="130.00" arrivalLane="133126030#0_0" arrivalPos="167.58" arrivalSpeed="15.33" duration="69.00" routeLength="352.49" waitingTime="16.00" waitingCount="1" stopTime="0.00" timeLoss="45.19" rerouteNo="0" devices="tripinfo_route_35.4" vType="car" speedFactor="0.94" vaporized=""/>
    <tripinfo id="route_29.12" depart="78.00" departLane="-422986370#2_0" departPos="178.54" departSpeed="0.00" departDelay="12.44" arrival="130.00" arrivalLane="-430406005#1_0" arrivalPos="83.19" arrivalSpeed="14.89" duration="52.00" routeLength="239.08" waitingTime="12.00" waitingCount="1" stopTime="0.00" timeLoss="37.33" rerouteNo="0" devices="tripinfo_route_29.12" vType="car" speedFactor="1.02" vaporized=""/>
    <tripinfo id="route_35.8" depart="82.00" departLane="133126008#0_0" departPos="7.12" departSpeed="0.00" departDelay="11.36" arrival="131.00" arrivalLane="133126030#0_0" arrivalPos="63.54" arrivalSpeed="11.38" duration="49.00" routeLength="243.94" waitingTime="0.00" waitingCount="0" stopTime="0.00" timeLoss="33.63" rerouteNo="0" devices="tripinfo_route_35.8" vType="car" speedFactor="1.00" vaporized=""/>
    <tripinfo id="route_35.7" depart="77.00" departLane="133126008#0_0" departPos="10.14" departSpeed="0.00" departDelay="9.19" arrival="133.00" arrivalLane="133126030#0_0" arrivalPos="112.02" arrivalSpeed="13.55" duration="56.00" routeLength="289.39" waitingTime="9.00" waitingCount="1" stopTime="0.00" timeLoss="36.91" rerouteNo="0" devices="tripinfo_route_35.7" vType="car" speedFactor="0.95" vaporized=""/>
    <tripinfo id="route_29.17" depart="91.00" departLane="-422986370#2_0" departPos="21.52" departSpeed="0.00" departDelay="18.13" arrival="133.00" arrivalLane="-430406005#1_1" arrivalPos="116.63" arrivalSpeed="16.47" duration="42.00" routeLength="429.54" waitingTime="0.00" waitingCount="0" stopTime="0.00" timeLoss="15.51" rerouteNo="0" devices="tripinfo_route_29.17" vType="car" speedFactor="1.15" vaporized=""/>
    <tripinfo id="route_29.14" depart="82.00" departLane="-422986370#2_0" departPos="35.73" departSpeed="0.00" departDelay="13.52" arrival="134.00" arrivalLane="-430406005#1_1" arrivalPos="168.24" arrivalSpeed="16.57" duration="52.00" routeLength="466.94" waitingTime="0.00" waitingCount="0" stopTime="0.00" timeLoss="23.81" rerouteNo="0" devices="tripinfo_route_29.14" vType="car" speedFactor="1.07" vaporized=""/>
    <tripinfo id="route_30.6" depart="65.00" departLane="-422986370#2_0" departPos="58.51" departSpeed="0.00" departDelay="5.31" arrival="137.00" arrivalLane="137415945#0_0" arrivalPos="4.97" arrivalSpeed="16.09" duration="72.00" routeLength="392.28" waitingTime="8.00" waitingCount="1" stopTime="0.00" timeLoss="45.57" rerouteNo="0" devices="tripinfo_route_30.6" vType="car" speedFactor="0.97" vaporized=""/>
    <tripinfo id="route_29.18" depart="97.00" departLane="-422986370#2_0" departPos="63.76" departSpeed="0.00" departDelay="22.67" arrival="137.00" arrivalLane="-430406005#1_1" arrivalPos="165.34" arrivalSpeed="16.19" duration="40.00" routeLength="436.01" waitingTime="0.00" waitingCount="0" stopTime="0.00" timeLoss="13.66" rerouteNo="0" devices="tripinfo_route_29.18" vType="car" speedFactor="1.01" vaporized=""/>
    <tripinfo id="route_34.12" depart="90.00" departLane="133126008#0_0" departPos="63.33" departSpeed="0.00" departDelay="14.74" arrival="138.00" arrivalLane="1369578054_1" arrivalPos="291.98" arrivalSpeed="15.53" duration="48.00" routeLength="442.01" waitingTime="0.00" waitingCount="0" stopTime="0.00" timeLoss="20.02" rerouteNo="0" devices="tripinfo_route_34.12" vType="car" speedFactor="0.94" vaporized=""/>
    <tripinfo id="route_34.14" depart="105.00" departLane="133126008#0_0" departPos="77.18" departSpeed="0.00" departDelay="25.19" arrival="142.00" arrivalLane="1369578054_1" arrivalPos="264.11" arrivalSpeed="14.97" duration="37.00" routeLength="400.29" waitingTime="0.00" waitingCount="0" stopTime="0.00" timeLoss="12.57" rerouteNo="0" devices="tripinfo_route_34.14" vType="car" speedFactor="1.08" vaporized=""/>
    <tripinfo id="route_34.11" depart="87.00" departLane="133126008#0_0" departPos="34.69" departSpeed="0.00" departDelay="14.01" arrival="143.00" arrivalLane="1369578054_1" arrivalPos="298.02" arrivalSpeed="13.45" duration="56.00" routeLength="476.69" waitingTime="1.00" waitingCount="1" stopTime="0.00" timeLoss="22.53" rerouteNo="0" devices="tripinfo_route_34.11" vType="car" speedFactor="0.82" vaporized=""/>
    <tripinfo id="route_38.2" depart="57.00" departLane="485211947#0_0" departPos="162.23" departSpeed="0.00" departDelay="4.39" arrival="145.00" arrivalLane="-430406005#1_1" arrivalPos="54.97" arrivalSpeed="11.30" duration="88.00" routeLength="105.72" waitingTime="65.00" waitingCount="1" stopTime="0.00" timeLoss="80.93" rerouteNo="0" devices="tripinfo_route_38.2" vType="car" speedFactor="1.18" vaporized=""/>
    <tripinfo id="route_38.3" depart="62.00" departLane="485211947#0_0" departPos="0.16" departSpeed="0.00" departDelay="7.08" arrival="148.00" arrivalLane="-430406005#1_1" arrivalPos="32.26" arrivalSpeed="10.53" duration="86.00" routeLength="245.09" waitingTime="46.00" waitingCount="1" stopTime="0.00" timeLoss="68.25" rerouteNo="0" devices="tripinfo_route_38.3" vType="car" speedFactor="0.90" vaporized=""/>
    <tripinfo id="route_37.0" depart="48.00" departLane="485211947#0_0" departPos="162.24" departSpeed="0.00" departDelay="0.00" arrival="149.00" arrivalLane="137415945#0_0" arrivalPos="6.94" arrivalSpeed="15.14" duration="101.00" routeLength="189.23" waitingTime="71.00" waitingCount="1" stopTime="0.00" timeLoss="88.60" rerouteNo="0" devices="tripinfo_route_37.0" vType="car" speedFactor="0.94" vaporized=""/>
    <tripinfo id="route_37.1" depart="51.00" departLane="485211947#0_0" departPos="76.22" departSpeed="0.00" departDelay="0.96" arrival="149.00" arrivalLane="137415945#0_1" arrivalPos="2.03" arrivalSpeed="15.54" duration="98.00" routeLength="270.34" waitingTime="58.00" waitingCount="1" stopTime="0.00" timeLoss="81.15" rerouteNo="0" devices="tripinfo_route_37.1" vType="car" speedFactor="1.16" vaporized=""/>
    <tripinfo id="route_36.0" depart="48.00" departLane="485211947#0_0" departPos="11.17" departSpeed="0.00" departDelay="0.00" arrival="152.00" arrivalLane="1369578054_0" arrivalPos="74.16" arrivalSpeed="13.29" duration="104.00" routeLength="260.46" waitingTime="57.00" waitingCount="1" stopTime="0.00" timeLoss="84.72" rerouteNo="0" devices="tripinfo_route_36.0" vType="car" speedFactor="0.89" vaporized=""/>
    <tripinfo id="route_38.1" depart="51.00" departLane="485211947#0_0" departPos="178.72" departSpeed="0.00" departDelay="0.69" arrival="152.00" arrivalLane="-430406005#1_1" arrivalPos="170.84" arrivalSpeed="16.43" duration="101.00" routeLength="205.10" waitingTime="72.00" waitingCount="1" stopTime="0.00" timeLoss="87.12" rerouteNo="0" devices="tripinfo_route_38.1" vType="car" speedFactor="1.02" vaporized=""/>
    <tripinfo id="route_37.2" depart="56.00" departLane="485211947#0_0" departPos="72.22" departSpeed="0.00" departDelay="3.92" arrival="152.00" arrivalLane="137415945#0_1" arrivalPos="12.22" arrivalSpeed="15.30" duration="96.00" routeLength="284.53" waitingTime="55.00" waitingCount="1" stopTime="0.00" timeLoss="76.76" rerouteNo="0" devices="tripinfo_route_37.2" vType="car" speedFactor="0.93" vaporized=""/>
    <tripinfo id="route_38.0" depart="48.00" departLane="485211947#0_0" departPos="59.66" departSpeed="0.00" departDelay="0.00" arrival="153.00" arrivalLane="-430406005#1_1" arrivalPos="133.07" arrivalSpeed="16.57" duration="105.00" routeLength="286.39" waitingTime="64.00" waitingCount="1" stopTime="0.00" timeLoss="84.69" rerouteNo="0" devices="tripinfo_route_38.0" vType="car" speedFactor="0.86" vaporized=""/>
    <tripinfo id="route_36.2" depart="52.00" departLane="485211947#0_0" departPos="123.80" departSpeed="0.00" departDelay="0.67" arrival="153.00" arrivalLane="1369578054_0" arrivalPos="171.28" arrivalSpeed="13.40" duration="101.00" routeLength="244.94" waitingTime="64.00" waitingCount="1" stopTime="0.00" timeLoss="81.93" rerouteNo="0" devices="tripinfo_route_36.2" vType="car" speedFactor="0.83" vaporized=""/>
    <tripinfo id="route_37.3" depart="62.00" departLane="485211947#0_0" departPos="62.79" departSpeed="0.00" departDelay="7.88" arrival="153.00" arrivalLane="137415945#0_1" arrivalPos="2.64" arrivalSpeed="15.94" duration="91.00" routeLength="284.38" waitingTime="50.00" waitingCount="1" stopTime="0.00" timeLoss="73.24" rerouteNo="0" devices="tripinfo_route_37.3" vType="car" speedFactor="1.10" vaporized=""/>
    <tripinfo id="route_37.4" depart="67.00" departLane="485211947#0_0" departPos="22.13" departSpeed="0.00" departDelay="10.84" arrival="154.00" arrivalLane="137415945#0_1" arrivalPos="0.30" arrivalSpeed="14.45" duration="87.00" routeLength="322.70" waitingTime="43.00" waitingCount="1" stopTime="0.00" timeLoss="64.81" rerouteNo="0" devices="tripinfo_route_37.4" vType="car" speedFactor="0.88" vaporized=""/>
    <tripinfo id="route_38.7" depart="97.00" departLane="485211947#0_0" departPos="18.65" departSpeed="0.00" departDelay="32.85" arrival="155.00" arrivalLane="-430406005#1_1" arrivalPos="17.45" arrivalSpeed="9.95" duration="58.00" routeLength="211.78" waitingTime="19.00" waitingCount="1" stopTime="0.00" timeLoss="44.21" rerouteNo="0" devices="tripinfo_route_38.7" vType="car" speedFactor="1.02" vaporized=""/>
    <tripinfo id="route_38.4" depart="68.00" departLane="485211947#0_0" departPos="2.16" departSpeed="0.00" departDelay="10.77" arrival="156.00" arrivalLane="-430406005#1_1" arrivalPos="124.92" arrivalSpeed="16.11" duration="88.00" routeLength="335.74" waitingTime="42.00" waitingCount="1" stopTime="0.00" timeLoss="66.31" rerouteNo="0" devices="tripinfo_route_38.4" vType="car" speedFactor="1.00" vaporized=""/>
    <tripinfo id="route_37.6" depart="73.00" departLane="485211947#0_0" departPos="66.16" departSpeed="0.00" departDelay="12.76" arrival="156.00" arrivalLane="137415945#0_1" arrivalPos="7.30" arrivalSpeed="14.99" duration="83.00" routeLength="285.67" waitingTime="43.00" waitingCount="1" stopTime="0.00" timeLoss="64.21" rerouteNo="0" devices="tripinfo_route_37.6" vType="car" speedFactor="0.91" vaporized=""/>
    <tripinfo id="route_36.7" depart="73.00" departLane="485211947#0_0" departPos="136.99" departSpeed="0.00" departDelay="13.34" arrival="157.00" arrivalLane="1369578054_0" arrivalPos="103.24" arrivalSpeed="14.32" duration="84.00" routeLength="163.71" waitingTime="54.00" waitingCount="1" stopTime="0.00" timeLoss="71.40" rerouteNo="0" devices="tripinfo_route_36.7" vType="car" speedFactor="0.88" vaporized=""/>