<?xml version="1.0" encoding="UTF-8"?>

<!-- generated on 2025-05-04 22:10:25 by Eclipse SUMO sumo Version 1.20.0
<configuration xmlns:xsi="http://www.w3.org/2001/XMLSchema-instance" xsi:noNamespaceSchemaLocation="http://sumo.dlr.de/xsd/sumoConfiguration.xsd">

    <input>
        <net-file value="config/osm.net.xml"/>
        <route-files value="draft/generated_0_093_5_069_0_649_7_027_24_.rou.xml"/>
    </input>

    <output>
        <tripinfo-output value="draft/tripinfo_0_093_5_069_0_649_7_027_24.xml"/>
    </output>

    <time>
        <step-length value="1"/>
    </time>

    <traci_server>
        <remote-port value="37893"/>
    </traci_server>

    <gui_only>
        <start value="true"/>
    </gui_only>

</configuration>
-->

<tripinfos xmlns:xsi="http://www.w3.org/2001/XMLSchema-instance" xsi:noNamespaceSchemaLocation="http://sumo.dlr.de/xsd/tripinfo_file.xsd">
    <tripinfo id="route_37.0" depart="24.00" departLane="485211947#0_0" departPos="162.24" departSpeed="0.00" departDelay="0.00" arrival="47.00" arrivalLane="137415945#0_0" arrivalPos="6.94" arrivalSpeed="15.16" duration="23.00" routeLength="189.23" waitingTime="0.00" waitingCount="0" stopTime="0.00" timeLoss="10.55" rerouteNo="0" devices="tripinfo_route_37.0" vType="car" speedFactor="0.94" vaporized=""/>
    <tripinfo id="route_38.2" depart="33.00" departLane="485211947#0_0" departPos="162.23" departSpeed="0.00" departDelay="4.39" arrival="50.00" arrivalLane="-430406005#1_1" arrivalPos="54.97" arrivalSpeed="12.61" duration="17.00" routeLength="105.72" waitingTime="0.00" waitingCount="0" stopTime="0.00" timeLoss="9.51" rerouteNo="0" devices="tripinfo_route_38.2" vType="car" speedFactor="1.18" vaporized=""/>
    <tripinfo id="route_38.1" depart="27.00" departLane="485211947#0_0" departPos="178.72" departSpeed="0.00" departDelay="0.69" arrival="51.00" arrivalLane="-430406005#1_1" arrivalPos="170.84" arrivalSpeed="16.17" duration="24.00" routeLength="205.10" waitingTime="0.00" waitingCount="0" stopTime="0.00" timeLoss="10.64" rerouteNo="0" devices="tripinfo_route_38.1" vType="car" speedFactor="1.02" vaporized=""/>
    <tripinfo id="route_31.0" depart="24.00" departLane="1235147073.116_0" departPos="7.14" departSpeed="0.00" departDelay="0.00" arrival="56.00" arrivalLane="133126030#0_0" arrivalPos="8.43" arrivalSpeed="7.17" duration="32.00" routeLength="175.81" waitingTime="1.00" waitingCount="1" stopTime="0.00" timeLoss="21.28" rerouteNo="0" devices="tripinfo_route_31.0" vType="car" speedFactor="1.01" vaporized=""/>
    <tripinfo id="route_36.2" depart="28.00" departLane="485211947#0_0" departPos="123.80" departSpeed="0.00" departDelay="0.67" arrival="59.00" arrivalLane="1369578054_0" arrivalPos="171.28" arrivalSpeed="13.48" duration="31.00" routeLength="244.94" waitingTime="0.00" waitingCount="0" stopTime="0.00" timeLoss="11.77" rerouteNo="0" devices="tripinfo_route_36.2" vType="car" speedFactor="0.83" vaporized=""/>
    <tripinfo id="route_31.1" depart="36.00" departLane="1235147073.116_0" departPos="6.60" departSpeed="0.00" departDelay="10.03" arrival="62.00" arrivalLane="133126030#0_0" arrivalPos="56.90" arrivalSpeed="14.79" duration="26.00" routeLength="224.82" waitingTime="0.00" waitingCount="0" stopTime="0.00" timeLoss="12.45" rerouteNo="0" devices="tripinfo_route_31.1" vType="car" speedFactor="1.05" vaporized=""/>
    <tripinfo id="route_32.0" depart="27.00" departLane="1235147073.116_0" departPos="0.46" departSpeed="0.00" departDelay="3.00" arrival="65.00" arrivalLane="-430406005#1_0" arrivalPos="87.77" arrivalSpeed="12.90" duration="38.00" routeLength="250.27" waitingTime="0.00" waitingCount="0" stopTime="0.00" timeLoss="21.71" rerouteNo="0" devices="tripinfo_route_32.0" vType="car" speedFactor="1.08" vaporized=""/>
    <tripinfo id="route_32.1" depart="44.00" departLane="1235147073.116_0" departPos="15.04" departSpeed="0.00" departDelay="17.64" arrival="66.00" arrivalLane="-430406005#1_0" arrivalPos="5.79" arrivalSpeed="6.64" duration="22.00" routeLength="153.71" waitingTime="0.00" waitingCount="0" stopTime="0.00" timeLoss="10.56" rerouteNo="0" devices="tripinfo_route_32.1" vType="car" speedFactor="0.88" vaporized=""/>
    <tripinfo id="route_33.0" depart="33.00" departLane="1235147073.116_0" departPos="4.63" departSpeed="0.00" departDelay="9.00" arrival="69.00" arrivalLane="1369578054_1" arrivalPos="176.77" arrivalSpeed="16.43" duration="36.00" routeLength="351.87" waitingTime="0.00" waitingCount="0" stopTime="0.00" timeLoss="13.85" rerouteNo="0" devices="tripinfo_route_33.0" vType="car" speedFactor="1.03" vaporized=""/>
    <tripinfo id="route_31.2" depart="44.00" departLane="1235147073.116_0" departPos="6.04" departSpeed="0.00" departDelay="16.05" arrival="70.00" arrivalLane="133126030#0_1" arrivalPos="41.34" arrivalSpeed="15.78" duration="26.00" routeLength="209.83" waitingTime="0.00" waitingCount="0" stopTime="0.00" timeLoss="12.16" rerouteNo="0" devices="tripinfo_route_31.2" vType="car" speedFactor="0.97" vaporized=""/>
    <tripinfo id="route_33.2" depart="46.00" departLane="1235147073.116_0" departPos="0.20" departSpeed="0.00" departDelay="18.20" arrival="76.00" arrivalLane="1369578054_1" arrivalPos="50.33" arrivalSpeed="12.97" duration="30.00" routeLength="229.85" waitingTime="1.00" waitingCount="1" stopTime="0.00" timeLoss="13.29" rerouteNo="0" devices="tripinfo_route_33.2" vType="car" speedFactor="0.89" vaporized=""/>
    <tripinfo id="route_33.1" depart="40.00" departLane="1235147073.116_0" departPos="2.35" departSpeed="0.00" departDelay="14.10" arrival="78.00" arrivalLane="1369578054_1" arrivalPos="189.81" arrivalSpeed="16.54" duration="38.00" routeLength="367.20" waitingTime="0.00" waitingCount="0" stopTime="0.00" timeLoss="14.56" rerouteNo="0" devices="tripinfo_route_33.1" vType="car" speedFactor="1.12" vaporized=""/>
    <tripinfo id="route_32.2" depart="49.00" departLane="1235147073.116_0" departPos="0.74" departSpeed="0.00" departDelay="20.28" arrival="81.00" arrivalLane="-430406005#1_0" arrivalPos="106.48" arrivalSpeed="14.49" duration="32.00" routeLength="268.70" waitingTime="0.00" waitingCount="0" stopTime="0.00" timeLoss="14.21" rerouteNo="0" devices="tripinfo_route_32.2" vType="car" speedFactor="0.92" vaporized=""/>
    <tripinfo id="route_33.3" depart="57.00" departLane="1235147073.116_0" departPos="14.86" departSpeed="0.00" departDelay="27.31" arrival="82.00" arrivalLane="1369578054_1" arrivalPos="8.34" arrivalSpeed="8.83" duration="25.00" routeLength="173.21" waitingTime="0.00" waitingCount="0" stopTime="0.00" timeLoss="13.66" rerouteNo="0" devices="tripinfo_route_33.3" vType="car" speedFactor="0.99" vaporized=""/>
    <tripinfo id="route_31.3" depart="55.00" departLane="1235147073.116_0" departPos="1.28" departSpeed="0.00" departDelay="25.08" arrival="83.00" arrivalLane="133126030#0_1" arrivalPos="28.13" arrivalSpeed="16.52" duration="28.00" routeLength="201.37" waitingTime="1.00" waitingCount="1" stopTime="0.00" timeLoss="15.83" rerouteNo="0" devices="tripinfo_route_31.3" vType="car" speedFactor="1.17" vaporized=""/>
    <tripinfo id="route_31.4" depart="60.00" departLane="1235147073.116_0" departPos="6.54" departSpeed="0.00" departDelay="28.11" arrival="84.00" arrivalLane="133126030#0_0" arrivalPos="39.35" arrivalSpeed="16.14" duration="24.00" routeLength="207.33" waitingTime="0.00" waitingCount="0" stopTime="0.00" timeLoss="10.58" rerouteNo="0" devices="tripinfo_route_31.4" vType="car" speedFactor="1.09" vaporized=""/>
    <tripinfo id="route_32.3" depart="65.00" departLane="1235147073.116_0" departPos="6.10" departSpeed="0.00" departDelay="33.91" arrival="96.00" arrivalLane="-430406005#1_0" arrivalPos="121.21" arrivalSpeed="15.70" duration="31.00" routeLength="278.06" waitingTime="0.00" waitingCount="0" stopTime="0.00" timeLoss="12.90" rerouteNo="0" devices="tripinfo_route_32.3" vType="car" speedFactor="1.04" vaporized=""/>
    <tripinfo id="route_31.5" depart="70.00" departLane="1235147073.116_0" departPos="9.94" departSpeed="0.00" departDelay="36.14" arrival="99.00" arrivalLane="133126030#0_0" arrivalPos="106.29" arrivalSpeed="14.13" duration="29.00" routeLength="270.88" waitingTime="0.00" waitingCount="0" stopTime="0.00" timeLoss="9.22" rerouteNo="0" devices="tripinfo_route_31.5" vType="car" speedFactor="0.85" vaporized=""/>
    <tripinfo id="route_34.0" depart="24.00" departLane="133126008#0_0" departPos="101.07" departSpeed="0.00" departDelay="0.00" arrival="103.00" arrivalLane="1369578054_1" arrivalPos="13.07" arrivalSpeed="8.72" duration="79.00" routeLength="125.36" waitingTime="53.00" waitingCount="1" stopTime="0.00" timeLoss="71.13" rerouteNo="0" devices="tripinfo_route_34.0" vType="car" speedFactor="0.83" vaporized=""/>
    <tripinfo id="route_29.1" depart="26.00" departLane="-422986370#2_0" departPos="265.89" departSpeed="0.00" departDelay="0.54" arrival="103.00" arrivalLane="-430406005#1_1" arrivalPos="8.25" arrivalSpeed="8.10" duration="77.00" routeLength="76.79" waitingTime="57.00" waitingCount="1" stopTime="0.00" timeLoss="72.12" rerouteNo="0" devices="tripinfo_route_29.1" vType="car" speedFactor="1.09" vaporized=""/>
    <tripinfo id="route_29.4" depart="30.00" departLane="-422986370#2_0" departPos="297.23" departSpeed="0.00" departDelay="0.15" arrival="106.00" arrivalLane="-430406005#1_0" arrivalPos="32.75" arrivalSpeed="10.25" duration="76.00" routeLength="69.94" waitingTime="60.00" waitingCount="1" stopTime="0.00" timeLoss="71.37" rerouteNo="0" devices="tripinfo_route_29.4" vType="car" speedFactor="1.15" vaporized=""/>
    <tripinfo id="route_34.3" depart="35.00" departLane="133126008#0_0" departPos="127.31" departSpeed="0.00" departDelay="4.18" arrival="108.00" arrivalLane="1369578054_0" arrivalPos="25.77" arrivalSpeed="10.93" duration="73.00" routeLength="111.83" waitingTime="47.00" waitingCount="1" stopTime="0.00" timeLoss="66.07" rerouteNo="0" devices="tripinfo_route_34.3" vType="car" speedFactor="0.97" vaporized=""/>
    <tripinfo id="route_34.6" depart="38.00" departLane="133126008#0_0" departPos="162.26" departSpeed="0.00" departDelay="0.37" arrival="109.00" arrivalLane="1369578054_1" arrivalPos="50.19" arrivalSpeed="11.30" duration="71.00" routeLength="101.29" waitingTime="49.00" waitingCount="2" stopTime="0.00" timeLoss="64.70" rerouteNo="0" devices="tripinfo_route_34.6" vType="car" speedFactor="0.94" vaporized=""/>
    <tripinfo id="route_35.2" depart="33.00" departLane="133126008#0_0" departPos="111.59" departSpeed="0.00" departDelay="3.34" arrival="111.00" arrivalLane="133126030#0_0" arrivalPos="51.67" arrivalSpeed="10.62" duration="78.00" routeLength="127.60" waitingTime="47.00" waitingCount="1" stopTime="0.00" timeLoss="68.83" rerouteNo="0" devices="tripinfo_route_35.2" vType="car" speedFactor="1.02" vaporized=""/>
    <tripinfo id="route_29.8" depart="40.00" departLane="-422986370#2_0" departPos="216.62" departSpeed="0.00" departDelay="4.30" arrival="111.00" arrivalLane="-430406005#1_0" arrivalPos="7.61" arrivalSpeed="9.84" duration="71.00" routeLength="125.42" waitingTime="43.00" waitingCount="1" stopTime="0.00" timeLoss="63.36" rerouteNo="0" devices="tripinfo_route_29.8" vType="car" speedFactor="1.02" vaporized=""/>
    <tripinfo id="route_34.5" depart="37.00" departLane="133126008#0_0" departPos="98.03" departSpeed="0.00" departDelay="1.64" arrival="111.00" arrivalLane="1369578054_1" arrivalPos="46.01" arrivalSpeed="11.52" duration="74.00" routeLength="161.35" waitingTime="41.00" waitingCount="1" stopTime="0.00" timeLoss="64.03" rerouteNo="0" devices="tripinfo_route_34.5" vType="car" speedFactor="0.99" vaporized=""/>
    <tripinfo id="route_30.0" depart="24.00" departLane="-422986370#2_0" departPos="201.60" departSpeed="0.00" departDelay="0.00" arrival="114.00" arrivalLane="137415945#0_0" arrivalPos="9.07" arrivalSpeed="15.19" duration="90.00" routeLength="253.29" waitingTime="52.00" waitingCount="1" stopTime="0.00" timeLoss="72.42" rerouteNo="0" devices="tripinfo_route_30.0" vType="car" speedFactor="0.94" vaporized=""/>
    <tripinfo id="route_29.2" depart="27.00" departLane="-422986370#2_0" departPos="99.24" departSpeed="0.00" departDelay="0.07" arrival="114.00" arrivalLane="-430406005#1_1" arrivalPos="42.28" arrivalSpeed="12.31" duration="87.00" routeLength="277.46" waitingTime="43.00" waitingCount="1" stopTime="0.00" timeLoss="68.68" rerouteNo="0" devices="tripinfo_route_29.2" vType="car" speedFactor="0.93" vaporized=""/>
    <tripinfo id="route_35.1" depart="28.00" departLane="133126008#0_0" departPos="144.87" departSpeed="0.00" departDelay="1.17" arrival="114.00" arrivalLane="133126030#0_0" arrivalPos="141.65" arrivalSpeed="15.35" duration="86.00" routeLength="184.30" waitingTime="55.00" waitingCount="1" stopTime="0.00" timeLoss="72.96" rerouteNo="0" devices="tripinfo_route_35.1" vType="car" speedFactor="0.94" vaporized=""/>
    <tripinfo id="route_34.1" depart="27.00" departLane="133126008#0_0" departPos="23.09" departSpeed="0.00" departDelay="0.73" arrival="116.00" arrivalLane="1369578054_1" arrivalPos="90.42" arrivalSpeed="14.94" duration="89.00" routeLength="280.69" waitingTime="41.00" waitingCount="1" stopTime="0.00" timeLoss="71.39" rerouteNo="0" devices="tripinfo_route_34.1" vType="car" speedFactor="0.94" vaporized=""/>
    <tripinfo id="route_29.3" depart="29.00" departLane="-422986370#2_0" departPos="173.76" departSpeed="0.00" departDelay="0.61" arrival="117.00" arrivalLane="-430406005#1_1" arrivalPos="127.79" arrivalSpeed="15.90" duration="88.00" routeLength="288.46" waitingTime="44.00" waitingCount="1" stopTime="0.00" timeLoss="69.42" rerouteNo="0" devices="tripinfo_route_29.3" vType="car" speedFactor="0.87" vaporized=""/>
    <tripinfo id="route_34.2" depart="30.00" departLane="133126008#0_0" departPos="165.65" departSpeed="0.00" departDelay="1.46" arrival="118.00" arrivalLane="1369578054_0" arrivalPos="207.23" arrivalSpeed="15.43" duration="88.00" routeLength="254.95" waitingTime="55.00" waitingCount="1" stopTime="0.00" timeLoss="71.58" rerouteNo="0" devices="tripinfo_route_34.2" vType="car" speedFactor="0.95" vaporized=""/>
    <tripinfo id="route_35.3" depart="35.00" departLane="133126008#0_0" departPos="66.33" departSpeed="0.00" departDelay="2.51" arrival="118.00" arrivalLane="133126030#0_0" arrivalPos="67.66" arrivalSpeed="12.10" duration="83.00" routeLength="188.86" waitingTime="42.00" waitingCount="1" stopTime="0.00" timeLoss="70.49" rerouteNo="0" devices="tripinfo_route_35.3" vType="car" speedFactor="1.00" vaporized=""/>
    <tripinfo id="route_30.5" depart="37.00" departLane="-422986370#2_0" departPos="245.96" departSpeed="0.00" departDelay="3.26" arrival="118.00" arrivalLane="137415945#0_0" arrivalPos="11.12" arrivalSpeed="14.18" duration="81.00" routeLength="210.98" waitingTime="47.00" waitingCount="1" stopTime="0.00" timeLoss="64.10" rerouteNo="0" devices="tripinfo_route_30.5" vType="car" speedFactor="0.85" vaporized=""/>
    <tripinfo id="route_29.9" depart="41.00" departLane="-422986370#2_0" departPos="275.45" departSpeed="0.00" departDelay="3.83" arrival="118.00" arrivalLane="-430406005#1_1" arrivalPos="175.19" arrivalSpeed="16.27" duration="77.00" routeLength="234.17" waitingTime="45.00" waitingCount="1" stopTime="0.00" timeLoss="62.56" rerouteNo="0" devices="tripinfo_route_29.9" vType="car" speedFactor="1.04" vaporized=""/>
    <tripinfo id="route_29.5" depart="33.00" departLane="-422986370#2_0" departPos="127.34" departSpeed="0.00" departDelay="1.69" arrival="119.00" arrivalLane="-430406005#1_1" arrivalPos="62.84" arrivalSpeed="13.78" duration="86.00" routeLength="269.93" waitingTime="40.00" waitingCount="1" stopTime="0.00" timeLoss="69.21" rerouteNo="0" devices="tripinfo_route_29.5" vType="car" speedFactor="1.03" vaporized=""/>
    <tripinfo id="route_30.4" depart="33.00" departLane="-422986370#2_0" departPos="212.90" departSpeed="0.00" departDelay="1.21" arrival="119.00" arrivalLane="137415945#0_0" arrivalPos="3.69" arrivalSpeed="15.00" duration="86.00" routeLength="236.61" waitingTime="46.00" waitingCount="1" stopTime="0.00" timeLoss="69.83" rerouteNo="0" devices="tripinfo_route_30.4" vType="car" speedFactor="0.96" vaporized=""/>
    <tripinfo id="route_29.6" depart="37.00" departLane="-422986370#2_0" departPos="192.05" departSpeed="0.00" departDelay="4.22" arrival="119.00" arrivalLane="-430406005#1_0" arrivalPos="74.50" arrivalSpeed="14.28" duration="82.00" routeLength="216.88" waitingTime="44.00" waitingCount="1" stopTime="0.00" timeLoss="68.65" rerouteNo="0" devices="tripinfo_route_29.6" vType="car" speedFactor="1.09" vaporized=""/>
    <tripinfo id="route_35.0" depart="24.00" departLane="133126008#0_0" departPos="47.21" departSpeed="0.00" departDelay="0.00" arrival="120.00" arrivalLane="133126030#0_0" arrivalPos="137.72" arrivalSpeed="15.28" duration="96.00" routeLength="278.03" waitingTime="46.00" waitingCount="1" stopTime="0.00" timeLoss="77.84" rerouteNo="0" devices="tripinfo_route_35.0" vType="car" speedFactor="1.05" vaporized=""/>
    <tripinfo id="route_34.4" depart="35.00" departLane="133126008#0_0" departPos="85.67" departSpeed="0.00" departDelay="1.91" arrival="120.00" arrivalLane="1369578054_1" arrivalPos="123.18" arrivalSpeed="16.58" duration="85.00" routeLength="250.86" waitingTime="39.00" waitingCount="1" stopTime="0.00" timeLoss="69.53" rerouteNo="0" devices="tripinfo_route_34.4" vType="car" speedFactor="1.10" vaporized=""/>
    <tripinfo id="route_29.7" depart="38.00" departLane="-422986370#2_0" departPos="3.49" departSpeed="0.00" departDelay="3.76" arrival="120.00" arrivalLane="-430406005#1_1" arrivalPos="50.22" arrivalSpeed="13.96" duration="82.00" routeLength="381.16" waitingTime="32.00" waitingCount="1" stopTime="0.00" timeLoss="56.38" rerouteNo="0" devices="tripinfo_route_29.7" vType="car" speedFactor="0.90" vaporized=""/>
    <tripinfo id="route_34.7" depart="41.00" departLane="133126008#0_0" departPos="44.71" departSpeed="0.00" departDelay="1.10" arrival="120.00" arrivalLane="1369578054_1" arrivalPos="62.18" arrivalSpeed="14.19" duration="79.00" routeLength="230.83" waitingTime="39.00" waitingCount="1" stopTime="0.00" timeLoss="64.30" rerouteNo="0" devices="tripinfo_route_34.7" vType="car" speedFactor="0.97" vaporized=""/>
    <tripinfo id="route_29.11" depart="52.00" departLane="-422986370#2_0" departPos="128.13" departSpeed="0.00" departDelay="11.91" arrival="122.00" arrivalLane="-430406005#1_1" arrivalPos="28.15" arrivalSpeed="12.99" duration="70.00" routeLength="234.45" waitingTime="26.00" waitingCount="1" stopTime="0.00" timeLoss="55.24" rerouteNo="0" devices="tripinfo_route_29.11" vType="car" speedFactor="1.15" vaporized=""/>
    <tripinfo id="route_34.9" depart="60.00" departLane="133126008#0_0" departPos="97.14" departSpeed="0.00" departDelay="15.55" arrival="122.00" arrivalLane="1369578054_1" arrivalPos="66.50" arrivalSpeed="15.04" duration="62.00" routeLength="182.71" waitingTime="31.00" waitingCount="1" stopTime="0.00" timeLoss="50.31" rerouteNo="0" devices="tripinfo_route_34.9" vType="car" speedFactor="1.03" vaporized=""/>
    <tripinfo id="route_29.0" depart="24.00" departLane="-422986370#2_0" departPos="1.81" departSpeed="0.00" departDelay="0.00" arrival="123.00" arrivalLane="-430406005#1_1" arrivalPos="159.13" arrivalSpeed="16.46" duration="99.00" routeLength="491.75" waitingTime="43.00" waitingCount="1" stopTime="0.00" timeLoss="69.35" rerouteNo="0" devices="tripinfo_route_29.0" vType="car" speedFactor="1.06" vaporized=""/>
    <tripinfo id="route_29.10" depart="45.00" departLane="-422986370#2_0" departPos="79.17" departSpeed="0.00" departDelay="6.37" arrival="123.00" arrivalLane="-430406005#1_1" arrivalPos="73.55" arrivalSpeed="15.01" duration="78.00" routeLength="328.82" waitingTime="28.00" waitingCount="1" stopTime="0.00" timeLoss="57.46" rerouteNo="0" devices="tripinfo_route_29.10" vType="car" speedFactor="0.98" vaporized=""/>
    <tripinfo id="route_30.1" depart="26.00" departLane="-422986370#2_0" departPos="118.79" departSpeed="0.00" departDelay="0.05" arrival="124.00" arrivalLane="137415945#0_0" arrivalPos="6.53" arrivalSpeed="16.40" duration="98.00" routeLength="333.56" waitingTime="43.00" waitingCount="1" stopTime="0.00" timeLoss="77.24" rerouteNo="0" devices="tripinfo_route_30.1" vType="car" speedFactor="1.03" vaporized=""/>
    <tripinfo id="route_35.6" depart="46.00" departLane="133126008#0_0" departPos="5.63" departSpeed="0.00" departDelay="5.02" arrival="125.00" arrivalLane="133126030#0_0" arrivalPos="23.99" arrivalSpeed="8.63" duration="79.00" routeLength="205.89" waitingTime="29.00" waitingCount="1" stopTime="0.00" timeLoss="65.23" rerouteNo="0" devices="tripinfo_route_35.6" vType="car" speedFactor="1.00" vaporized=""/>
    <tripinfo id="route_34.8" depart="47.00" departLane="133126008#0_0" departPos="104.16" departSpeed="0.00" departDelay="4.82" arrival="125.00" arrivalLane="1369578054_1" arrivalPos="170.67" arrivalSpeed="16.28" duration="78.00" routeLength="279.87" waitingTime="39.00" waitingCount="1" stopTime="0.00" timeLoss="60.51" rerouteNo="0" devices="tripinfo_route_34.8" vType="car" speedFactor="1.01" vaporized=""/>
    <tripinfo id="route_34.13" depart="72.00" departLane="133126008#0_0" departPos="80.94" departSpeed="0.00" departDelay="18.46" arrival="125.00" arrivalLane="1369578054_1" arrivalPos="66.05" arrivalSpeed="14.48" duration="53.00" routeLength="198.47" waitingTime="17.00" waitingCount="1" stopTime="0.00" timeLoss="40.63" rerouteNo="0" devices="tripinfo_route_34.13" vType="car" speedFactor="1.07" vaporized=""/>
    <tripinfo id="route_34.10" depart="61.00" departLane="133126008#0_0" departPos="11.86" departSpeed="0.00" departDelay="14.28" arrival="126.00" arrivalLane="1369578054_1" arrivalPos="60.51" arrivalSpeed="14.28" duration="65.00" routeLength="262.01" waitingTime="17.00" waitingCount="1" stopTime="0.00" timeLoss="49.02" rerouteNo="0" devices="tripinfo_route_34.10" vType="car" speedFactor="1.18" vaporized=""/>
    <tripinfo id="route_30.3" depart="30.00" departLane="-422986370#2_0" departPos="94.02" departSpeed="0.00" departDelay="0.16" arrival="127.00" arrivalLane="137415945#0_0" arrivalPos="8.17" arrivalSpeed="15.51" duration="97.00" routeLength="359.97" waitingTime="43.00" waitingCount="1" stopTime="0.00" timeLoss="74.38" rerouteNo="0" devices="tripinfo_route_30.3" vType="car" speedFactor="1.01" vaporized=""/>
    <tripinfo id="route_35.5" depart="40.00" departLane="133126008#0_0" departPos="65.41" departSpeed="0.00" departDelay="1.85" arrival="127.00" arrivalLane="133126030#0_0" arrivalPos="157.74" arrivalSpeed="15.95" duration="87.00" routeLength="279.84" waitingTime="39.00" waitingCount="1" stopTime="0.00" timeLoss="68.26" rerouteNo="0" devices="tripinfo_route_35.5" vType="car" speedFactor="0.98" vaporized=""/>
    <tripinfo id="route_29.12" depart="53.00" departLane="-422986370#2_0" departPos="74.71" departSpeed="0.00" departDelay="11.44" arrival="127.00" arrivalLane="-430406005#1_1" arrivalPos="83.19" arrivalSpeed="16.31" duration="74.00" routeLength="342.91" waitingTime="26.00" waitingCount="1" stopTime="0.00" timeLoss="52.99" rerouteNo="0" devices="tripinfo_route_29.12" vType="car" speedFactor="1.02" vaporized=""/>
    <tripinfo id="route_30.2" depart="28.00" departLane="-422986370#2_0" departPos="26.67" departSpeed="0.00" departDelay="0.10" arrival="129.00" arrivalLane="137415945#0_0" arrivalPos="3.36" arrivalSpeed="15.51" duration="101.00" routeLength="422.51" waitingTime="42.00" waitingCount="1" stopTime="0.00" timeLoss="74.30" rerouteNo="0" devices="tripinfo_route_30.2" vType="car" speedFactor="1.01" vaporized=""/>
    <tripinfo id="route_35.4" depart="37.00" departLane="133126008#0_0" departPos="2.61" departSpeed="0.00" departDelay="1.68" arrival="130.00" arrivalLane="133126030#0_0" arrivalPos="167.58" arrivalSpeed="15.16" duration="93.00" routeLength="352.49" waitingTime="39.00" waitingCount="1" stopTime="0.00" timeLoss="69.58" rerouteNo="0" devices="tripinfo_route_35.4" vType="car" speedFactor="0.94" vaporized=""/>
    <tripinfo id="route_35.7" depart="55.00" departLane="133126008#0_0" departPos="75.47" departSpeed="0.00" departDelay="11.19" arrival="130.00" arrivalLane="133126030#0_0" arrivalPos="112.02" arrivalSpeed="14.37" duration="75.00" routeLength="224.07" waitingTime="30.00" waitingCount="1" stopTime="0.00" timeLoss="60.39" rerouteNo="0" devices="tripinfo_route_35.7" vType="car" speedFactor="0.95" vaporized=""/>
    <tripinfo id="route_34.15" depart="91.00" departLane="133126008#0_0" departPos="30.67" departSpeed="0.00" departDelay="32.92" arrival="130.00" arrivalLane="1369578054_1" arrivalPos="41.87" arrivalSpeed="13.74" duration="39.00" routeLength="224.56" waitingTime="1.00" waitingCount="1" stopTime="0.00" timeLoss="24.88" rerouteNo="0" devices="tripinfo_route_34.15" vType="car" speedFactor="0.92" vaporized=""/>
    <tripinfo id="route_29.13" depart="58.00" departLane="-422986370#2_0" departPos="170.80" departSpeed="0.00" departDelay="14.98" arrival="131.00" arrivalLane="-430406005#1_0" arrivalPos="76.84" arrivalSpeed="13.49" duration="73.00" routeLength="240.47" waitingTime="30.00" waitingCount="1" stopTime="0.00" timeLoss="58.48" rerouteNo="0" devices="tripinfo_route_29.13" vType="car" speedFactor="1.06" vaporized=""/>
    <tripinfo id="route_35.8" depart="61.00" departLane="133126008#0_0" departPos="52.70" departSpeed="0.00" departDelay="14.36" arrival="131.00" arrivalLane="133126030#0_0" arrivalPos="63.54" arrivalSpeed="11.67" duration="70.00" routeLength="198.36" waitingTime="29.00" waitingCount="1" stopTime="0.00" timeLoss="57.24" rerouteNo="0" devices="tripinfo_route_35.8" vType="car" speedFactor="1.00" vaporized=""/>
    <tripinfo id="route_30.11" depart="65.00" departLane="-422986370#2_0" departPos="219.69" departSpeed="0.00" departDelay="19.57" arrival="133.00" arrivalLane="137415945#0_0" arrivalPos="10.54" arrivalSpeed="14.37" duration="68.00" routeLength="236.67" waitingTime="31.00" waitingCount="1" stopTime="0.00" timeLoss="50.54" rerouteNo="0" devices="tripinfo_route_30.11" vType="car" speedFactor="0.87" vaporized=""/>
    <tripinfo id="route_29.14" depart="58.00" departLane="-422986370#2_0" departPos="35.73" departSpeed="0.00" departDelay="13.52" arrival="134.00" arrivalLane="-430406005#1_1" arrivalPos="168.24" arrivalSpeed="16.45" duration="76.00" routeLength="466.94" waitingTime="20.00" waitingCount="1" stopTime="0.00" timeLoss="47.46" rerouteNo="0" devices="tripinfo_route_29.14" vType="car" speedFactor="1.07" vaporized=""/>
    <tripinfo id="route_29.15" depart="65.00" departLane="-422986370#2_0" departPos="101.50" departSpeed="0.00" departDelay="19.06" arrival="134.00" arrivalLane="-430406005#1_1" arrivalPos="135.91" arrivalSpeed="16.12" duration="69.00" routeLength="368.84" waitingTime="15.00" waitingCount="1" stopTime="0.00" timeLoss="45.08" rerouteNo="0" devices="tripinfo_route_29.15" vType="car" speedFactor="0.93" vaporized=""/>
    <tripinfo id="route_30.6" depart="41.00" departLane="-422986370#2_0" departPos="58.51" departSpeed="0.00" departDelay="5.31" arrival="137.00" arrivalLane="137415945#0_0" arrivalPos="4.97" arrivalSpeed="15.39" duration="96.00" routeLength="392.28" waitingTime="31.00" waitingCount="1" stopTime="0.00" timeLoss="70.91" rerouteNo="0" devices="tripinfo_route_30.6" vType="car" speedFactor="0.97" vaporized=""/>
    <tripinfo id="route_29.18" depart="77.00" departLane="-422986370#2_0" departPos="168.69" departSpeed="0.00" departDelay="26.67" arrival="137.00" arrivalLane="-430406005#1_1" arrivalPos="165.34" arrivalSpeed="16.17" duration="60.00" routeLength="331.09" waitingTime="13.00" waitingCount="1" stopTime="0.00" timeLoss="39.64" rerouteNo="0" devices="tripinfo_route_29.18" vType="car" speedFactor="1.01" vaporized=""/>
    <tripinfo id="route_34.12" depart="66.00" departLane="133126008#0_0" departPos="114.23" departSpeed="0.00" departDelay="14.74" arrival="139.00" arrivalLane="1369578054_0" arrivalPos="291.98" arrivalSpeed="15.36" duration="73.00" routeLength="391.11" waitingTime="31.00" waitingCount="1" stopTime="0.00" timeLoss="48.14" rerouteNo="0" devices="tripinfo_route_34.12" vType="car" speedFactor="0.94" vaporized=""/>
    <tripinfo id="route_38.3" depart="38.00" departLane="485211947#0_0" departPos="0.16" departSpeed="0.00" departDelay="7.08" arrival="143.00" arrivalLane="-430406005#1_1" arrivalPos="32.26" arrivalSpeed="10.08" duration="105.00" routeLength="245.09" waitingTime="68.00" waitingCount="1" stopTime="0.00" timeLoss="87.31" rerouteNo="0" devices="tripinfo_route_38.3" vType="car" speedFactor="0.90" vaporized=""/>
    <tripinfo id="route_34.14" depart="80.00" departLane="133126008#0_0" departPos="38.59" departSpeed="0.00" departDelay="24.19" arrival="145.00" arrivalLane="1369578054_1" arrivalPos="264.11" arrivalSpeed="15.39" duration="65.00" routeLength="438.88" waitingTime="9.00" waitingCount="1" stopTime="0.00" timeLoss="37.89" rerouteNo="0" devices="tripinfo_route_34.14" vType="car" speedFactor="1.08" vaporized=""/>
    <tripinfo id="route_34.11" depart="65.00" departLane="133126008#0_0" departPos="35.44" departSpeed="0.00" departDelay="16.01" arrival="146.00" arrivalLane="1369578054_0" arrivalPos="298.02" arrivalSpeed="13.49" duration="81.00" routeLength="475.94" waitingTime="18.00" waitingCount="2" stopTime="0.00" timeLoss="47.78" rerouteNo="0" devices="tripinfo_route_34.11" vType="car" speedFactor="0.82" vaporized=""/>
    <tripinfo id="route_36.0" depart="24.00" departLane="485211947#0_0" departPos="11.17" departSpeed="0.00" departDelay="0.00" arrival="147.00" arrivalLane="1369578054_0" arrivalPos="74.16" arrivalSpeed="12.51" duration="123.00" routeLength="260.46" waitingTime="77.00" waitingCount="1" stopTime="0.00" timeLoss="104.27" rerouteNo="0" devices="tripinfo_route_36.0" vType="car" speedFactor="0.89" vaporized=""/>