<?xml version="1.0" encoding="UTF-8"?>

<!-- generated on 2025-05-04 22:11:25 by Eclipse SUMO sumo Version 1.20.0
<configuration xmlns:xsi="http://www.w3.org/2001/XMLSchema-instance" xsi:noNamespaceSchemaLocation="http://sumo.dlr.de/xsd/sumoConfiguration.xsd">

    <input>
        <net-file value="config/osm.net.xml"/>
        <route-files value="draft/generated_0_093_5_069_0_649_7_027_96_.rou.xml"/>
    </input>

    <output>
        <tripinfo-output value="draft/tripinfo_0_093_5_069_0_649_7_027_96.xml"/>
    </output>

    <time>
        <step-length value="1"/>
    </time>

    <traci_server>
        <remote-port value="57849"/>
    </traci_server>

    <gui_only>
        <start value="true"/>
    </gui_only>

</configuration>
-->

<tripinfos xmlns:xsi="http://www.w3.org/2001/XMLSchema-instance" xsi:noNamespaceSchemaLocation="http://sumo.dlr.de/xsd/tripinfo_file.xsd">
    <tripinfo id="route_29.1" depart="98.00" departLane="-422986370#2_0" departPos="265.89" departSpeed="0.00" departDelay="0.54" arrival="112.00" arrivalLane="-430406005#1_1" arrivalPos="8.25" arrivalSpeed="11.07" duration="14.00" routeLength="76.79" waitingTime="0.00" waitingCount="0" stopTime="0.00" timeLoss="8.83" rerouteNo="0" devices="tripinfo_route_29.1" vType="car" speedFactor="1.09" vaporized=""/>
    <tripinfo id="route_34.0" depart="96.00" departLane="133126008#0_0" departPos="101.07" departSpeed="0.00" departDelay="0.00" arrival="114.00" arrivalLane="1369578054_1" arrivalPos="13.07" arrivalSpeed="13.82" duration="18.00" routeLength="125.36" waitingTime="0.00" waitingCount="0" stopTime="0.00" timeLoss="9.69" rerouteNo="0" devices="tripinfo_route_34.0" vType="car" speedFactor="0.83" vaporized=""/>
    <tripinfo id="route_29.4" depart="102.00" departLane="-422986370#2_0" departPos="297.23" departSpeed="0.00" departDelay="0.15" arrival="115.00" arrivalLane="-430406005#1_0" arrivalPos="32.75" arrivalSpeed="10.55" duration="13.00" routeLength="69.94" waitingTime="0.00" waitingCount="0" stopTime="0.00" timeLoss="8.55" rerouteNo="0" devices="tripinfo_route_29.4" vType="car" speedFactor="1.15" vaporized=""/>
    <tripinfo id="route_34.3" depart="107.00" departLane="133126008#0_0" departPos="127.31" departSpeed="0.00" departDelay="4.18" arrival="125.00" arrivalLane="1369578054_1" arrivalPos="25.77" arrivalSpeed="12.43" duration="18.00" routeLength="111.83" waitingTime="0.00" waitingCount="0" stopTime="0.00" timeLoss="11.17" rerouteNo="0" devices="tripinfo_route_34.3" vType="car" speedFactor="0.97" vaporized=""/>
    <tripinfo id="route_35.1" depart="100.00" departLane="133126008#0_0" departPos="144.87" departSpeed="0.00" departDelay="1.17" arrival="126.00" arrivalLane="133126030#0_0" arrivalPos="141.65" arrivalSpeed="15.31" duration="26.00" routeLength="184.30" waitingTime="0.00" waitingCount="0" stopTime="0.00" timeLoss="12.89" rerouteNo="0" devices="tripinfo_route_35.1" vType="car" speedFactor="0.94" vaporized=""/>
    <tripinfo id="route_34.5" depart="109.00" departLane="133126008#0_0" departPos="146.55" departSpeed="0.00" departDelay="1.64" arrival="127.00" arrivalLane="1369578054_0" arrivalPos="46.01" arrivalSpeed="13.86" duration="18.00" routeLength="112.82" waitingTime="0.00" waitingCount="0" stopTime="0.00" timeLoss="10.35" rerouteNo="0" devices="tripinfo_route_34.5" vType="car" speedFactor="0.99" vaporized=""/>
    <tripinfo id="route_29.2" depart="99.00" departLane="-422986370#2_0" departPos="99.24" departSpeed="0.00" departDelay="0.07" arrival="128.00" arrivalLane="-430406005#1_1" arrivalPos="42.28" arrivalSpeed="16.14" duration="29.00" routeLength="277.46" waitingTime="0.00" waitingCount="0" stopTime="0.00" timeLoss="10.79" rerouteNo="0" devices="tripinfo_route_29.2" vType="car" speedFactor="0.93" vaporized=""/>
    <tripinfo id="route_35.2" depart="105.00" departLane="133126008#0_0" departPos="111.59" departSpeed="0.00" departDelay="3.34" arrival="128.00" arrivalLane="133126030#0_0" arrivalPos="51.67" arrivalSpeed="10.66" duration="23.00" routeLength="127.60" waitingTime="0.00" waitingCount="0" stopTime="0.00" timeLoss="14.52" rerouteNo="0" devices="tripinfo_route_35.2" vType="car" speedFactor="1.02" vaporized=""/>
    <tripinfo id="route_30.0" depart="96.00" departLane="-422986370#2_0" departPos="201.60" departSpeed="0.00" departDelay="0.00" arrival="129.00" arrivalLane="137415945#0_0" arrivalPos="9.07" arrivalSpeed="15.19" duration="33.00" routeLength="253.29" waitingTime="0.00" waitingCount="0" stopTime="0.00" timeLoss="15.00" rerouteNo="0" devices="tripinfo_route_30.0" vType="car" speedFactor="0.94" vaporized=""/>
    <tripinfo id="route_34.2" depart="102.00" departLane="133126008#0_0" departPos="165.65" departSpeed="0.00" departDelay="1.46" arrival="130.00" arrivalLane="1369578054_0" arrivalPos="207.23" arrivalSpeed="15.47" duration="28.00" routeLength="254.95" waitingTime="0.00" waitingCount="0" stopTime="0.00" timeLoss="11.23" rerouteNo="0" devices="tripinfo_route_34.2" vType="car" speedFactor="0.95" vaporized=""/>
    <tripinfo id="route_29.3" depart="101.00" departLane="-422986370#2_0" departPos="173.76" departSpeed="0.00" departDelay="0.61" arrival="131.00" arrivalLane="-430406005#1_1" arrivalPos="127.79" arrivalSpeed="16.13" duration="30.00" routeLength="288.46" waitingTime="0.00" waitingCount="0" stopTime="0.00" timeLoss="11.41" rerouteNo="0" devices="tripinfo_route_29.3" vType="car" speedFactor="0.87" vaporized=""/>
    <tripinfo id="route_34.1" depart="99.00" departLane="133126008#0_0" departPos="23.09" departSpeed="0.00" departDelay="0.73" arrival="132.00" arrivalLane="1369578054_1" arrivalPos="90.42" arrivalSpeed="15.36" duration="33.00" routeLength="280.69" waitingTime="0.00" waitingCount="0" stopTime="0.00" timeLoss="14.81" rerouteNo="0" devices="tripinfo_route_34.1" vType="car" speedFactor="0.94" vaporized=""/>
    <tripinfo id="route_35.0" depart="96.00" departLane="133126008#0_0" departPos="47.21" departSpeed="0.00" departDelay="0.00" arrival="138.00" arrivalLane="133126030#0_0" arrivalPos="137.72" arrivalSpeed="15.25" duration="42.00" routeLength="278.03" waitingTime="0.00" waitingCount="0" stopTime="0.00" timeLoss="23.41" rerouteNo="0" devices="tripinfo_route_35.0" vType="car" speedFactor="1.05" vaporized=""/>
    <tripinfo id="route_38.2" depart="105.00" departLane="485211947#0_0" departPos="162.23" departSpeed="0.00" departDelay="4.39" arrival="145.00" arrivalLane="-430406005#1_1" arrivalPos="54.97" arrivalSpeed="11.67" duration="40.00" routeLength="105.72" waitingTime="17.00" waitingCount="1" stopTime="0.00" timeLoss="32.89" rerouteNo="0" devices="tripinfo_route_38.2" vType="car" speedFactor="1.18" vaporized=""/>
    <tripinfo id="route_38.3" depart="114.00" departLane="485211947#0_0" departPos="35.30" departSpeed="0.00" departDelay="11.08" arrival="147.00" arrivalLane="-430406005#1_1" arrivalPos="32.26" arrivalSpeed="10.79" duration="33.00" routeLength="209.94" waitingTime="0.00" waitingCount="0" stopTime="0.00" timeLoss="18.04" rerouteNo="0" devices="tripinfo_route_38.3" vType="car" speedFactor="0.90" vaporized=""/>
    <tripinfo id="route_36.0" depart="96.00" departLane="485211947#0_0" departPos="11.17" departSpeed="0.00" departDelay="0.00" arrival="149.00" arrivalLane="1369578054_0" arrivalPos="74.16" arrivalSpeed="12.36" duration="53.00" routeLength="260.46" waitingTime="9.00" waitingCount="1" stopTime="0.00" timeLoss="34.15" rerouteNo="0" devices="tripinfo_route_36.0" vType="car" speedFactor="0.89" vaporized=""/>
    <tripinfo id="route_37.0" depart="96.00" departLane="485211947#0_0" departPos="162.24" departSpeed="0.00" departDelay="0.00" arrival="149.00" arrivalLane="137415945#0_0" arrivalPos="6.94" arrivalSpeed="15.27" duration="53.00" routeLength="189.23" waitingTime="23.00" waitingCount="1" stopTime="0.00" timeLoss="40.81" rerouteNo="0" devices="tripinfo_route_37.0" vType="car" speedFactor="0.94" vaporized=""/>
    <tripinfo id="route_37.1" depart="99.00" departLane="485211947#0_0" departPos="76.22" departSpeed="0.00" departDelay="0.96" arrival="149.00" arrivalLane="137415945#0_1" arrivalPos="2.03" arrivalSpeed="15.42" duration="50.00" routeLength="270.34" waitingTime="10.00" waitingCount="1" stopTime="0.00" timeLoss="33.45" rerouteNo="0" devices="tripinfo_route_37.1" vType="car" speedFactor="1.16" vaporized=""/>
    <tripinfo id="route_38.1" depart="99.00" departLane="485211947#0_0" departPos="178.72" departSpeed="0.00" departDelay="0.69" arrival="151.00" arrivalLane="-430406005#1_1" arrivalPos="170.84" arrivalSpeed="16.12" duration="52.00" routeLength="205.10" waitingTime="24.00" waitingCount="1" stopTime="0.00" timeLoss="38.75" rerouteNo="0" devices="tripinfo_route_38.1" vType="car" speedFactor="1.02" vaporized=""/>
    <tripinfo id="route_38.0" depart="96.00" departLane="485211947#0_0" departPos="59.66" departSpeed="0.00" departDelay="0.00" arrival="152.00" arrivalLane="-430406005#1_1" arrivalPos="133.07" arrivalSpeed="15.75" duration="56.00" routeLength="286.39" waitingTime="16.00" waitingCount="1" stopTime="0.00" timeLoss="36.00" rerouteNo="0" devices="tripinfo_route_38.0" vType="car" speedFactor="0.86" vaporized=""/>
    <tripinfo id="route_37.2" depart="104.00" departLane="485211947#0_0" departPos="72.22" departSpeed="0.00" departDelay="3.92" arrival="152.00" arrivalLane="137415945#0_1" arrivalPos="12.22" arrivalSpeed="15.30" duration="48.00" routeLength="284.53" waitingTime="8.00" waitingCount="1" stopTime="0.00" timeLoss="29.00" rerouteNo="0" devices="tripinfo_route_37.2" vType="car" speedFactor="0.93" vaporized=""/>
    <tripinfo id="route_36.2" depart="100.00" departLane="485211947#0_0" departPos="123.80" departSpeed="0.00" departDelay="0.67" arrival="153.00" arrivalLane="1369578054_0" arrivalPos="171.28" arrivalSpeed="13.72" duration="53.00" routeLength="244.94" waitingTime="16.00" waitingCount="1" stopTime="0.00" timeLoss="33.59" rerouteNo="0" devices="tripinfo_route_36.2" vType="car" speedFactor="0.83" vaporized=""/>
    <tripinfo id="route_37.3" depart="111.00" departLane="485211947#0_0" departPos="21.19" departSpeed="0.00" departDelay="8.88" arrival="153.00" arrivalLane="137415945#0_1" arrivalPos="2.64" arrivalSpeed="16.32" duration="42.00" routeLength="325.98" waitingTime="0.00" waitingCount="0" stopTime="0.00" timeLoss="21.83" rerouteNo="0" devices="tripinfo_route_37.3" vType="car" speedFactor="1.10" vaporized=""/>
    <tripinfo id="route_37.4" depart="119.00" departLane="485211947#0_0" departPos="9.07" departSpeed="0.00" departDelay="14.84" arrival="155.00" arrivalLane="137415945#0_1" arrivalPos="0.30" arrivalSpeed="14.35" duration="36.00" routeLength="335.76" waitingTime="0.00" waitingCount="0" stopTime="0.00" timeLoss="12.07" rerouteNo="0" devices="tripinfo_route_37.4" vType="car" speedFactor="0.88" vaporized=""/>
    <tripinfo id="route_36.4" depart="108.00" departLane="485211947#0_0" departPos="51.38" departSpeed="0.00" departDelay="5.34" arrival="157.00" arrivalLane="1369578054_0" arrivalPos="169.94" arrivalSpeed="16.39" duration="49.00" routeLength="316.02" waitingTime="5.00" waitingCount="1" stopTime="0.00" timeLoss="29.25" rerouteNo="0" devices="tripinfo_route_36.4" vType="car" speedFactor="1.18" vaporized=""/>
    <tripinfo id="route_37.5" depart="128.00" departLane="485211947#0_0" departPos="37.56" departSpeed="0.00" departDelay="21.80" arrival="158.00" arrivalLane="137415945#0_1" arrivalPos="9.07" arrivalSpeed="16.19" duration="30.00" routeLength="316.03" waitingTime="0.00" waitingCount="0" stopTime="0.00" timeLoss="10.62" rerouteNo="0" devices="tripinfo_route_37.5" vType="car" speedFactor="1.14" vaporized=""/>
    <tripinfo id="route_36.1" depart="98.00" departLane="485211947#0_0" departPos="100.86" departSpeed="0.00" departDelay="0.33" arrival="161.00" arrivalLane="1369578054_1" arrivalPos="281.37" arrivalSpeed="16.26" duration="63.00" routeLength="377.98" waitingTime="16.00" waitingCount="1" stopTime="0.00" timeLoss="38.92" rerouteNo="0" devices="tripinfo_route_36.1" vType="car" speedFactor="0.99" vaporized=""/>
    <tripinfo id="route_36.7" depart="130.00" departLane="485211947#0_0" departPos="95.85" departSpeed="0.00" departDelay="22.34" arrival="161.00" arrivalLane="1369578054_0" arrivalPos="103.24" arrivalSpeed="14.34" duration="31.00" routeLength="204.85" waitingTime="0.00" waitingCount="0" stopTime="0.00" timeLoss="15.26" rerouteNo="0" devices="tripinfo_route_36.7" vType="car" speedFactor="0.88" vaporized=""/>
    <tripinfo id="route_38.4" depart="126.00" departLane="485211947#0_0" departPos="46.22" departSpeed="0.00" departDelay="20.77" arrival="163.00" arrivalLane="-430406005#1_1" arrivalPos="124.92" arrivalSpeed="16.19" duration="37.00" routeLength="291.69" waitingTime="0.00" waitingCount="0" stopTime="0.00" timeLoss="18.20" rerouteNo="0" devices="tripinfo_route_38.4" vType="car" speedFactor="1.00" vaporized=""/>
    <tripinfo id="route_37.6" depart="137.00" departLane="485211947#0_0" departPos="90.38" departSpeed="0.00" departDelay="28.76" arrival="164.00" arrivalLane="137415945#0_0" arrivalPos="7.30" arrivalSpeed="15.06" duration="27.00" routeLength="261.45" waitingTime="0.00" waitingCount="0" stopTime="0.00" timeLoss="9.38" rerouteNo="0" devices="tripinfo_route_37.6" vType="car" speedFactor="0.91" vaporized=""/>
    <tripinfo id="route_36.6" depart="126.00" departLane="485211947#0_0" departPos="11.69" departSpeed="0.00" departDelay="20.00" arrival="165.00" arrivalLane="1369578054_0" arrivalPos="102.74" arrivalSpeed="14.67" duration="39.00" routeLength="288.51" waitingTime="0.00" waitingCount="0" stopTime="0.00" timeLoss="20.89" rerouteNo="0" devices="tripinfo_route_36.6" vType="car" speedFactor="1.00" vaporized=""/>
    <tripinfo id="route_36.3" depart="102.00" departLane="485211947#0_0" departPos="12.41" departSpeed="0.00" departDelay="1.00" arrival="166.00" arrivalLane="1369578054_0" arrivalPos="280.18" arrivalSpeed="16.40" duration="64.00" routeLength="465.23" waitingTime="4.00" waitingCount="1" stopTime="0.00" timeLoss="34.58" rerouteNo="0" devices="tripinfo_route_36.3" vType="car" speedFactor="1.13" vaporized=""/>
    <tripinfo id="route_38.7" depart="148.00" departLane="485211947#0_0" departPos="168.92" departSpeed="0.00" departDelay="35.85" arrival="168.00" arrivalLane="-430406005#1_1" arrivalPos="103.50" arrivalSpeed="14.89" duration="20.00" routeLength="147.56" waitingTime="0.00" waitingCount="0" stopTime="0.00" timeLoss="9.99" rerouteNo="0" devices="tripinfo_route_38.7" vType="car" speedFactor="1.02" vaporized=""/>
    <tripinfo id="route_38.6" depart="138.00" departLane="485211947#0_0" departPos="4.37" departSpeed="0.00" departDelay="28.16" arrival="169.00" arrivalLane="-430406005#1_1" arrivalPos="29.91" arrivalSpeed="10.08" duration="31.00" routeLength="238.53" waitingTime="0.00" waitingCount="0" stopTime="0.00" timeLoss="14.89" rerouteNo="0" devices="tripinfo_route_38.6" vType="car" speedFactor="0.96" vaporized=""/>
    <tripinfo id="route_36.5" depart="114.00" departLane="485211947#0_0" departPos="44.18" departSpeed="0.00" departDelay="9.67" arrival="172.00" arrivalLane="1369578054_0" arrivalPos="292.70" arrivalSpeed="14.60" duration="58.00" routeLength="445.98" waitingTime="3.00" waitingCount="1" stopTime="0.00" timeLoss="26.45" rerouteNo="0" devices="tripinfo_route_36.5" vType="car" speedFactor="0.90" vaporized=""/>
    <tripinfo id="route_38.5" depart="133.00" departLane="485211947#0_0" departPos="15.29" departSpeed="0.00" departDelay="25.47" arrival="172.00" arrivalLane="-430406005#1_1" arrivalPos="118.46" arrivalSpeed="15.46" duration="39.00" routeLength="316.15" waitingTime="0.00" waitingCount="0" stopTime="0.00" timeLoss="17.04" rerouteNo="0" devices="tripinfo_route_38.5" vType="car" speedFactor="0.91" vaporized=""/>
    <tripinfo id="route_36.11" depart="149.00" departLane="485211947#0_0" departPos="10.06" departSpeed="0.00" departDelay="34.67" arrival="177.00" arrivalLane="1369578054_0" arrivalPos="25.34" arrivalSpeed="8.80" duration="28.00" routeLength="212.75" waitingTime="0.00" waitingCount="0" stopTime="0.00" timeLoss="13.38" rerouteNo="0" devices="tripinfo_route_36.11" vType="car" speedFactor="0.91" vaporized=""/>
    <tripinfo id="route_37.9" depart="151.00" departLane="485211947#0_0" departPos="129.81" departSpeed="0.00" departDelay="36.64" arrival="177.00" arrivalLane="137415945#0_1" arrivalPos="7.25" arrivalSpeed="16.15" duration="26.00" routeLength="221.98" waitingTime="0.00" waitingCount="0" stopTime="0.00" timeLoss="12.48" rerouteNo="0" devices="tripinfo_route_37.9" vType="car" speedFactor="1.12" vaporized=""/>
    <tripinfo id="route_37.7" depart="144.00" departLane="485211947#0_0" departPos="44.12" departSpeed="0.00" departDelay="33.72" arrival="179.00" arrivalLane="137415945#0_1" arrivalPos="11.57" arrivalSpeed="16.23" duration="35.00" routeLength="311.98" waitingTime="0.00" waitingCount="0" stopTime="0.00" timeLoss="16.04" rerouteNo="0" devices="tripinfo_route_37.7" vType="car" speedFactor="1.09" vaporized=""/>
    <tripinfo id="route_37.8" depart="147.00" departLane="485211947#0_0" departPos="62.08" departSpeed="0.00" departDelay="34.68" arrival="180.00" arrivalLane="137415945#0_1" arrivalPos="2.01" arrivalSpeed="16.10" duration="33.00" routeLength="284.46" waitingTime="0.00" waitingCount="0" stopTime="0.00" timeLoss="15.62" rerouteNo="0" devices="tripinfo_route_37.8" vType="car" speedFactor="1.01" vaporized=""/>
    <tripinfo id="route_36.9" depart="142.00" departLane="485211947#0_0" departPos="28.97" departSpeed="0.00" departDelay="31.01" arrival="184.00" arrivalLane="1369578054_0" arrivalPos="145.75" arrivalSpeed="16.44" duration="42.00" routeLength="314.24" waitingTime="0.00" waitingCount="0" stopTime="0.00" timeLoss="21.57" rerouteNo="0" devices="tripinfo_route_36.9" vType="car" speedFactor="1.01" vaporized=""/>
    <tripinfo id="route_36.12" depart="153.00" departLane="485211947#0_0" departPos="145.72" departSpeed="0.00" departDelay="37.01" arrival="184.00" arrivalLane="1369578054_0" arrivalPos="237.57" arrivalSpeed="14.80" duration="31.00" routeLength="289.31" waitingTime="0.00" waitingCount="0" stopTime="0.00" timeLoss="10.18" rerouteNo="0" devices="tripinfo_route_36.12" vType="car" speedFactor="0.89" vaporized=""/>
    <tripinfo id="route_31.0" depart="96.00" departLane="1235147073.116_0" departPos="7.14" departSpeed="0.00" departDelay="0.00" arrival="185.00" arrivalLane="133126030#0_0" arrivalPos="8.43" arrivalSpeed="6.73" duration="89.00" routeLength="175.81" waitingTime="59.00" waitingCount="1" stopTime="0.00" timeLoss="78.32" rerouteNo="0" devices="tripinfo_route_31.0" vType="car" speedFactor="1.01" vaporized=""/>
    <tripinfo id="route_36.10" depart="147.00" departLane="485211947#0_0" departPos="107.34" departSpeed="0.00" departDelay="34.34" arrival="185.00" arrivalLane="1369578054_1" arrivalPos="240.24" arrivalSpeed="16.53" duration="38.00" routeLength="330.35" waitingTime="0.00" waitingCount="0" stopTime="0.00" timeLoss="17.39" rerouteNo="0" devices="tripinfo_route_36.10" vType="car" speedFactor="1.04" vaporized=""/>
    <tripinfo id="route_32.1" depart="117.00" departLane="1235147073.116_0" departPos="3.53" departSpeed="0.00" departDelay="18.64" arrival="188.00" arrivalLane="-430406005#1_0" arrivalPos="5.79" arrivalSpeed="6.52" duration="71.00" routeLength="165.22" waitingTime="39.00" waitingCount="1" stopTime="0.00" timeLoss="58.84" rerouteNo="0" devices="tripinfo_route_32.1" vType="car" speedFactor="0.88" vaporized=""/>
    <tripinfo id="route_36.8" depart="137.00" departLane="485211947#0_0" departPos="42.92" departSpeed="0.00" departDelay="27.67" arrival="189.00" arrivalLane="1369578054_0" arrivalPos="270.68" arrivalSpeed="16.48" duration="52.00" routeLength="425.22" waitingTime="0.00" waitingCount="0" stopTime="0.00" timeLoss="25.13" rerouteNo="0" devices="tripinfo_route_36.8" vType="car" speedFactor="1.06" vaporized=""/>
    <tripinfo id="route_31.1" depart="108.00" departLane="1235147073.116_0" departPos="6.60" departSpeed="0.00" departDelay="10.03" arrival="190.00" arrivalLane="133126030#0_0" arrivalPos="56.90" arrivalSpeed="11.70" duration="82.00" routeLength="224.82" waitingTime="47.00" waitingCount="1" stopTime="0.00" timeLoss="67.77" rerouteNo="0" devices="tripinfo_route_31.1" vType="car" speedFactor="1.05" vaporized=""/>
    <tripinfo id="route_31.2" depart="121.00" departLane="1235147073.116_0" departPos="2.35" departSpeed="0.00" departDelay="21.05" arrival="190.00" arrivalLane="133126030#0_1" arrivalPos="41.34" arrivalSpeed="9.99" duration="69.00" routeLength="213.51" waitingTime="34.00" waitingCount="2" stopTime="0.00" timeLoss="55.61" rerouteNo="0" devices="tripinfo_route_31.2" vType="car" speedFactor="0.97" vaporized=""/>
    <tripinfo id="route_31.3" depart="131.00" departLane="1235147073.116_0" departPos="1.83" departSpeed="0.00" departDelay="29.08" arrival="191.00" arrivalLane="133126030#0_1" arrivalPos="28.13" arrivalSpeed="10.79" duration="60.00" routeLength="200.83" waitingTime="26.00" waitingCount="1" stopTime="0.00" timeLoss="47.33" rerouteNo="0" devices="tripinfo_route_31.3" vType="car" speedFactor="1.17" vaporized=""/>
    <tripinfo id="route_33.3" depart="136.00" departLane="1235147073.116_0" departPos="1.26" departSpeed="0.00" departDelay="34.31" arrival="191.00" arrivalLane="1369578054_1" arrivalPos="8.34" arrivalSpeed="9.17" duration="55.00" routeLength="186.81" waitingTime="22.00" waitingCount="1" stopTime="0.00" timeLoss="42.75" rerouteNo="0" devices="tripinfo_route_33.3" vType="car" speedFactor="0.99" vaporized=""/>
    <tripinfo id="route_33.2" depart="126.00" departLane="1235147073.116_0" departPos="2.20" departSpeed="0.00" departDelay="26.20" arrival="193.00" arrivalLane="1369578054_1" arrivalPos="50.33" arrivalSpeed="11.47" duration="67.00" routeLength="227.85" waitingTime="30.00" waitingCount="1" stopTime="0.00" timeLoss="50.51" rerouteNo="0" devices="tripinfo_route_33.2" vType="car" speedFactor="0.89" vaporized=""/>
    <tripinfo id="route_32.0" depart="99.00" departLane="1235147073.116_0" departPos="0.46" departSpeed="0.00" departDelay="3.00" arrival="194.00" arrivalLane="-430406005#1_0" arrivalPos="87.77" arrivalSpeed="13.21" duration="95.00" routeLength="250.27" waitingTime="56.00" waitingCount="1" stopTime="0.00" timeLoss="78.52" rerouteNo="0" devices="tripinfo_route_32.0" vType="car" speedFactor="1.08" vaporized=""/>
    <tripinfo id="route_31.4" depart="139.00" departLane="1235147073.116_0" departPos="9.80" departSpeed="0.00" departDelay="35.11" arrival="194.00" arrivalLane="133126030#0_1" arrivalPos="39.35" arrivalSpeed="12.14" duration="55.00" routeLength="204.07" waitingTime="20.00" waitingCount="1" stopTime="0.00" timeLoss="42.10" rerouteNo="0" devices="tripinfo_route_31.4" vType="car" speedFactor="1.09" vaporized=""/>
    <tripinfo id="route_33.0" depart="105.00" departLane="1235147073.116_0" departPos="4.63" departSpeed="0.00" departDelay="9.00" arrival="198.00" arrivalLane="1369578054_1" arrivalPos="176.77" arrivalSpeed="16.52" duration="93.00" routeLength="351.87" waitingTime="49.00" waitingCount="1" stopTime="0.00" timeLoss="70.38" rerouteNo="0" devices="tripinfo_route_33.0" vType="car" speedFactor="1.03" vaporized=""/>
    <tripinfo id="route_32.2" depart="130.00" departLane="1235147073.116_0" departPos="15.16" departSpeed="0.00" departDelay="29.28" arrival="200.00" arrivalLane="-430406005#1_0" arrivalPos="106.48" arrivalSpeed="14.68" duration="70.00" routeLength="254.28" waitingTime="30.00" waitingCount="1" stopTime="0.00" timeLoss="52.35" rerouteNo="0" devices="tripinfo_route_32.2" vType="car" speedFactor="0.92" vaporized=""/>
    <tripinfo id="route_33.1" depart="113.00" departLane="1235147073.116_0" departPos="1.98" departSpeed="0.00" departDelay="15.10" arrival="201.00" arrivalLane="1369578054_1" arrivalPos="189.81" arrivalSpeed="16.26" duration="88.00" routeLength="367.56" waitingTime="42.00" waitingCount="1" stopTime="0.00" timeLoss="64.41" rerouteNo="0" devices="tripinfo_route_33.1" vType="car" speedFactor="1.12" vaporized=""/>
    <tripinfo id="route_31.5" depart="148.00" departLane="1235147073.116_0" departPos="6.17" departSpeed="0.00" departDelay="42.14" arrival="201.00" arrivalLane="133126030#0_1" arrivalPos="106.29" arrivalSpeed="13.81" duration="53.00" routeLength="274.64" waitingTime="12.00" waitingCount="1" stopTime="0.00" timeLoss="33.20" rerouteNo="0" devices="tripinfo_route_31.5" vType="car" speedFactor="0.85" vaporized=""/>
    <tripinfo id="route_32.3" depart="140.00" departLane="1235147073.116_0" departPos="1.96" departSpeed="0.00" departDelay="36.91" arrival="202.00" arrivalLane="-430406005#1_0" arrivalPos="121.21" arrivalSpeed="15.31" duration="62.00" routeLength="282.20" waitingTime="19.00" waitingCount="1" stopTime="0.00" timeLoss="43.85" rerouteNo="0" devices="tripinfo_route_32.3" vType="car" speedFactor="1.04" vaporized=""/>
    <tripinfo id="route_33.5" depart="157.00" departLane="1235147073.116_0" departPos="2.02" departSpeed="0.00" departDelay="51.51" arrival="202.00" arrivalLane="1369578054_1" arrivalPos="88.79" arrivalSpeed="15.08" duration="45.00" routeLength="266.50" waitingTime="5.00" waitingCount="1" stopTime="0.00" timeLoss="27.48" rerouteNo="0" devices="tripinfo_route_33.5" vType="car" speedFactor="1.02" vaporized=""/>
    <tripinfo id="route_33.4" depart="145.00" departLane="1235147073.116_0" departPos="4.13" departSpeed="0.00" departDelay="41.41" arrival="203.00" arrivalLane="1369578054_1" arrivalPos="126.81" arrivalSpeed="16.41" duration="58.00" routeLength="302.41" waitingTime="14.00" waitingCount="1" stopTime="0.00" timeLoss="38.27" rerouteNo="0" devices="tripinfo_route_33.4" vType="car" speedFactor="1.04" vaporized=""/>
    <tripinfo id="route_31.6" depart="160.00" departLane="1235147073.116_0" departPos="7.35" departSpeed="0.00" departDelay="52.16" arrival="204.00" arrivalLane="133126030#0_1" arrivalPos="125.13" arrivalSpeed="16.27" duration="44.00" routeLength="292.30" waitingTime="2.00" waitingCount="1" stopTime="0.00" timeLoss="25.60" rerouteNo="0" devices="tripinfo_route_31.6" vType="car" speedFactor="1.08" vaporized=""/>
    <tripinfo id="route_32.4" depart="153.00" departLane="1235147073.116_0" departPos="4.12" departSpeed="0.00" departDelay="47.55" arrival="207.00" arrivalLane="-430406005#1_0" arrivalPos="173.50" arrivalSpeed="16.44" duration="54.00" routeLength="332.33" waitingTime="9.00" waitingCount="1" stopTime="0.00" timeLoss="33.06" rerouteNo="0" devices="tripinfo_route_32.4" vType="car" speedFactor="1.17" vaporized=""/>
    <tripinfo id="route_32.5" depart="164.00" departLane="1235147073.116_0" departPos="6.85" departSpeed="0.00" departDelay="56.19" arrival="209.00" arrivalLane="-430406005#1_0" arrivalPos="174.70" arrivalSpeed="16.21" duration="45.00" routeLength="330.81" waitingTime="0.00" waitingCount="0" stopTime="0.00" timeLoss="24.53" rerouteNo="0" devices="tripinfo_route_32.5" vType="car" speedFactor="1.12" vaporized=""/>
    <tripinfo id="route_31.7" depart="172.00" departLane="1235147073.116_0" departPos="13.12" departSpeed="0.00" departDelay="62.19" arrival="209.00" arrivalLane="133126030#0_1" arrivalPos="181.76" arrivalSpeed="16.34" duration="37.00" routeLength="343.16" waitingTime="0.00" waitingCount="0" stopTime="0.00" timeLoss="15.57" rerouteNo="0" devices="tripinfo_route_31.7" vType="car" speedFactor="1.02" vaporized=""/>
    <tripinfo id="route_32.6" depart="175.00" departLane="1235147073.116_0" departPos="2.96" departSpeed="0.00" departDelay="64.83" arrival="212.00" arrivalLane="-430406005#1_0" arrivalPos="164.06" arrivalSpeed="16.38" duration="37.00" routeLength="324.06" waitingTime="0.00" waitingCount="0" stopTime="0.00" timeLoss="15.65" rerouteNo="0" devices="tripinfo_route_32.6" vType="car" speedFactor="1.03" vaporized=""/>
    <tripinfo id="route_33.6" depart="169.00" departLane="1235147073.116_0" departPos="6.66" departSpeed="0.00" departDelay="61.61" arrival="214.00" arrivalLane="1369578054_1" arrivalPos="253.34" arrivalSpeed="16.40" duration="45.00" routeLength="426.42" waitingTime="0.00" waitingCount="0" stopTime="0.00" timeLoss="17.46" rerouteNo="0" devices="tripinfo_route_33.6" vType="car" speedFactor="1.02" vaporized=""/>
    <tripinfo id="route_32.7" depart="185.00" departLane="1235147073.116_0" departPos="6.20" departSpeed="0.00" departDelay="72.47" arrival="215.00" arrivalLane="-430406005#1_0" arrivalPos="79.40" arrivalSpeed="13.83" duration="30.00" routeLength="236.16" waitingTime="0.00" waitingCount="0" stopTime="0.00" timeLoss="14.27" rerouteNo="0" devices="tripinfo_route_32.7" vType="car" speedFactor="0.98" vaporized=""/>
    <tripinfo id="route_31.9" depart="190.00" departLane="1235147073.116_0" departPos="2.69" departSpeed="0.00" departDelay="76.24" arrival="215.00" arrivalLane="133126030#0_0" arrivalPos="46.42" arrivalSpeed="13.57" duration="25.00" routeLength="218.25" waitingTime="0.00" waitingCount="0" stopTime="0.00" timeLoss="8.94" rerouteNo="0" devices="tripinfo_route_31.9" vType="car" speedFactor="0.83" vaporized=""/>
    <tripinfo id="route_33.7" depart="173.00" departLane="1235147073.116_0" departPos="4.58" departSpeed="0.00" departDelay="63.71" arrival="219.00" arrivalLane="1369578054_1" arrivalPos="265.84" arrivalSpeed="16.14" duration="46.00" routeLength="441.00" waitingTime="0.00" waitingCount="0" stopTime="0.00" timeLoss="17.99" rerouteNo="0" devices="tripinfo_route_33.7" vType="car" speedFactor="0.97" vaporized=""/>
    <tripinfo id="route_31.8" depart="181.00" departLane="1235147073.116_0" departPos="1.87" departSpeed="0.00" departDelay="69.22" arrival="219.00" arrivalLane="133126030#0_1" arrivalPos="173.46" arrivalSpeed="16.32" duration="38.00" routeLength="346.12" waitingTime="0.00" waitingCount="0" stopTime="0.00" timeLoss="16.57" rerouteNo="0" devices="tripinfo_route_31.8" vType="car" speedFactor="1.00" vaporized=""/>