<?xml version="1.0" encoding="UTF-8"?>

<!-- generated on 2025-05-04 22:11:48 by Eclipse SUMO sumo Version 1.20.0
<configuration xmlns:xsi="http://www.w3.org/2001/XMLSchema-instance" xsi:noNamespaceSchemaLocation="http://sumo.dlr.de/xsd/sumoConfiguration.xsd">

    <input>
        <net-file value="config/osm.net.xml"/>
        <route-files value="draft/generated_0_093_5_069_0_649_7_027_123_.rou.xml"/>
    </input>

    <output>
        <tripinfo-output value="draft/tripinfo_0_093_5_069_0_649_7_027_123.xml"/>
    </output>

    <time>
        <step-length value="1"/>
    </time>

    <traci_server>
        <remote-port value="48647"/>
    </traci_server>

    <gui_only>
        <start value="true"/>
    </gui_only>

</configuration>
-->

<tripinfos xmlns:xsi="http://www.w3.org/2001/XMLSchema-instance" xsi:noNamespaceSchemaLocation="http://sumo.dlr.de/xsd/tripinfo_file.xsd">
    <tripinfo id="route_37.0" depart="123.00" departLane="485211947#0_0" departPos="162.24" departSpeed="0.00" departDelay="0.00" arrival="146.00" arrivalLane="137415945#0_0" arrivalPos="6.94" arrivalSpeed="15.59" duration="23.00" routeLength="189.23" waitingTime="0.00" waitingCount="0" stopTime="0.00" timeLoss="10.52" rerouteNo="0" devices="tripinfo_route_37.0" vType="car" speedFactor="0.94" vaporized=""/>
    <tripinfo id="route_38.2" depart="132.00" departLane="485211947#0_0" departPos="162.23" departSpeed="0.00" departDelay="4.39" arrival="149.00" arrivalLane="-430406005#1_1" arrivalPos="54.97" arrivalSpeed="12.57" duration="17.00" routeLength="105.72" waitingTime="0.00" waitingCount="0" stopTime="0.00" timeLoss="9.51" rerouteNo="0" devices="tripinfo_route_38.2" vType="car" speedFactor="1.18" vaporized=""/>
    <tripinfo id="route_38.1" depart="126.00" departLane="485211947#0_0" departPos="178.72" departSpeed="0.00" departDelay="0.69" arrival="150.00" arrivalLane="-430406005#1_1" arrivalPos="170.84" arrivalSpeed="16.29" duration="24.00" routeLength="205.10" waitingTime="0.00" waitingCount="0" stopTime="0.00" timeLoss="10.64" rerouteNo="0" devices="tripinfo_route_38.1" vType="car" speedFactor="1.02" vaporized=""/>
    <tripinfo id="route_37.1" depart="126.00" departLane="485211947#0_0" departPos="76.22" departSpeed="0.00" departDelay="0.96" arrival="154.00" arrivalLane="137415945#0_1" arrivalPos="2.03" arrivalSpeed="16.57" duration="28.00" routeLength="270.34" waitingTime="0.00" waitingCount="0" stopTime="0.00" timeLoss="11.13" rerouteNo="0" devices="tripinfo_route_37.1" vType="car" speedFactor="1.16" vaporized=""/>
    <tripinfo id="route_38.0" depart="123.00" departLane="485211947#0_0" departPos="59.66" departSpeed="0.00" departDelay="0.00" arrival="157.00" arrivalLane="-430406005#1_1" arrivalPos="133.07" arrivalSpeed="16.32" duration="34.00" routeLength="286.39" waitingTime="0.00" waitingCount="0" stopTime="0.00" timeLoss="13.73" rerouteNo="0" devices="tripinfo_route_38.0" vType="car" speedFactor="0.86" vaporized=""/>
    <tripinfo id="route_36.2" depart="127.00" departLane="485211947#0_0" departPos="123.80" departSpeed="0.00" departDelay="0.67" arrival="158.00" arrivalLane="1369578054_0" arrivalPos="171.28" arrivalSpeed="13.29" duration="31.00" routeLength="244.94" waitingTime="0.00" waitingCount="0" stopTime="0.00" timeLoss="11.84" rerouteNo="0" devices="tripinfo_route_36.2" vType="car" speedFactor="0.83" vaporized=""/>
    <tripinfo id="route_37.2" depart="131.00" departLane="485211947#0_0" departPos="72.22" departSpeed="0.00" departDelay="3.92" arrival="161.00" arrivalLane="137415945#0_1" arrivalPos="12.22" arrivalSpeed="15.30" duration="30.00" routeLength="284.53" waitingTime="0.00" waitingCount="0" stopTime="0.00" timeLoss="11.20" rerouteNo="0" devices="tripinfo_route_37.2" vType="car" speedFactor="0.93" vaporized=""/>
    <tripinfo id="route_36.0" depart="123.00" departLane="485211947#0_0" departPos="11.17" departSpeed="0.00" departDelay="0.00" arrival="162.00" arrivalLane="1369578054_0" arrivalPos="74.16" arrivalSpeed="13.19" duration="39.00" routeLength="260.46" waitingTime="0.00" waitingCount="0" stopTime="0.00" timeLoss="19.55" rerouteNo="0" devices="tripinfo_route_36.0" vType="car" speedFactor="0.89" vaporized=""/>
    <tripinfo id="route_36.1" depart="125.00" departLane="485211947#0_0" departPos="100.86" departSpeed="0.00" departDelay="0.33" arrival="166.00" arrivalLane="1369578054_1" arrivalPos="281.37" arrivalSpeed="16.19" duration="41.00" routeLength="377.98" waitingTime="0.00" waitingCount="0" stopTime="0.00" timeLoss="16.98" rerouteNo="0" devices="tripinfo_route_36.1" vType="car" speedFactor="0.99" vaporized=""/>
    <tripinfo id="route_37.3" depart="137.00" departLane="485211947#0_0" departPos="62.79" departSpeed="0.00" departDelay="7.88" arrival="166.00" arrivalLane="137415945#0_1" arrivalPos="2.64" arrivalSpeed="16.25" duration="29.00" routeLength="284.38" waitingTime="0.00" waitingCount="0" stopTime="0.00" timeLoss="11.41" rerouteNo="0" devices="tripinfo_route_37.3" vType="car" speedFactor="1.10" vaporized=""/>
    <tripinfo id="route_38.3" depart="137.00" departLane="485211947#0_0" departPos="0.16" departSpeed="0.00" departDelay="7.08" arrival="168.00" arrivalLane="-430406005#1_1" arrivalPos="32.26" arrivalSpeed="9.89" duration="31.00" routeLength="245.09" waitingTime="0.00" waitingCount="0" stopTime="0.00" timeLoss="13.92" rerouteNo="0" devices="tripinfo_route_38.3" vType="car" speedFactor="0.90" vaporized=""/>
    <tripinfo id="route_36.7" depart="152.00" departLane="485211947#0_0" departPos="158.48" departSpeed="0.00" departDelay="17.34" arrival="173.00" arrivalLane="1369578054_0" arrivalPos="103.24" arrivalSpeed="13.75" duration="21.00" routeLength="142.22" waitingTime="0.00" waitingCount="0" stopTime="0.00" timeLoss="9.96" rerouteNo="0" devices="tripinfo_route_36.7" vType="car" speedFactor="0.88" vaporized=""/>
    <tripinfo id="route_36.5" depart="137.00" departLane="485211947#0_0" departPos="122.04" departSpeed="0.00" departDelay="5.67" arrival="174.00" arrivalLane="1369578054_0" arrivalPos="292.70" arrivalSpeed="14.70" duration="37.00" routeLength="368.12" waitingTime="0.00" waitingCount="0" stopTime="0.00" timeLoss="11.07" rerouteNo="0" devices="tripinfo_route_36.5" vType="car" speedFactor="0.90" vaporized=""/>
    <tripinfo id="route_37.4" depart="142.00" departLane="485211947#0_0" departPos="22.13" departSpeed="0.00" departDelay="10.84" arrival="175.00" arrivalLane="137415945#0_1" arrivalPos="0.30" arrivalSpeed="14.41" duration="33.00" routeLength="322.70" waitingTime="0.00" waitingCount="0" stopTime="0.00" timeLoss="10.15" rerouteNo="0" devices="tripinfo_route_37.4" vType="car" speedFactor="0.88" vaporized=""/>
    <tripinfo id="route_36.6" depart="143.00" departLane="485211947#0_0" departPos="97.89" departSpeed="0.00" departDelay="10.00" arrival="175.00" arrivalLane="1369578054_0" arrivalPos="102.74" arrivalSpeed="14.33" duration="32.00" routeLength="202.31" waitingTime="0.00" waitingCount="0" stopTime="0.00" timeLoss="18.20" rerouteNo="0" devices="tripinfo_route_36.6" vType="car" speedFactor="1.00" vaporized=""/>
    <tripinfo id="route_37.5" depart="147.00" departLane="485211947#0_0" departPos="54.37" departSpeed="0.00" departDelay="13.80" arrival="177.00" arrivalLane="137415945#0_1" arrivalPos="9.07" arrivalSpeed="16.30" duration="30.00" routeLength="299.22" waitingTime="0.00" waitingCount="0" stopTime="0.00" timeLoss="11.31" rerouteNo="0" devices="tripinfo_route_37.5" vType="car" speedFactor="1.14" vaporized=""/>
    <tripinfo id="route_38.4" depart="143.00" departLane="485211947#0_0" departPos="2.16" departSpeed="0.00" departDelay="10.77" arrival="180.00" arrivalLane="-430406005#1_1" arrivalPos="124.92" arrivalSpeed="15.62" duration="37.00" routeLength="335.74" waitingTime="0.00" waitingCount="0" stopTime="0.00" timeLoss="15.04" rerouteNo="0" devices="tripinfo_route_38.4" vType="car" speedFactor="1.00" vaporized=""/>
    <tripinfo id="route_36.4" depart="135.00" departLane="485211947#0_0" departPos="51.38" departSpeed="0.00" departDelay="5.34" arrival="181.00" arrivalLane="1369578054_0" arrivalPos="169.94" arrivalSpeed="16.37" duration="46.00" routeLength="316.02" waitingTime="0.00" waitingCount="0" stopTime="0.00" timeLoss="25.50" rerouteNo="0" devices="tripinfo_route_36.4" vType="car" speedFactor="1.18" vaporized=""/>
    <tripinfo id="route_31.0" depart="123.00" departLane="1235147073.116_0" departPos="7.14" departSpeed="0.00" departDelay="0.00" arrival="185.00" arrivalLane="133126030#0_0" arrivalPos="8.43" arrivalSpeed="7.24" duration="62.00" routeLength="175.81" waitingTime="31.00" waitingCount="1" stopTime="0.00" timeLoss="51.09" rerouteNo="0" devices="tripinfo_route_31.0" vType="car" speedFactor="1.01" vaporized=""/>
    <tripinfo id="route_32.1" depart="143.00" departLane="1235147073.116_0" departPos="15.04" departSpeed="0.00" departDelay="17.64" arrival="187.00" arrivalLane="-430406005#1_0" arrivalPos="5.79" arrivalSpeed="6.80" duration="44.00" routeLength="153.71" waitingTime="14.00" waitingCount="1" stopTime="0.00" timeLoss="32.61" rerouteNo="0" devices="tripinfo_route_32.1" vType="car" speedFactor="0.88" vaporized=""/>
    <tripinfo id="route_36.3" depart="129.00" departLane="485211947#0_0" departPos="12.41" departSpeed="0.00" departDelay="1.00" arrival="189.00" arrivalLane="1369578054_0" arrivalPos="280.18" arrivalSpeed="16.37" duration="60.00" routeLength="465.23" waitingTime="0.00" waitingCount="0" stopTime="0.00" timeLoss="31.04" rerouteNo="0" devices="tripinfo_route_36.3" vType="car" speedFactor="1.13" vaporized=""/>
    <tripinfo id="route_31.1" depart="135.00" departLane="1235147073.116_0" departPos="6.60" departSpeed="0.00" departDelay="10.03" arrival="190.00" arrivalLane="133126030#0_1" arrivalPos="56.90" arrivalSpeed="11.23" duration="55.00" routeLength="224.82" waitingTime="19.00" waitingCount="1" stopTime="0.00" timeLoss="41.16" rerouteNo="0" devices="tripinfo_route_31.1" vType="car" speedFactor="1.05" vaporized=""/>
    <tripinfo id="route_31.2" depart="143.00" departLane="1235147073.116_0" departPos="6.04" departSpeed="0.00" departDelay="16.05" arrival="190.00" arrivalLane="133126030#0_1" arrivalPos="41.34" arrivalSpeed="10.14" duration="47.00" routeLength="209.83" waitingTime="10.00" waitingCount="1" stopTime="0.00" timeLoss="34.09" rerouteNo="0" devices="tripinfo_route_31.2" vType="car" speedFactor="0.97" vaporized=""/>
    <tripinfo id="route_31.3" depart="154.00" departLane="1235147073.116_0" departPos="1.28" departSpeed="0.00" departDelay="25.08" arrival="192.00" arrivalLane="133126030#0_1" arrivalPos="28.13" arrivalSpeed="10.01" duration="38.00" routeLength="201.37" waitingTime="3.00" waitingCount="1" stopTime="0.00" timeLoss="25.59" rerouteNo="0" devices="tripinfo_route_31.3" vType="car" speedFactor="1.17" vaporized=""/>
    <tripinfo id="route_33.3" depart="160.00" departLane="1235147073.116_0" departPos="9.38" departSpeed="0.00" departDelay="31.31" arrival="192.00" arrivalLane="1369578054_1" arrivalPos="8.34" arrivalSpeed="9.10" duration="32.00" routeLength="178.69" waitingTime="0.00" waitingCount="0" stopTime="0.00" timeLoss="20.30" rerouteNo="0" devices="tripinfo_route_33.3" vType="car" speedFactor="0.99" vaporized=""/>
    <tripinfo id="route_32.0" depart="126.00" departLane="1235147073.116_0" departPos="0.46" departSpeed="0.00" departDelay="3.00" arrival="193.00" arrivalLane="-430406005#1_0" arrivalPos="87.77" arrivalSpeed="12.39" duration="67.00" routeLength="250.27" waitingTime="29.00" waitingCount="1" stopTime="0.00" timeLoss="51.13" rerouteNo="0" devices="tripinfo_route_32.0" vType="car" speedFactor="1.08" vaporized=""/>
    <tripinfo id="route_33.2" depart="145.00" departLane="1235147073.116_0" departPos="0.20" departSpeed="0.00" departDelay="18.20" arrival="194.00" arrivalLane="1369578054_1" arrivalPos="50.33" arrivalSpeed="12.35" duration="49.00" routeLength="229.85" waitingTime="12.00" waitingCount="2" stopTime="0.00" timeLoss="31.66" rerouteNo="0" devices="tripinfo_route_33.2" vType="car" speedFactor="0.89" vaporized=""/>
    <tripinfo id="route_31.4" depart="162.00" departLane="1235147073.116_0" departPos="1.26" departSpeed="0.00" departDelay="31.11" arrival="195.00" arrivalLane="133126030#0_1" arrivalPos="39.35" arrivalSpeed="11.68" duration="33.00" routeLength="212.61" waitingTime="0.00" waitingCount="0" stopTime="0.00" timeLoss="19.73" rerouteNo="0" devices="tripinfo_route_31.4" vType="car" speedFactor="1.09" vaporized=""/>
    <tripinfo id="route_33.0" depart="132.00" departLane="1235147073.116_0" departPos="4.63" departSpeed="0.00" departDelay="9.00" arrival="198.00" arrivalLane="1369578054_1" arrivalPos="176.77" arrivalSpeed="16.27" duration="66.00" routeLength="351.87" waitingTime="22.00" waitingCount="1" stopTime="0.00" timeLoss="44.08" rerouteNo="0" devices="tripinfo_route_33.0" vType="car" speedFactor="1.03" vaporized=""/>
    <tripinfo id="route_32.2" depart="149.00" departLane="1235147073.116_0" departPos="8.83" departSpeed="0.00" departDelay="21.28" arrival="199.00" arrivalLane="-430406005#1_0" arrivalPos="106.48" arrivalSpeed="14.50" duration="50.00" routeLength="260.61" waitingTime="8.00" waitingCount="1" stopTime="0.00" timeLoss="32.06" rerouteNo="0" devices="tripinfo_route_32.2" vType="car" speedFactor="0.92" vaporized=""/>
    <tripinfo id="route_33.1" depart="139.00" departLane="1235147073.116_0" departPos="2.35" departSpeed="0.00" departDelay="14.10" arrival="201.00" arrivalLane="1369578054_1" arrivalPos="189.81" arrivalSpeed="16.35" duration="62.00" routeLength="367.20" waitingTime="16.00" waitingCount="1" stopTime="0.00" timeLoss="38.88" rerouteNo="0" devices="tripinfo_route_33.1" vType="car" speedFactor="1.12" vaporized=""/>
    <tripinfo id="route_32.3" depart="168.00" departLane="1235147073.116_0" departPos="3.12" departSpeed="0.00" departDelay="37.91" arrival="202.00" arrivalLane="-430406005#1_0" arrivalPos="121.21" arrivalSpeed="15.99" duration="34.00" routeLength="281.04" waitingTime="0.00" waitingCount="0" stopTime="0.00" timeLoss="15.65" rerouteNo="0" devices="tripinfo_route_32.3" vType="car" speedFactor="1.04" vaporized=""/>
    <tripinfo id="route_31.5" depart="175.00" departLane="1235147073.116_0" departPos="13.96" departSpeed="0.00" departDelay="42.14" arrival="204.00" arrivalLane="133126030#0_0" arrivalPos="106.29" arrivalSpeed="14.18" duration="29.00" routeLength="266.85" waitingTime="0.00" waitingCount="0" stopTime="0.00" timeLoss="10.01" rerouteNo="0" devices="tripinfo_route_31.5" vType="car" speedFactor="0.85" vaporized=""/>
    <tripinfo id="route_33.4" depart="174.00" departLane="1235147073.116_0" departPos="2.76" departSpeed="0.00" departDelay="43.41" arrival="209.00" arrivalLane="1369578054_1" arrivalPos="126.81" arrivalSpeed="16.28" duration="35.00" routeLength="303.78" waitingTime="0.00" waitingCount="0" stopTime="0.00" timeLoss="15.15" rerouteNo="0" devices="tripinfo_route_33.4" vType="car" speedFactor="1.04" vaporized=""/>
    <tripinfo id="route_32.4" depart="177.00" departLane="1235147073.116_0" departPos="3.75" departSpeed="0.00" departDelay="44.55" arrival="212.00" arrivalLane="-430406005#1_0" arrivalPos="173.50" arrivalSpeed="16.20" duration="35.00" routeLength="332.70" waitingTime="0.00" waitingCount="0" stopTime="0.00" timeLoss="13.94" rerouteNo="0" devices="tripinfo_route_32.4" vType="car" speedFactor="1.17" vaporized=""/>
    <tripinfo id="route_33.5" depart="184.00" departLane="1235147073.116_0" departPos="12.66" departSpeed="0.00" departDelay="51.51" arrival="214.00" arrivalLane="1369578054_1" arrivalPos="88.79" arrivalSpeed="16.52" duration="30.00" routeLength="255.86" waitingTime="0.00" waitingCount="0" stopTime="0.00" timeLoss="12.83" rerouteNo="0" devices="tripinfo_route_33.5" vType="car" speedFactor="1.02" vaporized=""/>
    <tripinfo id="route_31.6" depart="185.00" departLane="1235147073.116_0" departPos="0.92" departSpeed="0.00" departDelay="50.16" arrival="214.00" arrivalLane="133126030#0_0" arrivalPos="125.13" arrivalSpeed="16.32" duration="29.00" routeLength="298.73" waitingTime="0.00" waitingCount="0" stopTime="0.00" timeLoss="10.48" rerouteNo="0" devices="tripinfo_route_31.6" vType="car" speedFactor="1.08" vaporized=""/>
    <tripinfo id="route_32.5" depart="189.00" departLane="1235147073.116_0" departPos="0.70" departSpeed="0.00" departDelay="54.19" arrival="224.00" arrivalLane="-430406005#1_0" arrivalPos="174.70" arrivalSpeed="16.51" duration="35.00" routeLength="336.96" waitingTime="0.00" waitingCount="0" stopTime="0.00" timeLoss="13.49" rerouteNo="0" devices="tripinfo_route_32.5" vType="car" speedFactor="1.12" vaporized=""/>
    <tripinfo id="route_31.7" depart="198.00" departLane="1235147073.116_0" departPos="11.43" departSpeed="0.00" departDelay="61.19" arrival="225.00" arrivalLane="133126030#0_0" arrivalPos="89.44" arrivalSpeed="16.44" duration="27.00" routeLength="252.53" waitingTime="0.00" waitingCount="0" stopTime="0.00" timeLoss="11.32" rerouteNo="0" devices="tripinfo_route_31.7" vType="car" speedFactor="1.02" vaporized=""/>
    <tripinfo id="route_29.1" depart="125.00" departLane="-422986370#2_0" departPos="265.89" departSpeed="0.00" departDelay="0.54" arrival="232.00" arrivalLane="-430406005#1_1" arrivalPos="8.25" arrivalSpeed="7.68" duration="107.00" routeLength="76.79" waitingTime="87.00" waitingCount="1" stopTime="0.00" timeLoss="102.31" rerouteNo="0" devices="tripinfo_route_29.1" vType="car" speedFactor="1.09" vaporized=""/>
    <tripinfo id="route_34.0" depart="123.00" departLane="133126008#0_0" departPos="101.07" departSpeed="0.00" departDelay="0.00" arrival="233.00" arrivalLane="1369578054_1" arrivalPos="13.07" arrivalSpeed="9.36" duration="110.00" routeLength="125.36" waitingTime="83.00" waitingCount="1" stopTime="0.00" timeLoss="101.67" rerouteNo="0" devices="tripinfo_route_34.0" vType="car" speedFactor="0.83" vaporized=""/>
    <tripinfo id="route_29.4" depart="129.00" departLane="-422986370#2_0" departPos="297.23" departSpeed="0.00" departDelay="0.15" arrival="234.00" arrivalLane="-430406005#1_0" arrivalPos="32.75" arrivalSpeed="10.10" duration="105.00" routeLength="69.94" waitingTime="90.00" waitingCount="1" stopTime="0.00" timeLoss="100.72" rerouteNo="0" devices="tripinfo_route_29.4" vType="car" speedFactor="1.15" vaporized=""/>
    <tripinfo id="route_33.6" depart="195.00" departLane="1235147073.116_0" departPos="2.18" departSpeed="0.00" departDelay="60.61" arrival="237.00" arrivalLane="1369578054_1" arrivalPos="253.34" arrivalSpeed="16.41" duration="42.00" routeLength="430.89" waitingTime="0.00" waitingCount="0" stopTime="0.00" timeLoss="14.64" rerouteNo="0" devices="tripinfo_route_33.6" vType="car" speedFactor="1.02" vaporized=""/>
    <tripinfo id="route_34.3" depart="134.00" departLane="133126008#0_0" departPos="127.31" departSpeed="0.00" departDelay="4.18" arrival="239.00" arrivalLane="1369578054_0" arrivalPos="25.77" arrivalSpeed="11.44" duration="105.00" routeLength="111.83" waitingTime="77.00" waitingCount="1" stopTime="0.00" timeLoss="97.57" rerouteNo="0" devices="tripinfo_route_34.3" vType="car" speedFactor="0.97" vaporized=""/>
    <tripinfo id="route_34.6" depart="137.00" departLane="133126008#0_0" departPos="162.26" departSpeed="0.00" departDelay="0.37" arrival="239.00" arrivalLane="1369578054_1" arrivalPos="50.19" arrivalSpeed="11.66" duration="102.00" routeLength="101.29" waitingTime="79.00" waitingCount="2" stopTime="0.00" timeLoss="95.10" rerouteNo="0" devices="tripinfo_route_34.6" vType="car" speedFactor="0.94" vaporized=""/>
    <tripinfo id="route_35.2" depart="132.00" departLane="133126008#0_0" departPos="111.59" departSpeed="0.00" departDelay="3.34" arrival="241.00" arrivalLane="133126030#0_0" arrivalPos="51.67" arrivalSpeed="10.60" duration="109.00" routeLength="127.60" waitingTime="77.00" waitingCount="1" stopTime="0.00" timeLoss="99.95" rerouteNo="0" devices="tripinfo_route_35.2" vType="car" speedFactor="1.02" vaporized=""/>
    <tripinfo id="route_29.8" depart="139.00" departLane="-422986370#2_0" departPos="216.62" departSpeed="0.00" departDelay="4.30" arrival="241.00" arrivalLane="-430406005#1_0" arrivalPos="7.61" arrivalSpeed="10.36" duration="102.00" routeLength="125.42" waitingTime="72.00" waitingCount="1" stopTime="0.00" timeLoss="93.95" rerouteNo="0" devices="tripinfo_route_29.8" vType="car" speedFactor="1.02" vaporized=""/>
    <tripinfo id="route_34.5" depart="136.00" departLane="133126008#0_0" departPos="98.03" departSpeed="0.00" departDelay="1.64" arrival="241.00" arrivalLane="1369578054_1" arrivalPos="46.01" arrivalSpeed="11.69" duration="105.00" routeLength="161.35" waitingTime="71.00" waitingCount="1" stopTime="0.00" timeLoss="94.79" rerouteNo="0" devices="tripinfo_route_34.5" vType="car" speedFactor="0.99" vaporized=""/>
    <tripinfo id="route_29.2" depart="126.00" departLane="-422986370#2_0" departPos="99.24" departSpeed="0.00" departDelay="0.07" arrival="242.00" arrivalLane="-430406005#1_1" arrivalPos="42.28" arrivalSpeed="11.68" duration="116.00" routeLength="277.46" waitingTime="73.00" waitingCount="1" stopTime="0.00" timeLoss="98.25" rerouteNo="0" devices="tripinfo_route_29.2" vType="car" speedFactor="0.93" vaporized=""/>
    <tripinfo id="route_35.1" depart="127.00" departLane="133126008#0_0" departPos="144.87" departSpeed="0.00" departDelay="1.17" arrival="243.00" arrivalLane="133126030#0_0" arrivalPos="141.65" arrivalSpeed="15.26" duration="116.00" routeLength="184.30" waitingTime="85.00" waitingCount="1" stopTime="0.00" timeLoss="102.63" rerouteNo="0" devices="tripinfo_route_35.1" vType="car" speedFactor="0.94" vaporized=""/>
    <tripinfo id="route_30.0" depart="123.00" departLane="-422986370#2_0" departPos="201.60" departSpeed="0.00" departDelay="0.00" arrival="244.00" arrivalLane="137415945#0_0" arrivalPos="9.07" arrivalSpeed="15.11" duration="121.00" routeLength="253.29" waitingTime="82.00" waitingCount="1" stopTime="0.00" timeLoss="102.70" rerouteNo="0" devices="tripinfo_route_30.0" vType="car" speedFactor="0.94" vaporized=""/>
    <tripinfo id="route_34.1" depart="126.00" departLane="133126008#0_0" departPos="23.09" departSpeed="0.00" departDelay="0.73" arrival="246.00" arrivalLane="1369578054_1" arrivalPos="90.42" arrivalSpeed="14.51" duration="120.00" routeLength="280.69" waitingTime="71.00" waitingCount="1" stopTime="0.00" timeLoss="102.48" rerouteNo="0" devices="tripinfo_route_34.1" vType="car" speedFactor="0.94" vaporized=""/>
    <tripinfo id="route_29.3" depart="128.00" departLane="-422986370#2_0" departPos="173.76" departSpeed="0.00" departDelay="0.61" arrival="246.00" arrivalLane="-430406005#1_1" arrivalPos="127.79" arrivalSpeed="15.58" duration="118.00" routeLength="288.46" waitingTime="74.00" waitingCount="1" stopTime="0.00" timeLoss="99.28" rerouteNo="0" devices="tripinfo_route_29.3" vType="car" speedFactor="0.87" vaporized=""/>
    <tripinfo id="route_29.5" depart="132.00" departLane="-422986370#2_0" departPos="127.34" departSpeed="0.00" departDelay="1.69" arrival="247.00" arrivalLane="-430406005#1_1" arrivalPos="62.84" arrivalSpeed="13.27" duration="115.00" routeLength="269.93" waitingTime="70.00" waitingCount="1" stopTime="0.00" timeLoss="98.55" rerouteNo="0" devices="tripinfo_route_29.5" vType="car" speedFactor="1.03" vaporized=""/>
    <tripinfo id="route_30.5" depart="136.00" departLane="-422986370#2_0" departPos="245.96" departSpeed="0.00" departDelay="3.26" arrival="247.00" arrivalLane="137415945#0_0" arrivalPos="11.12" arrivalSpeed="14.18" duration="111.00" routeLength="210.98" waitingTime="77.00" waitingCount="1" stopTime="0.00" timeLoss="94.60" rerouteNo="0" devices="tripinfo_route_30.5" vType="car" speedFactor="0.85" vaporized=""/>
    <tripinfo id="route_29.9" depart="140.00" departLane="-422986370#2_0" departPos="275.45" departSpeed="0.00" departDelay="3.83" arrival="247.00" arrivalLane="-430406005#1_1" arrivalPos="175.19" arrivalSpeed="16.22" duration="107.00" routeLength="234.17" waitingTime="75.00" waitingCount="1" stopTime="0.00" timeLoss="92.79" rerouteNo="0" devices="tripinfo_route_29.9" vType="car" speedFactor="1.04" vaporized=""/>
    <tripinfo id="route_34.2" depart="129.00" departLane="133126008#0_0" departPos="165.65" departSpeed="0.00" departDelay="1.46" arrival="248.00" arrivalLane="1369578054_0" arrivalPos="207.23" arrivalSpeed="15.60" duration="119.00" routeLength="254.95" waitingTime="85.00" waitingCount="1" stopTime="0.00" timeLoss="102.08" rerouteNo="0" devices="tripinfo_route_34.2" vType="car" speedFactor="0.95" vaporized=""/>
    <tripinfo id="route_30.4" depart="132.00" departLane="-422986370#2_0" departPos="212.90" departSpeed="0.00" departDelay="1.21" arrival="248.00" arrivalLane="137415945#0_0" arrivalPos="3.69" arrivalSpeed="15.83" duration="116.00" routeLength="236.61" waitingTime="76.00" waitingCount="1" stopTime="0.00" timeLoss="99.42" rerouteNo="0" devices="tripinfo_route_30.4" vType="car" speedFactor="0.96" vaporized=""/>
    <tripinfo id="route_29.6" depart="136.00" departLane="-422986370#2_0" departPos="192.05" departSpeed="0.00" departDelay="4.22" arrival="248.00" arrivalLane="-430406005#1_0" arrivalPos="74.50" arrivalSpeed="15.74" duration="112.00" routeLength="216.88" waitingTime="73.00" waitingCount="1" stopTime="0.00" timeLoss="98.03" rerouteNo="0" devices="tripinfo_route_29.6" vType="car" speedFactor="1.09" vaporized=""/>
    <tripinfo id="route_35.3" depart="134.00" departLane="133126008#0_0" departPos="66.33" departSpeed="0.00" departDelay="2.51" arrival="248.00" arrivalLane="133126030#0_0" arrivalPos="67.66" arrivalSpeed="12.20" duration="114.00" routeLength="188.86" waitingTime="72.00" waitingCount="1" stopTime="0.00" timeLoss="101.35" rerouteNo="0" devices="tripinfo_route_35.3" vType="car" speedFactor="1.00" vaporized=""/>
    <tripinfo id="route_29.7" depart="137.00" departLane="-422986370#2_0" departPos="3.49" departSpeed="0.00" departDelay="3.76" arrival="248.00" arrivalLane="-430406005#1_1" arrivalPos="50.22" arrivalSpeed="13.54" duration="111.00" routeLength="381.16" waitingTime="62.00" waitingCount="1" stopTime="0.00" timeLoss="85.67" rerouteNo="0" devices="tripinfo_route_29.7" vType="car" speedFactor="0.90" vaporized=""/>
    <tripinfo id="route_29.11" depart="149.00" departLane="-422986370#2_0" departPos="158.60" departSpeed="0.00" departDelay="9.91" arrival="248.00" arrivalLane="-430406005#1_1" arrivalPos="28.15" arrivalSpeed="12.28" duration="99.00" routeLength="203.98" waitingTime="60.00" waitingCount="1" stopTime="0.00" timeLoss="86.43" rerouteNo="0" devices="tripinfo_route_29.11" vType="car" speedFactor="1.15" vaporized=""/>
    <tripinfo id="route_34.7" depart="140.00" departLane="133126008#0_0" departPos="44.71" departSpeed="0.00" departDelay="1.10" arrival="249.00" arrivalLane="1369578054_1" arrivalPos="62.18" arrivalSpeed="14.08" duration="109.00" routeLength="230.83" waitingTime="68.00" waitingCount="1" stopTime="0.00" timeLoss="94.64" rerouteNo="0" devices="tripinfo_route_34.7" vType="car" speedFactor="0.97" vaporized=""/>
    <tripinfo id="route_35.0" depart="123.00" departLane="133126008#0_0" departPos="47.21" departSpeed="0.00" departDelay="0.00" arrival="250.00" arrivalLane="133126030#0_0" arrivalPos="137.72" arrivalSpeed="15.81" duration="127.00" routeLength="278.03" waitingTime="76.00" waitingCount="1" stopTime="0.00" timeLoss="108.86" rerouteNo="0" devices="tripinfo_route_35.0" vType="car" speedFactor="1.05" vaporized=""/>
    <tripinfo id="route_34.4" depart="134.00" departLane="133126008#0_0" departPos="85.67" departSpeed="0.00" departDelay="1.91" arrival="250.00" arrivalLane="1369578054_1" arrivalPos="123.18" arrivalSpeed="16.33" duration="116.00" routeLength="250.86" waitingTime="69.00" waitingCount="1" stopTime="0.00" timeLoss="100.32" rerouteNo="0" devices="tripinfo_route_34.4" vType="car" speedFactor="1.10" vaporized=""/>
    <tripinfo id="route_34.9" depart="154.00" departLane="133126008#0_0" departPos="75.47" departSpeed="0.00" departDelay="10.55" arrival="251.00" arrivalLane="1369578054_1" arrivalPos="66.50" arrivalSpeed="14.33" duration="97.00" routeLength="204.39" waitingTime="61.00" waitingCount="1" stopTime="0.00" timeLoss="84.27" rerouteNo="0" devices="tripinfo_route_34.9" vType="car" speedFactor="1.03" vaporized=""/>
    <tripinfo id="route_29.0" depart="123.00" departLane="-422986370#2_0" departPos="1.81" departSpeed="0.00" departDelay="0.00" arrival="252.00" arrivalLane="-430406005#1_1" arrivalPos="159.13" arrivalSpeed="16.35" duration="129.00" routeLength="491.75" waitingTime="73.00" waitingCount="1" stopTime="0.00" timeLoss="98.68" rerouteNo="0" devices="tripinfo_route_29.0" vType="car" speedFactor="1.06" vaporized=""/>
    <tripinfo id="route_35.6" depart="145.00" departLane="133126008#0_0" departPos="5.63" departSpeed="0.00" departDelay="5.02" arrival="252.00" arrivalLane="133126030#0_0" arrivalPos="23.99" arrivalSpeed="8.31" duration="107.00" routeLength="205.89" waitingTime="62.00" waitingCount="1" stopTime="0.00" timeLoss="93.98" rerouteNo="0" devices="tripinfo_route_35.6" vType="car" speedFactor="1.00" vaporized=""/>
    <tripinfo id="route_29.10" depart="144.00" departLane="-422986370#2_0" departPos="79.17" departSpeed="0.00" departDelay="6.37" arrival="253.00" arrivalLane="-430406005#1_1" arrivalPos="73.55" arrivalSpeed="15.91" duration="109.00" routeLength="328.82" waitingTime="60.00" waitingCount="1" stopTime="0.00" timeLoss="88.49" rerouteNo="0" devices="tripinfo_route_29.10" vType="car" speedFactor="0.98" vaporized=""/>
    <tripinfo id="route_30.1" depart="125.00" departLane="-422986370#2_0" departPos="118.79" departSpeed="0.00" departDelay="0.05" arrival="254.00" arrivalLane="137415945#0_0" arrivalPos="6.53" arrivalSpeed="16.45" duration="129.00" routeLength="333.56" waitingTime="73.00" waitingCount="1" stopTime="0.00" timeLoss="107.40" rerouteNo="0" devices="tripinfo_route_30.1" vType="car" speedFactor="1.03" vaporized=""/>