<?xml version="1.0" encoding="UTF-8"?>

<!-- generated on 2025-05-04 22:11:40 by Eclipse SUMO sumo Version 1.20.0
<configuration xmlns:xsi="http://www.w3.org/2001/XMLSchema-instance" xsi:noNamespaceSchemaLocation="http://sumo.dlr.de/xsd/sumoConfiguration.xsd">

    <input>
        <net-file value="config/osm.net.xml"/>
        <route-files value="draft/generated_0_093_5_069_0_649_7_027_114_.rou.xml"/>
    </input>

    <output>
        <tripinfo-output value="draft/tripinfo_0_093_5_069_0_649_7_027_114.xml"/>
    </output>

    <time>
        <step-length value="1"/>
    </time>

    <traci_server>
        <remote-port value="42449"/>
    </traci_server>

    <gui_only>
        <start value="true"/>
    </gui_only>

</configuration>
-->

<tripinfos xmlns:xsi="http://www.w3.org/2001/XMLSchema-instance" xsi:noNamespaceSchemaLocation="http://sumo.dlr.de/xsd/tripinfo_file.xsd">
    <tripinfo id="route_29.4" depart="120.00" departLane="-422986370#2_0" departPos="297.23" departSpeed="0.00" departDelay="0.15" arrival="133.00" arrivalLane="-430406005#1_0" arrivalPos="32.75" arrivalSpeed="10.55" duration="13.00" routeLength="69.94" waitingTime="0.00" waitingCount="0" stopTime="0.00" timeLoss="8.55" rerouteNo="0" devices="tripinfo_route_29.4" vType="car" speedFactor="1.15" vaporized=""/>
    <tripinfo id="route_37.1" depart="117.00" departLane="485211947#0_0" departPos="76.22" departSpeed="0.00" departDelay="0.96" arrival="144.00" arrivalLane="137415945#0_1" arrivalPos="2.03" arrivalSpeed="16.23" duration="27.00" routeLength="270.34" waitingTime="0.00" waitingCount="0" stopTime="0.00" timeLoss="10.68" rerouteNo="0" devices="tripinfo_route_37.1" vType="car" speedFactor="1.16" vaporized=""/>
    <tripinfo id="route_38.2" depart="123.00" departLane="485211947#0_0" departPos="162.23" departSpeed="0.00" departDelay="4.39" arrival="145.00" arrivalLane="-430406005#1_1" arrivalPos="54.97" arrivalSpeed="11.25" duration="22.00" routeLength="105.72" waitingTime="0.00" waitingCount="0" stopTime="0.00" timeLoss="14.94" rerouteNo="0" devices="tripinfo_route_38.2" vType="car" speedFactor="1.18" vaporized=""/>
    <tripinfo id="route_37.0" depart="114.00" departLane="485211947#0_0" departPos="162.24" departSpeed="0.00" departDelay="0.00" arrival="149.00" arrivalLane="137415945#0_0" arrivalPos="6.94" arrivalSpeed="15.39" duration="35.00" routeLength="189.23" waitingTime="5.00" waitingCount="1" stopTime="0.00" timeLoss="22.60" rerouteNo="0" devices="tripinfo_route_37.0" vType="car" speedFactor="0.94" vaporized=""/>
    <tripinfo id="route_36.0" depart="114.00" departLane="485211947#0_0" departPos="11.17" departSpeed="0.00" departDelay="0.00" arrival="151.00" arrivalLane="1369578054_0" arrivalPos="74.16" arrivalSpeed="12.69" duration="37.00" routeLength="260.46" waitingTime="0.00" waitingCount="0" stopTime="0.00" timeLoss="18.38" rerouteNo="0" devices="tripinfo_route_36.0" vType="car" speedFactor="0.89" vaporized=""/>
    <tripinfo id="route_37.2" depart="122.00" departLane="485211947#0_0" departPos="72.22" departSpeed="0.00" departDelay="3.92" arrival="151.00" arrivalLane="137415945#0_1" arrivalPos="12.22" arrivalSpeed="15.30" duration="29.00" routeLength="284.53" waitingTime="0.00" waitingCount="0" stopTime="0.00" timeLoss="9.88" rerouteNo="0" devices="tripinfo_route_37.2" vType="car" speedFactor="0.93" vaporized=""/>
    <tripinfo id="route_38.1" depart="117.00" departLane="485211947#0_0" departPos="178.72" departSpeed="0.00" departDelay="0.69" arrival="152.00" arrivalLane="-430406005#1_1" arrivalPos="170.84" arrivalSpeed="16.23" duration="35.00" routeLength="205.10" waitingTime="6.00" waitingCount="1" stopTime="0.00" timeLoss="20.92" rerouteNo="0" devices="tripinfo_route_38.1" vType="car" speedFactor="1.02" vaporized=""/>
    <tripinfo id="route_36.2" depart="118.00" departLane="485211947#0_0" departPos="123.80" departSpeed="0.00" departDelay="0.67" arrival="152.00" arrivalLane="1369578054_0" arrivalPos="171.28" arrivalSpeed="13.63" duration="34.00" routeLength="244.94" waitingTime="0.00" waitingCount="0" stopTime="0.00" timeLoss="15.03" rerouteNo="0" devices="tripinfo_route_36.2" vType="car" speedFactor="0.83" vaporized=""/>
    <tripinfo id="route_38.0" depart="114.00" departLane="485211947#0_0" departPos="59.66" departSpeed="0.00" departDelay="0.00" arrival="153.00" arrivalLane="-430406005#1_1" arrivalPos="133.07" arrivalSpeed="15.53" duration="39.00" routeLength="286.39" waitingTime="0.00" waitingCount="0" stopTime="0.00" timeLoss="18.68" rerouteNo="0" devices="tripinfo_route_38.0" vType="car" speedFactor="0.86" vaporized=""/>
    <tripinfo id="route_36.4" depart="126.00" departLane="485211947#0_0" departPos="51.38" departSpeed="0.00" departDelay="5.34" arrival="159.00" arrivalLane="1369578054_0" arrivalPos="169.94" arrivalSpeed="16.31" duration="33.00" routeLength="316.02" waitingTime="0.00" waitingCount="0" stopTime="0.00" timeLoss="12.87" rerouteNo="0" devices="tripinfo_route_36.4" vType="car" speedFactor="1.18" vaporized=""/>
    <tripinfo id="route_37.3" depart="129.00" departLane="485211947#0_0" departPos="21.19" departSpeed="0.00" departDelay="8.88" arrival="160.00" arrivalLane="137415945#0_0" arrivalPos="2.64" arrivalSpeed="16.17" duration="31.00" routeLength="325.98" waitingTime="0.00" waitingCount="0" stopTime="0.00" timeLoss="10.85" rerouteNo="0" devices="tripinfo_route_37.3" vType="car" speedFactor="1.10" vaporized=""/>
    <tripinfo id="route_36.1" depart="116.00" departLane="485211947#0_0" departPos="100.86" departSpeed="0.00" departDelay="0.33" arrival="161.00" arrivalLane="1369578054_1" arrivalPos="281.37" arrivalSpeed="16.19" duration="45.00" routeLength="377.98" waitingTime="0.00" waitingCount="0" stopTime="0.00" timeLoss="20.44" rerouteNo="0" devices="tripinfo_route_36.1" vType="car" speedFactor="0.99" vaporized=""/>
    <tripinfo id="route_38.3" depart="133.00" departLane="485211947#0_0" departPos="6.42" departSpeed="0.00" departDelay="12.08" arrival="164.00" arrivalLane="-430406005#1_1" arrivalPos="32.26" arrivalSpeed="11.16" duration="31.00" routeLength="238.83" waitingTime="0.00" waitingCount="0" stopTime="0.00" timeLoss="13.96" rerouteNo="0" devices="tripinfo_route_38.3" vType="car" speedFactor="0.90" vaporized=""/>
    <tripinfo id="route_36.3" depart="120.00" departLane="485211947#0_0" departPos="12.41" departSpeed="0.00" departDelay="1.00" arrival="168.00" arrivalLane="1369578054_0" arrivalPos="280.18" arrivalSpeed="16.50" duration="48.00" routeLength="465.23" waitingTime="0.00" waitingCount="0" stopTime="0.00" timeLoss="18.79" rerouteNo="0" devices="tripinfo_route_36.3" vType="car" speedFactor="1.13" vaporized=""/>
    <tripinfo id="route_37.4" depart="145.00" departLane="485211947#0_0" departPos="110.44" departSpeed="0.00" departDelay="22.84" arrival="171.00" arrivalLane="137415945#0_1" arrivalPos="0.30" arrivalSpeed="14.58" duration="26.00" routeLength="234.40" waitingTime="0.00" waitingCount="0" stopTime="0.00" timeLoss="9.90" rerouteNo="0" devices="tripinfo_route_37.4" vType="car" speedFactor="0.88" vaporized=""/>
    <tripinfo id="route_38.6" depart="153.00" departLane="485211947#0_0" departPos="132.41" departSpeed="0.00" departDelay="25.16" arrival="171.00" arrivalLane="-430406005#1_1" arrivalPos="29.91" arrivalSpeed="11.36" duration="18.00" routeLength="110.48" waitingTime="0.00" waitingCount="0" stopTime="0.00" timeLoss="10.05" rerouteNo="0" devices="tripinfo_route_38.6" vType="car" speedFactor="0.96" vaporized=""/>
    <tripinfo id="route_37.5" depart="147.00" departLane="485211947#0_0" departPos="96.45" departSpeed="0.00" departDelay="22.80" arrival="174.00" arrivalLane="137415945#0_1" arrivalPos="9.07" arrivalSpeed="16.41" duration="27.00" routeLength="257.15" waitingTime="0.00" waitingCount="0" stopTime="0.00" timeLoss="11.32" rerouteNo="0" devices="tripinfo_route_37.5" vType="car" speedFactor="1.14" vaporized=""/>
    <tripinfo id="route_37.6" depart="149.00" departLane="485211947#0_0" departPos="141.07" departSpeed="0.00" departDelay="22.76" arrival="174.00" arrivalLane="137415945#0_0" arrivalPos="7.30" arrivalSpeed="14.80" duration="25.00" routeLength="210.76" waitingTime="0.00" waitingCount="0" stopTime="0.00" timeLoss="10.43" rerouteNo="0" devices="tripinfo_route_37.6" vType="car" speedFactor="0.91" vaporized=""/>
    <tripinfo id="route_36.7" depart="147.00" departLane="485211947#0_0" departPos="66.50" departSpeed="0.00" departDelay="21.34" arrival="176.00" arrivalLane="1369578054_0" arrivalPos="103.24" arrivalSpeed="14.12" duration="29.00" routeLength="234.21" waitingTime="0.00" waitingCount="0" stopTime="0.00" timeLoss="11.99" rerouteNo="0" devices="tripinfo_route_36.7" vType="car" speedFactor="0.88" vaporized=""/>
    <tripinfo id="route_36.6" depart="145.00" departLane="485211947#0_0" departPos="48.42" departSpeed="0.00" departDelay="21.00" arrival="178.00" arrivalLane="1369578054_0" arrivalPos="102.74" arrivalSpeed="13.54" duration="33.00" routeLength="251.78" waitingTime="0.00" waitingCount="0" stopTime="0.00" timeLoss="16.75" rerouteNo="0" devices="tripinfo_route_36.6" vType="car" speedFactor="1.00" vaporized=""/>
    <tripinfo id="route_38.4" depart="146.00" departLane="485211947#0_0" departPos="37.56" departSpeed="0.00" departDelay="22.77" arrival="179.00" arrivalLane="-430406005#1_1" arrivalPos="124.92" arrivalSpeed="16.38" duration="33.00" routeLength="300.34" waitingTime="0.00" waitingCount="0" stopTime="0.00" timeLoss="13.92" rerouteNo="0" devices="tripinfo_route_38.4" vType="car" speedFactor="1.00" vaporized=""/>
    <tripinfo id="route_36.8" depart="149.00" departLane="485211947#0_0" departPos="150.45" departSpeed="0.00" departDelay="21.67" arrival="179.00" arrivalLane="1369578054_0" arrivalPos="270.68" arrivalSpeed="16.54" duration="30.00" routeLength="317.69" waitingTime="0.00" waitingCount="0" stopTime="0.00" timeLoss="9.70" rerouteNo="0" devices="tripinfo_route_36.8" vType="car" speedFactor="1.06" vaporized=""/>
    <tripinfo id="route_38.5" depart="148.00" departLane="485211947#0_0" departPos="0.95" departSpeed="0.00" departDelay="22.47" arrival="183.00" arrivalLane="-430406005#1_1" arrivalPos="118.46" arrivalSpeed="15.94" duration="35.00" routeLength="330.48" waitingTime="0.00" waitingCount="0" stopTime="0.00" timeLoss="12.63" rerouteNo="0" devices="tripinfo_route_38.5" vType="car" speedFactor="0.91" vaporized=""/>
    <tripinfo id="route_31.0" depart="114.00" departLane="1235147073.116_0" departPos="7.14" departSpeed="0.00" departDelay="0.00" arrival="185.00" arrivalLane="133126030#0_0" arrivalPos="8.43" arrivalSpeed="7.09" duration="71.00" routeLength="175.81" waitingTime="40.00" waitingCount="1" stopTime="0.00" timeLoss="60.22" rerouteNo="0" devices="tripinfo_route_31.0" vType="car" speedFactor="1.01" vaporized=""/>
    <tripinfo id="route_36.9" depart="154.00" departLane="485211947#0_0" departPos="53.80" departSpeed="0.00" departDelay="25.01" arrival="186.00" arrivalLane="1369578054_0" arrivalPos="145.75" arrivalSpeed="16.31" duration="32.00" routeLength="289.40" waitingTime="0.00" waitingCount="0" stopTime="0.00" timeLoss="13.59" rerouteNo="0" devices="tripinfo_route_36.9" vType="car" speedFactor="1.01" vaporized=""/>
    <tripinfo id="route_32.1" depart="135.00" departLane="1235147073.116_0" departPos="3.53" departSpeed="0.00" departDelay="18.64" arrival="188.00" arrivalLane="-430406005#1_0" arrivalPos="5.79" arrivalSpeed="6.91" duration="53.00" routeLength="165.22" waitingTime="22.00" waitingCount="1" stopTime="0.00" timeLoss="40.79" rerouteNo="0" devices="tripinfo_route_32.1" vType="car" speedFactor="0.88" vaporized=""/>
    <tripinfo id="route_31.1" depart="126.00" departLane="1235147073.116_0" departPos="6.60" departSpeed="0.00" departDelay="10.03" arrival="190.00" arrivalLane="133126030#0_0" arrivalPos="56.90" arrivalSpeed="11.14" duration="64.00" routeLength="224.82" waitingTime="27.00" waitingCount="1" stopTime="0.00" timeLoss="49.88" rerouteNo="0" devices="tripinfo_route_31.1" vType="car" speedFactor="1.05" vaporized=""/>
    <tripinfo id="route_31.2" depart="139.00" departLane="1235147073.116_0" departPos="2.35" departSpeed="0.00" departDelay="21.05" arrival="190.00" arrivalLane="133126030#0_1" arrivalPos="41.34" arrivalSpeed="9.96" duration="51.00" routeLength="213.51" waitingTime="17.00" waitingCount="2" stopTime="0.00" timeLoss="37.68" rerouteNo="0" devices="tripinfo_route_31.2" vType="car" speedFactor="0.97" vaporized=""/>
    <tripinfo id="route_31.3" depart="152.00" departLane="1235147073.116_0" departPos="1.02" departSpeed="0.00" departDelay="32.08" arrival="191.00" arrivalLane="133126030#0_1" arrivalPos="28.13" arrivalSpeed="10.60" duration="39.00" routeLength="201.64" waitingTime="5.00" waitingCount="1" stopTime="0.00" timeLoss="26.35" rerouteNo="0" devices="tripinfo_route_31.3" vType="car" speedFactor="1.17" vaporized=""/>
    <tripinfo id="route_33.3" depart="158.00" departLane="1235147073.116_0" departPos="1.96" departSpeed="0.00" departDelay="38.31" arrival="192.00" arrivalLane="1369578054_1" arrivalPos="8.34" arrivalSpeed="8.87" duration="34.00" routeLength="186.11" waitingTime="1.00" waitingCount="1" stopTime="0.00" timeLoss="21.88" rerouteNo="0" devices="tripinfo_route_33.3" vType="car" speedFactor="0.99" vaporized=""/>
    <tripinfo id="route_33.2" depart="144.00" departLane="1235147073.116_0" departPos="0.97" departSpeed="0.00" departDelay="26.20" arrival="193.00" arrivalLane="1369578054_1" arrivalPos="50.33" arrivalSpeed="11.71" duration="49.00" routeLength="229.09" waitingTime="13.00" waitingCount="1" stopTime="0.00" timeLoss="32.44" rerouteNo="0" devices="tripinfo_route_33.2" vType="car" speedFactor="0.89" vaporized=""/>
    <tripinfo id="route_32.0" depart="117.00" departLane="1235147073.116_0" departPos="0.46" departSpeed="0.00" departDelay="3.00" arrival="194.00" arrivalLane="-430406005#1_0" arrivalPos="87.77" arrivalSpeed="12.32" duration="77.00" routeLength="250.27" waitingTime="39.00" waitingCount="1" stopTime="0.00" timeLoss="61.03" rerouteNo="0" devices="tripinfo_route_32.0" vType="car" speedFactor="1.08" vaporized=""/>
    <tripinfo id="route_31.4" depart="159.00" departLane="1235147073.116_0" departPos="13.29" departSpeed="0.00" departDelay="37.11" arrival="194.00" arrivalLane="133126030#0_1" arrivalPos="39.35" arrivalSpeed="11.90" duration="35.00" routeLength="200.58" waitingTime="1.00" waitingCount="1" stopTime="0.00" timeLoss="22.30" rerouteNo="0" devices="tripinfo_route_31.4" vType="car" speedFactor="1.09" vaporized=""/>
    <tripinfo id="route_36.5" depart="140.00" departLane="485211947#0_0" departPos="2.06" departSpeed="0.00" departDelay="17.67" arrival="194.00" arrivalLane="1369578054_0" arrivalPos="292.70" arrivalSpeed="14.69" duration="54.00" routeLength="488.10" waitingTime="0.00" waitingCount="0" stopTime="0.00" timeLoss="20.36" rerouteNo="0" devices="tripinfo_route_36.5" vType="car" speedFactor="0.90" vaporized=""/>
    <tripinfo id="route_33.0" depart="123.00" departLane="1235147073.116_0" departPos="4.63" departSpeed="0.00" departDelay="9.00" arrival="198.00" arrivalLane="1369578054_1" arrivalPos="176.77" arrivalSpeed="16.29" duration="75.00" routeLength="351.87" waitingTime="31.00" waitingCount="1" stopTime="0.00" timeLoss="52.80" rerouteNo="0" devices="tripinfo_route_33.0" vType="car" speedFactor="1.03" vaporized=""/>
    <tripinfo id="route_32.2" depart="148.00" departLane="1235147073.116_0" departPos="7.92" departSpeed="0.00" departDelay="29.28" arrival="199.00" arrivalLane="-430406005#1_0" arrivalPos="106.48" arrivalSpeed="14.14" duration="51.00" routeLength="261.52" waitingTime="12.00" waitingCount="1" stopTime="0.00" timeLoss="33.57" rerouteNo="0" devices="tripinfo_route_32.2" vType="car" speedFactor="0.92" vaporized=""/>
    <tripinfo id="route_31.5" depart="169.00" departLane="1235147073.116_0" departPos="6.42" departSpeed="0.00" departDelay="45.14" arrival="200.00" arrivalLane="133126030#0_1" arrivalPos="106.29" arrivalSpeed="14.14" duration="31.00" routeLength="274.39" waitingTime="0.00" waitingCount="0" stopTime="0.00" timeLoss="11.53" rerouteNo="0" devices="tripinfo_route_31.5" vType="car" speedFactor="0.85" vaporized=""/>
    <tripinfo id="route_33.1" depart="131.00" departLane="1235147073.116_0" departPos="1.98" departSpeed="0.00" departDelay="15.10" arrival="201.00" arrivalLane="1369578054_1" arrivalPos="189.81" arrivalSpeed="16.29" duration="70.00" routeLength="367.56" waitingTime="24.00" waitingCount="1" stopTime="0.00" timeLoss="46.83" rerouteNo="0" devices="tripinfo_route_33.1" vType="car" speedFactor="1.12" vaporized=""/>
    <tripinfo id="route_32.3" depart="160.00" departLane="1235147073.116_0" departPos="2.39" departSpeed="0.00" departDelay="38.91" arrival="202.00" arrivalLane="-430406005#1_0" arrivalPos="121.21" arrivalSpeed="15.47" duration="42.00" routeLength="281.77" waitingTime="0.00" waitingCount="0" stopTime="0.00" timeLoss="24.23" rerouteNo="0" devices="tripinfo_route_32.3" vType="car" speedFactor="1.04" vaporized=""/>
    <tripinfo id="route_33.4" depart="166.00" departLane="1235147073.116_0" departPos="7.09" departSpeed="0.00" departDelay="44.41" arrival="205.00" arrivalLane="1369578054_1" arrivalPos="126.81" arrivalSpeed="16.04" duration="39.00" routeLength="299.45" waitingTime="0.00" waitingCount="0" stopTime="0.00" timeLoss="19.65" rerouteNo="0" devices="tripinfo_route_33.4" vType="car" speedFactor="1.04" vaporized=""/>
    <tripinfo id="route_33.5" depart="177.00" departLane="1235147073.116_0" departPos="2.07" departSpeed="0.00" departDelay="53.51" arrival="207.00" arrivalLane="1369578054_1" arrivalPos="88.79" arrivalSpeed="15.90" duration="30.00" routeLength="266.45" waitingTime="0.00" waitingCount="0" stopTime="0.00" timeLoss="13.06" rerouteNo="0" devices="tripinfo_route_33.5" vType="car" speedFactor="1.02" vaporized=""/>
    <tripinfo id="route_32.4" depart="175.00" departLane="1235147073.116_0" departPos="10.55" departSpeed="0.00" departDelay="51.55" arrival="208.00" arrivalLane="-430406005#1_0" arrivalPos="173.50" arrivalSpeed="16.49" duration="33.00" routeLength="325.91" waitingTime="0.00" waitingCount="0" stopTime="0.00" timeLoss="12.36" rerouteNo="0" devices="tripinfo_route_32.4" vType="car" speedFactor="1.17" vaporized=""/>
    <tripinfo id="route_31.6" depart="180.00" departLane="1235147073.116_0" departPos="9.71" departSpeed="0.00" departDelay="54.16" arrival="208.00" arrivalLane="133126030#0_0" arrivalPos="125.13" arrivalSpeed="16.20" duration="28.00" routeLength="289.95" waitingTime="0.00" waitingCount="0" stopTime="0.00" timeLoss="10.49" rerouteNo="0" devices="tripinfo_route_31.6" vType="car" speedFactor="1.08" vaporized=""/>
    <tripinfo id="route_32.5" depart="184.00" departLane="1235147073.116_0" departPos="9.22" departSpeed="0.00" departDelay="58.19" arrival="219.00" arrivalLane="-430406005#1_0" arrivalPos="174.70" arrivalSpeed="16.45" duration="35.00" routeLength="328.44" waitingTime="0.00" waitingCount="0" stopTime="0.00" timeLoss="13.71" rerouteNo="0" devices="tripinfo_route_32.5" vType="car" speedFactor="1.12" vaporized=""/>
    <tripinfo id="route_31.7" depart="189.00" departLane="1235147073.116_0" departPos="11.77" departSpeed="0.00" departDelay="61.19" arrival="221.00" arrivalLane="133126030#0_0" arrivalPos="181.76" arrivalSpeed="16.25" duration="32.00" routeLength="344.51" waitingTime="0.00" waitingCount="0" stopTime="0.00" timeLoss="10.83" rerouteNo="0" devices="tripinfo_route_31.7" vType="car" speedFactor="1.02" vaporized=""/>
    <tripinfo id="route_33.6" depart="184.00" departLane="1235147073.116_0" departPos="0.15" departSpeed="0.00" departDelay="58.61" arrival="227.00" arrivalLane="1369578054_1" arrivalPos="253.34" arrivalSpeed="16.11" duration="43.00" routeLength="432.93" waitingTime="0.00" waitingCount="0" stopTime="0.00" timeLoss="15.89" rerouteNo="0" devices="tripinfo_route_33.6" vType="car" speedFactor="1.02" vaporized=""/>
    <tripinfo id="route_31.8" depart="195.00" departLane="1235147073.116_0" departPos="4.74" departSpeed="0.00" departDelay="65.22" arrival="228.00" arrivalLane="133126030#0_1" arrivalPos="173.46" arrivalSpeed="16.23" duration="33.00" routeLength="343.25" waitingTime="0.00" waitingCount="0" stopTime="0.00" timeLoss="12.13" rerouteNo="0" devices="tripinfo_route_31.8" vType="car" speedFactor="1.00" vaporized=""/>
    <tripinfo id="route_32.6" depart="194.00" departLane="1235147073.116_0" departPos="13.06" departSpeed="0.00" departDelay="65.83" arrival="229.00" arrivalLane="-430406005#1_0" arrivalPos="164.06" arrivalSpeed="16.54" duration="35.00" routeLength="313.96" waitingTime="0.00" waitingCount="0" stopTime="0.00" timeLoss="14.43" rerouteNo="0" devices="tripinfo_route_32.6" vType="car" speedFactor="1.03" vaporized=""/>
    <tripinfo id="route_29.1" depart="116.00" departLane="-422986370#2_0" departPos="265.89" departSpeed="0.00" departDelay="0.54" arrival="232.00" arrivalLane="-430406005#1_1" arrivalPos="8.25" arrivalSpeed="7.50" duration="116.00" routeLength="76.79" waitingTime="95.00" waitingCount="1" stopTime="0.00" timeLoss="111.14" rerouteNo="0" devices="tripinfo_route_29.1" vType="car" speedFactor="1.09" vaporized=""/>
    <tripinfo id="route_34.0" depart="114.00" departLane="133126008#0_0" departPos="101.07" departSpeed="0.00" departDelay="0.00" arrival="233.00" arrivalLane="1369578054_1" arrivalPos="13.07" arrivalSpeed="9.37" duration="119.00" routeLength="125.36" waitingTime="92.00" waitingCount="1" stopTime="0.00" timeLoss="110.53" rerouteNo="0" devices="tripinfo_route_34.0" vType="car" speedFactor="0.83" vaporized=""/>
    <tripinfo id="route_33.7" depart="191.00" departLane="1235147073.116_0" departPos="2.00" departSpeed="0.00" departDelay="63.71" arrival="234.00" arrivalLane="1369578054_1" arrivalPos="265.84" arrivalSpeed="16.13" duration="43.00" routeLength="443.57" waitingTime="0.00" waitingCount="0" stopTime="0.00" timeLoss="14.75" rerouteNo="0" devices="tripinfo_route_33.7" vType="car" speedFactor="0.97" vaporized=""/>
    <tripinfo id="route_34.3" depart="125.00" departLane="133126008#0_0" departPos="127.31" departSpeed="0.00" departDelay="4.18" arrival="238.00" arrivalLane="1369578054_0" arrivalPos="25.77" arrivalSpeed="10.93" duration="113.00" routeLength="111.83" waitingTime="86.00" waitingCount="1" stopTime="0.00" timeLoss="105.99" rerouteNo="0" devices="tripinfo_route_34.3" vType="car" speedFactor="0.97" vaporized=""/>
    <tripinfo id="route_34.5" depart="127.00" departLane="133126008#0_0" departPos="146.55" departSpeed="0.00" departDelay="1.64" arrival="238.00" arrivalLane="1369578054_1" arrivalPos="46.01" arrivalSpeed="11.70" duration="111.00" routeLength="112.82" waitingTime="85.00" waitingCount="1" stopTime="0.00" timeLoss="103.68" rerouteNo="0" devices="tripinfo_route_34.5" vType="car" speedFactor="0.99" vaporized=""/>
    <tripinfo id="route_29.2" depart="117.00" departLane="-422986370#2_0" departPos="99.24" departSpeed="0.00" departDelay="0.07" arrival="239.00" arrivalLane="-430406005#1_1" arrivalPos="42.28" arrivalSpeed="11.21" duration="122.00" routeLength="277.46" waitingTime="81.00" waitingCount="1" stopTime="0.00" timeLoss="104.18" rerouteNo="0" devices="tripinfo_route_29.2" vType="car" speedFactor="0.93" vaporized=""/>
    <tripinfo id="route_35.2" depart="123.00" departLane="133126008#0_0" departPos="111.59" departSpeed="0.00" departDelay="3.34" arrival="241.00" arrivalLane="133126030#0_0" arrivalPos="51.67" arrivalSpeed="10.36" duration="118.00" routeLength="127.60" waitingTime="86.00" waitingCount="1" stopTime="0.00" timeLoss="108.81" rerouteNo="0" devices="tripinfo_route_35.2" vType="car" speedFactor="1.02" vaporized=""/>
    <tripinfo id="route_29.9" depart="135.00" departLane="-422986370#2_0" departPos="271.05" departSpeed="0.00" departDelay="7.83" arrival="241.00" arrivalLane="-430406005#1_0" arrivalPos="98.09" arrivalSpeed="14.81" duration="106.00" routeLength="161.47" waitingTime="80.00" waitingCount="1" stopTime="0.00" timeLoss="96.18" rerouteNo="0" devices="tripinfo_route_29.9" vType="car" speedFactor="1.04" vaporized=""/>
    <tripinfo id="route_30.0" depart="114.00" departLane="-422986370#2_0" departPos="201.60" departSpeed="0.00" departDelay="0.00" arrival="242.00" arrivalLane="137415945#0_0" arrivalPos="9.07" arrivalSpeed="14.78" duration="128.00" routeLength="253.29" waitingTime="88.00" waitingCount="1" stopTime="0.00" timeLoss="110.63" rerouteNo="0" devices="tripinfo_route_30.0" vType="car" speedFactor="0.94" vaporized=""/>
    <tripinfo id="route_29.6" depart="129.00" departLane="-422986370#2_0" departPos="245.44" departSpeed="0.00" departDelay="6.22" arrival="242.00" arrivalLane="-430406005#1_0" arrivalPos="74.50" arrivalSpeed="14.18" duration="113.00" routeLength="163.50" waitingTime="78.00" waitingCount="1" stopTime="0.00" timeLoss="102.43" rerouteNo="0" devices="tripinfo_route_29.6" vType="car" speedFactor="1.09" vaporized=""/>
    <tripinfo id="route_35.1" depart="118.00" departLane="133126008#0_0" departPos="144.87" departSpeed="0.00" departDelay="1.17" arrival="243.00" arrivalLane="133126030#0_0" arrivalPos="141.65" arrivalSpeed="15.38" duration="125.00" routeLength="184.30" waitingTime="94.00" waitingCount="1" stopTime="0.00" timeLoss="112.28" rerouteNo="0" devices="tripinfo_route_35.1" vType="car" speedFactor="0.94" vaporized=""/>
    <tripinfo id="route_34.1" depart="117.00" departLane="133126008#0_0" departPos="23.09" departSpeed="0.00" departDelay="0.73" arrival="244.00" arrivalLane="1369578054_1" arrivalPos="90.42" arrivalSpeed="14.55" duration="127.00" routeLength="280.69" waitingTime="85.00" waitingCount="1" stopTime="0.00" timeLoss="109.43" rerouteNo="0" devices="tripinfo_route_34.1" vType="car" speedFactor="0.94" vaporized=""/>
    <tripinfo id="route_29.3" depart="119.00" departLane="-422986370#2_0" departPos="173.76" departSpeed="0.00" departDelay="0.61" arrival="244.00" arrivalLane="-430406005#1_1" arrivalPos="127.79" arrivalSpeed="16.24" duration="125.00" routeLength="288.46" waitingTime="83.00" waitingCount="1" stopTime="0.00" timeLoss="105.86" rerouteNo="0" devices="tripinfo_route_29.3" vType="car" speedFactor="0.87" vaporized=""/>
    <tripinfo id="route_29.5" depart="123.00" departLane="-422986370#2_0" departPos="127.34" departSpeed="0.00" departDelay="1.69" arrival="245.00" arrivalLane="-430406005#1_1" arrivalPos="62.84" arrivalSpeed="13.87" duration="122.00" routeLength="269.93" waitingTime="79.00" waitingCount="1" stopTime="0.00" timeLoss="104.95" rerouteNo="0" devices="tripinfo_route_29.5" vType="car" speedFactor="1.03" vaporized=""/>
    <tripinfo id="route_30.4" depart="123.00" departLane="-422986370#2_0" departPos="212.90" departSpeed="0.00" departDelay="1.21" arrival="247.00" arrivalLane="137415945#0_0" arrivalPos="3.69" arrivalSpeed="15.91" duration="124.00" routeLength="236.61" waitingTime="79.00" waitingCount="1" stopTime="0.00" timeLoss="108.43" rerouteNo="0" devices="tripinfo_route_30.4" vType="car" speedFactor="0.96" vaporized=""/>
    <tripinfo id="route_35.3" depart="125.00" departLane="133126008#0_0" departPos="66.33" departSpeed="0.00" departDelay="2.51" arrival="247.00" arrivalLane="133126030#0_0" arrivalPos="67.66" arrivalSpeed="11.87" duration="122.00" routeLength="188.86" waitingTime="83.00" waitingCount="1" stopTime="0.00" timeLoss="109.51" rerouteNo="0" devices="tripinfo_route_35.3" vType="car" speedFactor="1.00" vaporized=""/>
    <tripinfo id="route_35.5" depart="131.00" departLane="133126008#0_0" departPos="40.65" departSpeed="0.00" departDelay="2.85" arrival="247.00" arrivalLane="133126030#0_0" arrivalPos="2.16" arrivalSpeed="6.13" duration="116.00" routeLength="149.03" waitingTime="83.00" waitingCount="1" stopTime="0.00" timeLoss="105.62" rerouteNo="0" devices="tripinfo_route_35.5" vType="car" speedFactor="0.98" vaporized=""/>
    <tripinfo id="route_34.2" depart="120.00" departLane="133126008#0_0" departPos="165.65" departSpeed="0.00" departDelay="1.46" arrival="248.00" arrivalLane="1369578054_0" arrivalPos="207.23" arrivalSpeed="15.36" duration="128.00" routeLength="254.95" waitingTime="94.00" waitingCount="1" stopTime="0.00" timeLoss="111.11" rerouteNo="0" devices="tripinfo_route_34.2" vType="car" speedFactor="0.95" vaporized=""/>
    <tripinfo id="route_34.4" depart="125.00" departLane="133126008#0_0" departPos="85.67" departSpeed="0.00" departDelay="1.91" arrival="248.00" arrivalLane="1369578054_1" arrivalPos="123.18" arrivalSpeed="16.42" duration="123.00" routeLength="250.86" waitingTime="83.00" waitingCount="1" stopTime="0.00" timeLoss="107.26" rerouteNo="0" devices="tripinfo_route_34.4" vType="car" speedFactor="1.10" vaporized=""/>
    <tripinfo id="route_29.8" depart="131.00" departLane="-422986370#2_0" departPos="29.27" departSpeed="0.00" departDelay="5.30" arrival="248.00" arrivalLane="-430406005#1_1" arrivalPos="7.61" arrivalSpeed="11.33" duration="117.00" routeLength="312.77" waitingTime="68.00" waitingCount="1" stopTime="0.00" timeLoss="98.10" rerouteNo="0" devices="tripinfo_route_29.8" vType="car" speedFactor="1.02" vaporized=""/>
    <tripinfo id="route_29.0" depart="114.00" departLane="-422986370#2_0" departPos="1.81" departSpeed="0.00" departDelay="0.00" arrival="249.00" arrivalLane="-430406005#1_1" arrivalPos="159.13" arrivalSpeed="16.47" duration="135.00" routeLength="491.75" waitingTime="80.00" waitingCount="1" stopTime="0.00" timeLoss="104.73" rerouteNo="0" devices="tripinfo_route_29.0" vType="car" speedFactor="1.06" vaporized=""/>
    <tripinfo id="route_35.0" depart="114.00" departLane="133126008#0_0" departPos="47.21" departSpeed="0.00" departDelay="0.00" arrival="249.00" arrivalLane="133126030#0_0" arrivalPos="137.72" arrivalSpeed="16.11" duration="135.00" routeLength="278.03" waitingTime="86.00" waitingCount="1" stopTime="0.00" timeLoss="116.92" rerouteNo="0" devices="tripinfo_route_35.0" vType="car" speedFactor="1.05" vaporized=""/>